                               Psi4 1.4a3.dev225

  ==> Input File <==

--------------------------------------------------------------------------
#psi4
#
memory 32 gb

molecule  {
0 1
  C       -0.5824800     1.6044310    -0.2213210
  C        0.7517090     0.8972820    -0.1584330
  C       -1.7393840     0.6486410    -0.0371650
  C        1.7237550     1.2518080     0.7820810
  C        1.0412590    -0.1412430    -1.0548500
  C        3.2457950    -0.4451680    -0.0684180
  C        2.9517370     0.5872480     0.8282550
  C        2.2676820    -0.7996710    -1.0091590
  C       -1.9495006    -0.1853227     1.0705537
  C       -2.7336970     0.5134260    -1.0120210
  C        4.5537390    -1.1898250     0.0022800
  C       -2.8866350    -1.0143110     1.3128170
  C       -3.7965280    -0.3760470    -0.8307700
  C       -3.8763200    -1.1410390     0.3331560
  H       -0.6887990     2.1194610    -1.1851540
  H       -0.6152960     2.3835930     0.5515720
  H        1.5214970     2.0586850     1.4854080
  H        0.2921320    -0.4400260    -1.7869590
  H        3.6942270     0.8828880     1.5683180
  H        2.4736480    -1.5998700    -1.7190670
  H       -1.0482340    -0.0434160     1.8839740
  H       -2.6776530     1.1110490    -1.9207770
  H        4.8944640    -1.4825890    -0.9952280
  H        5.3329890    -0.5734720     0.4595320
  H        4.4581780    -2.1030590     0.5999660
  H       -2.9412840    -1.6093450     2.2217140
  H       -4.5604750    -0.4701320    -1.5992930
  H       -4.7020430    -1.8337400     0.4769600
units angstrom
no_reorient  #important for SAPT in psi4, default
symmetry c1  #important for SAPT in psi4, default
}

set PROPERTIES_ORIGIN ["COM"]
properties('MP2/aug-cc-pvtz', properties = ['dipole'])
--------------------------------------------------------------------------

    Molecular point group: c1
  Charge       = 0
  Multiplicity = 1
  Basis Set: AUG-CC-PVTZ
    Blend: AUG-CC-PVTZ
  Basis Set: (AUG-CC-PVTZ AUX)
    Blend: AUG-CC-PVTZ-JKFIT

    Orbital Energies [Eh]
    ---------------------

    Doubly Occupied:

       1A    -11.241298     2A    -11.239583     3A    -11.238676
       4A    -11.237350     5A    -11.232577     6A    -11.231567
       7A    -11.231484     8A    -11.230708     9A    -11.230191
      10A    -11.229240    11A    -11.228939    12A    -11.227403
      13A    -11.223088    14A    -11.218905    15A     -1.168373
      16A     -1.151322    17A     -1.076226    18A     -1.029647
      19A     -1.016426    20A     -1.008365    21A     -0.958335
      22A     -0.897689    23A     -0.827266    24A     -0.817385
      25A     -0.808353    26A     -0.776597    27A     -0.693692
      28A     -0.669497    29A     -0.650947    30A     -0.635974
      31A     -0.625976    32A     -0.613812    33A     -0.581661
      34A     -0.578731    35A     -0.574761    36A     -0.567739
      37A     -0.561597    38A     -0.547862    39A     -0.528236
      40A     -0.510321    41A     -0.500897    42A     -0.482218
      43A     -0.479103    44A     -0.475823    45A     -0.449491
      46A     -0.348790    47A     -0.335124    48A     -0.327632
      49A     -0.307334

  @DF-RHF Final Energy:  -538.46587637315542

   => Energetics <=

    Nuclear Repulsion Energy =            787.1014537769764274
    One-Electron Energy =               -2289.4862313109824754
    Two-Electron Energy =                 963.9189011608505098
    Total Energy =                       -538.4658763731554245
  Basis Set: (AUG-CC-PVTZ AUX)
    Blend: AUG-CC-PVTZ-RI
    Molecular point group: c1

    Geometry (in Angstrom), charge = 0, multiplicity = 1:

       Center              X                  Y                   Z               Mass
    ------------   -----------------  -----------------  -----------------  -----------------
         C           -0.544752401221     1.599433904804    -0.217396741014    12.000000000000
         C            0.789436598779     0.892284904804    -0.154508741014    12.000000000000
         C           -1.701656401221     0.643643904804    -0.033240741014    12.000000000000
         C            1.761482598779     1.246810904804     0.786005258986    12.000000000000
         C            1.078986598779    -0.146240095196    -1.050925741014    12.000000000000
         C            3.283522598779    -0.450165095196    -0.064493741014    12.000000000000
         C            2.989464598779     0.582250904804     0.832179258986    12.000000000000
         C            2.305409598779    -0.804668095196    -1.005234741014    12.000000000000
         C           -1.911773001221    -0.190319795196     1.074477958986    12.000000000000
         C           -2.695969401221     0.508428904804    -1.008096741014    12.000000000000
         C            4.591466598779    -1.194822095196     0.006204258986    12.000000000000
         C           -2.848907401221    -1.019308095196     1.316741258986    12.000000000000
         C           -3.758800401221    -0.381044095196    -0.826845741014    12.000000000000
         C           -3.838592401221    -1.146036095196     0.337080258986    12.000000000000
         H           -0.651071401221     2.114463904804    -1.181229741014     1.007825032230
         H           -0.577568401221     2.378595904804     0.555496258986     1.007825032230
         H            1.559224598779     2.053687904804     1.489332258986     1.007825032230
         H            0.329859598779    -0.445023095196    -1.783034741014     1.007825032230
         H            3.731954598779     0.877890904804     1.572242258986     1.007825032230
         H            2.511375598779    -1.604867095196    -1.715142741014     1.007825032230
         H           -1.010506401221    -0.048413095196     1.887898258986     1.007825032230
         H           -2.639925401221     1.106051904804    -1.916852741014     1.007825032230
         H            4.932191598779    -1.487586095196    -0.991303741014     1.007825032230
         H            5.370716598779    -0.578469095196     0.463456258986     1.007825032230
         H            4.495905598779    -2.108056095196     0.603890258986     1.007825032230
         H           -2.903556401221    -1.614342095196     2.225638258986     1.007825032230
         H           -4.522747401221    -0.475129095196    -1.595368741014     1.007825032230
         H           -4.664315401221    -1.838737095196     0.480884258986     1.007825032230

  Basis Set: AUG-CC-PVTZ
    Blend: AUG-CC-PVTZ
  Basis Set: (AUG-CC-PVTZ AUX)
    Blend: AUG-CC-PVTZ-JKFIT
	 Reference Energy          =    -538.4658763731554245 [Eh]
	 Singles Energy            =      -0.0000000000000000 [Eh]
	 Same-Spin Energy          =      -0.6084653161446295 [Eh]
	 Opposite-Spin Energy      =      -1.9353558398577753 [Eh]
	 Correlation Energy        =      -2.5438211560024047 [Eh]
	 Total Energy              =    -541.0096975291578474 [Eh]

	 ================> DF-SCS-MP2 Energies <==================
	-----------------------------------------------------------
	 SCS Same-Spin Scale       =       0.3333333333333333 [-]
	 SCS Opposite-Spin Scale   =       1.2000000000000000 [-]
	 SCS Same-Spin Energy      =      -0.2028217720482098 [Eh]
	 SCS Opposite-Spin Energy  =      -2.3224270078293303 [Eh]
	 SCS Correlation Energy    =      -2.5252487798775403 [Eh]
	 SCS Total Energy          =    -540.9911251530329537 [Eh]
	-----------------------------------------------------------

  Dipole Moment: [D]
     X:     0.3724      Y:    -0.1102      Z:    -0.0528     Total:     0.3919

*** Psi4 exiting successfully. Buy a developer a beer!
