                               Psi4 1.4a3.dev225

  ==> Input File <==

--------------------------------------------------------------------------
#psi4
#
memory 32 gb

molecule  {
0 1
  C       -0.5824800     1.6044310    -0.2213210
  C        0.7517090     0.8972820    -0.1584330
  C       -1.7393840     0.6486410    -0.0371650
  C        1.7237550     1.2518080     0.7820810
  C        1.0412590    -0.1412430    -1.0548500
  C        3.2457950    -0.4451680    -0.0684180
  C        2.9517370     0.5872480     0.8282550
  C        2.2676820    -0.7996710    -1.0091590
  C       -1.8261890    -0.1288690     1.1267200
  C       -2.7336970     0.5134260    -1.0120210
  C        4.5537390    -1.1898250     0.0022800
  C       -2.8644508    -0.9809998     1.2848809
  C       -3.7965280    -0.3760470    -0.8307700
  C       -3.8763200    -1.1410390     0.3331560
  H       -0.6887990     2.1194610    -1.1851540
  H       -0.6152960     2.3835930     0.5515720
  H        1.5214970     2.0586850     1.4854080
  H        0.2921320    -0.4400260    -1.7869590
  H        3.6942270     0.8828880     1.5683180
  H        2.4736480    -1.5998700    -1.7190670
  H       -1.0482340    -0.0434160     1.8839740
  H       -2.6776530     1.1110490    -1.9207770
  H        4.8944640    -1.4825890    -0.9952280
  H        5.3329890    -0.5734720     0.4595320
  H        4.4581780    -2.1030590     0.5999660
  H       -2.9412840    -1.6093450     2.2217140
  H       -4.5604750    -0.4701320    -1.5992930
  H       -4.7020430    -1.8337400     0.4769600
units angstrom
no_reorient  #important for SAPT in psi4, default
symmetry c1  #important for SAPT in psi4, default
}

set PROPERTIES_ORIGIN ["COM"]
properties('MP2/aug-cc-pvtz', properties = ['dipole'])
--------------------------------------------------------------------------

    Molecular point group: c1
  Charge       = 0
  Multiplicity = 1
  Basis Set: AUG-CC-PVTZ
    Blend: AUG-CC-PVTZ
  Basis Set: (AUG-CC-PVTZ AUX)
    Blend: AUG-CC-PVTZ-JKFIT

    Orbital Energies [Eh]
    ---------------------

    Doubly Occupied:

       1A    -11.241409     2A    -11.238577     3A    -11.237133
       4A    -11.235287     5A    -11.234918     6A    -11.233326
       7A    -11.231411     8A    -11.230770     9A    -11.230320
      10A    -11.230081    11A    -11.229348    12A    -11.228853
      13A    -11.224560    14A    -11.223107    15A     -1.162609
      16A     -1.147558    17A     -1.074128    18A     -1.023728
      19A     -1.014353    20A     -1.008339    21A     -0.957702
      22A     -0.897001    23A     -0.827816    24A     -0.819876
      25A     -0.804101    26A     -0.774948    27A     -0.694466
      28A     -0.668304    29A     -0.648999    30A     -0.634975
      31A     -0.626807    32A     -0.616036    33A     -0.582015
      34A     -0.578956    35A     -0.574732    36A     -0.569073
      37A     -0.560152    38A     -0.549416    39A     -0.529245
      40A     -0.505954    41A     -0.493466    42A     -0.484944
      43A     -0.478175    44A     -0.472962    45A     -0.470239
      46A     -0.340166    47A     -0.334888    48A     -0.328691
      49A     -0.307489

  @DF-RHF Final Energy:  -538.49106369826927

   => Energetics <=

    Nuclear Repulsion Energy =            786.9022489350940077
    One-Electron Energy =               -2289.1638130289388755
    Two-Electron Energy =                 963.7705003955754819
    Total Energy =                       -538.4910636982692722
  Basis Set: (AUG-CC-PVTZ AUX)
    Blend: AUG-CC-PVTZ-RI
    Molecular point group: c1

    Geometry (in Angstrom), charge = 0, multiplicity = 1:

       Center              X                  Y                   Z               Mass
    ------------   -----------------  -----------------  -----------------  -----------------
         C           -0.554339760015     1.593518900361    -0.219256953173    12.000000000000
         C            0.779849239985     0.886369900361    -0.156368953173    12.000000000000
         C           -1.711243760015     0.637728900361    -0.035100953173    12.000000000000
         C            1.751895239985     1.240895900361     0.784145046827    12.000000000000
         C            1.069399239985    -0.152155099639    -1.052785953173    12.000000000000
         C            3.273935239985    -0.456080099639    -0.066353953173    12.000000000000
         C            2.979877239985     0.576335900361     0.830319046827    12.000000000000
         C            2.295822239985    -0.810583099639    -1.007094953173    12.000000000000
         C           -1.798048760015    -0.139781099639     1.128784046827    12.000000000000
         C           -2.705556760015     0.502513900361    -1.009956953173    12.000000000000
         C            4.581879239985    -1.200737099639     0.004344046827    12.000000000000
         C           -2.836310560015    -0.991911899639     1.286944946827    12.000000000000
         C           -3.768387760015    -0.386959099639    -0.828705953173    12.000000000000
         C           -3.848179760015    -1.151951099639     0.335220046827    12.000000000000
         H           -0.660658760015     2.108548900361    -1.183089953173     1.007825032230
         H           -0.587155760015     2.372680900361     0.553636046827     1.007825032230
         H            1.549637239985     2.047772900361     1.487472046827     1.007825032230
         H            0.320272239985    -0.450938099639    -1.784894953173     1.007825032230
         H            3.722367239985     0.871975900361     1.570382046827     1.007825032230
         H            2.501788239985    -1.610782099639    -1.717002953173     1.007825032230
         H           -1.020093760015    -0.054328099639     1.886038046827     1.007825032230
         H           -2.649512760015     1.100136900361    -1.918712953173     1.007825032230
         H            4.922604239985    -1.493501099639    -0.993163953173     1.007825032230
         H            5.361129239985    -0.584384099639     0.461596046827     1.007825032230
         H            4.486318239985    -2.113971099639     0.602030046827     1.007825032230
         H           -2.913143760015    -1.620257099639     2.223778046827     1.007825032230
         H           -4.532334760015    -0.481044099639    -1.597228953173     1.007825032230
         H           -4.673902760015    -1.844652099639     0.479024046827     1.007825032230

  Basis Set: AUG-CC-PVTZ
    Blend: AUG-CC-PVTZ
  Basis Set: (AUG-CC-PVTZ AUX)
    Blend: AUG-CC-PVTZ-JKFIT
	 Reference Energy          =    -538.4910636982692722 [Eh]
	 Singles Energy            =      -0.0000000000000000 [Eh]
	 Same-Spin Energy          =      -0.6082111060376190 [Eh]
	 Opposite-Spin Energy      =      -1.9346296942724037 [Eh]
	 Correlation Energy        =      -2.5428408003100227 [Eh]
	 Total Energy              =    -541.0339044985793180 [Eh]

	 ================> DF-SCS-MP2 Energies <==================
	-----------------------------------------------------------
	 SCS Same-Spin Scale       =       0.3333333333333333 [-]
	 SCS Opposite-Spin Scale   =       1.2000000000000000 [-]
	 SCS Same-Spin Energy      =      -0.2027370353458730 [Eh]
	 SCS Opposite-Spin Energy  =      -2.3215556331268843 [Eh]
	 SCS Correlation Energy    =      -2.5242926684727571 [Eh]
	 SCS Total Energy          =    -541.0153563667420258 [Eh]
	-----------------------------------------------------------

  Dipole Moment: [D]
     X:     0.3638      Y:    -0.1181      Z:    -0.0146     Total:     0.3827

*** Psi4 exiting successfully. Buy a developer a beer!
