                               Psi4 1.4a3.dev225

  ==> Input File <==

--------------------------------------------------------------------------
#psi4
#
memory 32 gb

molecule  {
0 1
  C       -0.5824800     1.6044310    -0.2213210
  C        0.7517090     0.8972820    -0.1584330
  C       -1.7393840     0.6486410    -0.0371650
  C        1.7237550     1.2518080     0.7820810
  C        1.0412590    -0.1412430    -1.0548500
  C        3.2457950    -0.4451680    -0.0684180
  C        2.9517370     0.5872480     0.8282550
  C        2.2676820    -0.7996710    -1.0091590
  C       -1.8261890    -0.1288690     1.1267200
  C       -2.7940978     0.5473060    -1.1408938
  C        4.5537390    -1.1898250     0.0022800
  C       -2.8866350    -1.0143110     1.3128170
  C       -3.7965280    -0.3760470    -0.8307700
  C       -3.8763200    -1.1410390     0.3331560
  H       -0.6887990     2.1194610    -1.1851540
  H       -0.6152960     2.3835930     0.5515720
  H        1.5214970     2.0586850     1.4854080
  H        0.2921320    -0.4400260    -1.7869590
  H        3.6942270     0.8828880     1.5683180
  H        2.4736480    -1.5998700    -1.7190670
  H       -1.0482340    -0.0434160     1.8839740
  H       -2.6776530     1.1110490    -1.9207770
  H        4.8944640    -1.4825890    -0.9952280
  H        5.3329890    -0.5734720     0.4595320
  H        4.4581780    -2.1030590     0.5999660
  H       -2.9412840    -1.6093450     2.2217140
  H       -4.5604750    -0.4701320    -1.5992930
  H       -4.7020430    -1.8337400     0.4769600
units angstrom
no_reorient  #important for SAPT in psi4, default
symmetry c1  #important for SAPT in psi4, default
}

set PROPERTIES_ORIGIN ["COM"]
properties('MP2/aug-cc-pvtz', properties = ['dipole'])
--------------------------------------------------------------------------

    Molecular point group: c1
  Charge       = 0
  Multiplicity = 1
  Basis Set: AUG-CC-PVTZ
    Blend: AUG-CC-PVTZ
  Basis Set: (AUG-CC-PVTZ AUX)
    Blend: AUG-CC-PVTZ-JKFIT

    Orbital Energies [Eh]
    ---------------------

    Doubly Occupied:

       1A    -11.255017     2A    -11.238210     3A    -11.238178
       4A    -11.238111     5A    -11.236892     6A    -11.235241
       7A    -11.235052     8A    -11.231360     9A    -11.230987
      10A    -11.229704    11A    -11.228995    12A    -11.228621
      13A    -11.228476    14A    -11.222874    15A     -1.157209
      16A     -1.138033    17A     -1.072997    18A     -1.019308
      19A     -1.014240    20A     -1.007922    21A     -0.954182
      22A     -0.896778    23A     -0.832344    24A     -0.826525
      25A     -0.798900    26A     -0.770494    27A     -0.701025
      28A     -0.669712    29A     -0.650977    30A     -0.646234
      31A     -0.627970    32A     -0.608280    33A     -0.589723
      34A     -0.578440    35A     -0.576279    36A     -0.569710
      37A     -0.559226    38A     -0.548344    39A     -0.527843
      40A     -0.509491    41A     -0.494245    42A     -0.484856
      43A     -0.476952    44A     -0.473195    45A     -0.455196
      46A     -0.340912    47A     -0.332905    48A     -0.322734
      49A     -0.303349

  @DF-RHF Final Energy:  -538.46460968612155

   => Energetics <=

    Nuclear Repulsion Energy =            783.3986310718643153
    One-Electron Energy =               -2282.0979861272494418
    Two-Electron Energy =                 960.2347453692636918
    Total Energy =                       -538.4646096861215483
  Basis Set: (AUG-CC-PVTZ AUX)
    Blend: AUG-CC-PVTZ-RI
    Molecular point group: c1

    Geometry (in Angstrom), charge = 0, multiplicity = 1:

       Center              X                  Y                   Z               Mass
    ------------   -----------------  -----------------  -----------------  -----------------
         C           -0.548897870792     1.593481419625    -0.212605789646    12.000000000000
         C            0.785291129208     0.886332419625    -0.149717789646    12.000000000000
         C           -1.705801870792     0.637691419625    -0.028449789646    12.000000000000
         C            1.757337129208     1.240858419625     0.790796210354    12.000000000000
         C            1.074841129208    -0.152192580375    -1.046134789646    12.000000000000
         C            3.279377129208    -0.456117580375    -0.059702789646    12.000000000000
         C            2.985319129208     0.576298419625     0.836970210354    12.000000000000
         C            2.301264129208    -0.810620580375    -1.000443789646    12.000000000000
         C           -1.792606870792    -0.139818580375     1.135435210354    12.000000000000
         C           -2.760515670792     0.536356419625    -1.132178589646    12.000000000000
         C            4.587321129208    -1.200774580375     0.010995210354    12.000000000000
         C           -2.853052870792    -1.025260580375     1.321532210354    12.000000000000
         C           -3.762945870792    -0.386996580375    -0.822054789646    12.000000000000
         C           -3.842737870792    -1.151988580375     0.341871210354    12.000000000000
         H           -0.655216870792     2.108511419625    -1.176438789646     1.007825032230
         H           -0.581713870792     2.372643419625     0.560287210354     1.007825032230
         H            1.555079129208     2.047735419625     1.494123210354     1.007825032230
         H            0.325714129208    -0.450975580375    -1.778243789646     1.007825032230
         H            3.727809129208     0.871938419625     1.577033210354     1.007825032230
         H            2.507230129208    -1.610819580375    -1.710351789646     1.007825032230
         H           -1.014651870792    -0.054365580375     1.892689210354     1.007825032230
         H           -2.644070870792     1.100099419625    -1.912061789646     1.007825032230
         H            4.928046129208    -1.493538580375    -0.986512789646     1.007825032230
         H            5.366571129208    -0.584421580375     0.468247210354     1.007825032230
         H            4.491760129208    -2.114008580375     0.608681210354     1.007825032230
         H           -2.907701870792    -1.620294580375     2.230429210354     1.007825032230
         H           -4.526892870792    -0.481081580375    -1.590577789646     1.007825032230
         H           -4.668460870792    -1.844689580375     0.485675210354     1.007825032230

  Basis Set: AUG-CC-PVTZ
    Blend: AUG-CC-PVTZ
  Basis Set: (AUG-CC-PVTZ AUX)
    Blend: AUG-CC-PVTZ-JKFIT
	 Reference Energy          =    -538.4646096861215483 [Eh]
	 Singles Energy            =      -0.0000000000000000 [Eh]
	 Same-Spin Energy          =      -0.6084819684944680 [Eh]
	 Opposite-Spin Energy      =      -1.9367102026318559 [Eh]
	 Correlation Energy        =      -2.5451921711263239 [Eh]
	 Total Energy              =    -541.0098018572479077 [Eh]

	 ================> DF-SCS-MP2 Energies <==================
	-----------------------------------------------------------
	 SCS Same-Spin Scale       =       0.3333333333333333 [-]
	 SCS Opposite-Spin Scale   =       1.2000000000000000 [-]
	 SCS Same-Spin Energy      =      -0.2028273228314893 [Eh]
	 SCS Opposite-Spin Energy  =      -2.3240522431582269 [Eh]
	 SCS Correlation Energy    =      -2.5268795659897161 [Eh]
	 SCS Total Energy          =    -540.9914892521112506 [Eh]
	-----------------------------------------------------------

  Dipole Moment: [D]
     X:     0.3607      Y:    -0.1067      Z:     0.0156     Total:     0.3765

*** Psi4 exiting successfully. Buy a developer a beer!
