                               Psi4 1.4a3.dev225

  ==> Input File <==

--------------------------------------------------------------------------
#psi4
#
memory 32 gb

molecule  {
0 1
  C       -0.5824800     1.6044310    -0.2213210
  C        0.7517090     0.8972820    -0.1584330
  C       -1.7393840     0.6486410    -0.0371650
  C        1.7237550     1.2518080     0.7820810
  C        1.0412590    -0.1412430    -1.0548500
  C        3.2457950    -0.4451680    -0.0684180
  C        2.9517370     0.5872480     0.8282550
  C        2.2676820    -0.7996710    -1.0091590
  C       -1.8261890    -0.1288690     1.1267200
  C       -2.7336970     0.5134260    -1.0120210
  C        4.5537390    -1.1898250     0.0022800
  C       -2.8866350    -1.0143110     1.3128170
  C       -3.7965280    -0.3760470    -0.8307700
  C       -3.8763200    -1.1410390     0.3331560
  H       -0.6887990     2.1194610    -1.1851540
  H       -0.6152960     2.3835930     0.5515720
  H        1.5214970     2.0586850     1.4854080
  H        0.2921320    -0.4400260    -1.7869590
  H        3.6942270     0.8828880     1.5683180
  H        2.4736480    -1.5998700    -1.7190670
  H       -1.0482340    -0.0434160     1.8839740
  H       -2.6776530     1.1110490    -1.9207770
  H        4.8633190    -1.4558280    -0.9040477
  H        5.3329890    -0.5734720     0.4595320
  H        4.4581780    -2.1030590     0.5999660
  H       -2.9412840    -1.6093450     2.2217140
  H       -4.5604750    -0.4701320    -1.5992930
  H       -4.7020430    -1.8337400     0.4769600
units angstrom
no_reorient  #important for SAPT in psi4, default
symmetry c1  #important for SAPT in psi4, default
}

set PROPERTIES_ORIGIN ["COM"]
properties('MP2/aug-cc-pvtz', properties = ['dipole'])
--------------------------------------------------------------------------

    Molecular point group: c1
  Charge       = 0
  Multiplicity = 1
  Basis Set: AUG-CC-PVTZ
    Blend: AUG-CC-PVTZ
  Basis Set: (AUG-CC-PVTZ AUX)
    Blend: AUG-CC-PVTZ-JKFIT

    Orbital Energies [Eh]
    ---------------------

    Doubly Occupied:

       1A    -11.240947     2A    -11.237637     3A    -11.236642
       4A    -11.235103     5A    -11.234925     6A    -11.234433
       7A    -11.231402     8A    -11.231158     9A    -11.230838
      10A    -11.229752    11A    -11.229309    12A    -11.228562
      13A    -11.228501    14A    -11.210589    15A     -1.160509
      16A     -1.145180    17A     -1.074512    18A     -1.025809
      19A     -1.010078    20A     -1.007839    21A     -0.961537
      22A     -0.900171    23A     -0.827877    24A     -0.822784
      25A     -0.803671    26A     -0.774991    27A     -0.693357
      28A     -0.668769    29A     -0.649427    30A     -0.635165
      31A     -0.629253    32A     -0.617963    33A     -0.582872
      34A     -0.581985    35A     -0.578469    36A     -0.569391
      37A     -0.560012    38A     -0.553652    39A     -0.530962
      40A     -0.502525    41A     -0.491820    42A     -0.490021
      43A     -0.477837    44A     -0.473407    45A     -0.471159
      46A     -0.336877    47A     -0.333566    48A     -0.329213
      49A     -0.307138

  @DF-RHF Final Energy:  -538.48784624069549

   => Energetics <=

    Nuclear Repulsion Energy =            786.4304845738423637
    One-Electron Energy =               -2288.1974708969974017
    Two-Electron Energy =                 963.2791400824594348
    Total Energy =                       -538.4878462406954895
  Basis Set: (AUG-CC-PVTZ AUX)
    Blend: AUG-CC-PVTZ-RI
    Molecular point group: c1

    Geometry (in Angstrom), charge = 0, multiplicity = 1:

       Center              X                  Y                   Z               Mass
    ------------   -----------------  -----------------  -----------------  -----------------
         C           -0.552705583719     1.595565822082    -0.221602392980    12.000000000000
         C            0.781483416281     0.888416822082    -0.158714392980    12.000000000000
         C           -1.709609583719     0.639775822082    -0.037446392980    12.000000000000
         C            1.753529416281     1.242942822082     0.781799607020    12.000000000000
         C            1.071033416281    -0.150108177918    -1.055131392980    12.000000000000
         C            3.275569416281    -0.454033177918    -0.068699392980    12.000000000000
         C            2.981511416281     0.578382822082     0.827973607020    12.000000000000
         C            2.297456416281    -0.808536177918    -1.009440392980    12.000000000000
         C           -1.796414583719    -0.137734177918     1.126438607020    12.000000000000
         C           -2.703922583719     0.504560822082    -1.012302392980    12.000000000000
         C            4.583513416281    -1.198690177918     0.001998607020    12.000000000000
         C           -2.856860583719    -1.023176177918     1.312535607020    12.000000000000
         C           -3.766753583719    -0.384912177918    -0.831051392980    12.000000000000
         C           -3.846545583719    -1.149904177918     0.332874607020    12.000000000000
         H           -0.659024583719     2.110595822082    -1.185435392980     1.007825032230
         H           -0.585521583719     2.374727822082     0.551290607020     1.007825032230
         H            1.551271416281     2.049819822082     1.485126607020     1.007825032230
         H            0.321906416281    -0.448891177918    -1.787240392980     1.007825032230
         H            3.724001416281     0.874022822082     1.568036607020     1.007825032230
         H            2.503422416281    -1.608735177918    -1.719348392980     1.007825032230
         H           -1.018459583719    -0.052281177918     1.883692607020     1.007825032230
         H           -2.647878583719     1.102183822082    -1.921058392980     1.007825032230
         H            4.893093416281    -1.464693177918    -0.904329092980     1.007825032230
         H            5.362763416281    -0.582337177918     0.459250607020     1.007825032230
         H            4.487952416281    -2.111924177918     0.599684607020     1.007825032230
         H           -2.911509583719    -1.618210177918     2.221432607020     1.007825032230
         H           -4.530700583719    -0.478997177918    -1.599574392980     1.007825032230
         H           -4.672268583719    -1.842605177918     0.476678607020     1.007825032230

  Basis Set: AUG-CC-PVTZ
    Blend: AUG-CC-PVTZ
  Basis Set: (AUG-CC-PVTZ AUX)
    Blend: AUG-CC-PVTZ-JKFIT
	 Reference Energy          =    -538.4878462406954895 [Eh]
	 Singles Energy            =      -0.0000000000000000 [Eh]
	 Same-Spin Energy          =      -0.6082085686182058 [Eh]
	 Opposite-Spin Energy      =      -1.9342380627104023 [Eh]
	 Correlation Energy        =      -2.5424466313286080 [Eh]
	 Total Energy              =    -541.0302928720241198 [Eh]

	 ================> DF-SCS-MP2 Energies <==================
	-----------------------------------------------------------
	 SCS Same-Spin Scale       =       0.3333333333333333 [-]
	 SCS Opposite-Spin Scale   =       1.2000000000000000 [-]
	 SCS Same-Spin Energy      =      -0.2027361895394019 [Eh]
	 SCS Opposite-Spin Energy  =      -2.3210856752524829 [Eh]
	 SCS Correlation Energy    =      -2.5238218647918846 [Eh]
	 SCS Total Energy          =    -541.0116681054873879 [Eh]
	-----------------------------------------------------------

  Dipole Moment: [D]
     X:     0.4002      Y:    -0.1520      Z:    -0.0202     Total:     0.4285

*** Psi4 exiting successfully. Buy a developer a beer!
