                               Psi4 1.4a3.dev225

  ==> Input File <==

--------------------------------------------------------------------------
#psi4
#
memory 32 gb

molecule  {
0 1
  C       -0.5824800     1.6044310    -0.2213210
  C        0.7517090     0.8972820    -0.1584330
  C       -1.7393840     0.6486410    -0.0371650
  C        1.7237550     1.2518080     0.7820810
  C        1.0412590    -0.1412430    -1.0548500
  C        3.2457950    -0.4451680    -0.0684180
  C        2.9734395     0.5838834     0.8389139
  C        2.2676820    -0.7996710    -1.0091590
  C       -1.8261890    -0.1288690     1.1267200
  C       -2.7336970     0.5134260    -1.0120210
  C        4.5537390    -1.1898250     0.0022800
  C       -2.8866350    -1.0143110     1.3128170
  C       -3.7965280    -0.3760470    -0.8307700
  C       -3.8763200    -1.1410390     0.3331560
  H       -0.6887990     2.1194610    -1.1851540
  H       -0.6152960     2.3835930     0.5515720
  H        1.5214970     2.0586850     1.4854080
  H        0.2921320    -0.4400260    -1.7869590
  H        3.6942270     0.8828880     1.5683180
  H        2.4736480    -1.5998700    -1.7190670
  H       -1.0482340    -0.0434160     1.8839740
  H       -2.6776530     1.1110490    -1.9207770
  H        4.8944640    -1.4825890    -0.9952280
  H        5.3329890    -0.5734720     0.4595320
  H        4.4581780    -2.1030590     0.5999660
  H       -2.9412840    -1.6093450     2.2217140
  H       -4.5604750    -0.4701320    -1.5992930
  H       -4.7020430    -1.8337400     0.4769600
units angstrom
no_reorient  #important for SAPT in psi4, default
symmetry c1  #important for SAPT in psi4, default
}

set PROPERTIES_ORIGIN ["COM"]
properties('MP2/aug-cc-pvtz', properties = ['dipole'])
--------------------------------------------------------------------------

    Molecular point group: c1
  Charge       = 0
  Multiplicity = 1
  Basis Set: AUG-CC-PVTZ
    Blend: AUG-CC-PVTZ
  Basis Set: (AUG-CC-PVTZ AUX)
    Blend: AUG-CC-PVTZ-JKFIT

    Orbital Energies [Eh]
    ---------------------

    Doubly Occupied:

       1A    -11.241079     2A    -11.238735     3A    -11.237023
       4A    -11.235376     5A    -11.235053     6A    -11.234554
       7A    -11.233287     8A    -11.231558     9A    -11.231302
      10A    -11.230416    11A    -11.229599    12A    -11.229434
      13A    -11.229084    14A    -11.222308    15A     -1.159895
      16A     -1.144436    17A     -1.074025    18A     -1.023723
      19A     -1.010197    20A     -1.006565    21A     -0.956578
      22A     -0.896113    23A     -0.829603    24A     -0.823226
      25A     -0.802291    26A     -0.774556    27A     -0.693469
      28A     -0.667640    29A     -0.647330    30A     -0.635256
      31A     -0.630648    32A     -0.618137    33A     -0.582832
      34A     -0.579900    35A     -0.574907    36A     -0.569372
      37A     -0.560466    38A     -0.547964    39A     -0.527521
      40A     -0.502119    41A     -0.491815    42A     -0.490509
      43A     -0.478150    44A     -0.472943    45A     -0.470546
      46A     -0.336486    47A     -0.333231    48A     -0.328517
      49A     -0.307967

  @DF-RHF Final Energy:  -538.49292877968617

   => Energetics <=

    Nuclear Repulsion Energy =            785.5628068473739631
    One-Electron Energy =               -2286.4959875055819793
    Two-Electron Energy =                 962.4402518785219627
    Total Energy =                       -538.4929287796861672
  Basis Set: (AUG-CC-PVTZ AUX)
    Blend: AUG-CC-PVTZ-RI
    Molecular point group: c1

    Geometry (in Angstrom), charge = 0, multiplicity = 1:

       Center              X                  Y                   Z               Mass
    ------------   -----------------  -----------------  -----------------  -----------------
         C           -0.554308018681     1.595935630285    -0.221800147634    12.000000000000
         C            0.779880981319     0.888786630285    -0.158912147634    12.000000000000
         C           -1.711212018681     0.640145630285    -0.037644147634    12.000000000000
         C            1.751926981319     1.243312630285     0.781601852366    12.000000000000
         C            1.069430981319    -0.149738369715    -1.055329147634    12.000000000000
         C            3.273966981319    -0.453663369715    -0.068897147634    12.000000000000
         C            3.001611481319     0.575388030285     0.838434752366    12.000000000000
         C            2.295853981319    -0.808166369715    -1.009638147634    12.000000000000
         C           -1.798017018681    -0.137364369715     1.126240852366    12.000000000000
         C           -2.705525018681     0.504930630285    -1.012500147634    12.000000000000
         C            4.581910981319    -1.198320369715     0.001800852366    12.000000000000
         C           -2.858463018681    -1.022806369715     1.312337852366    12.000000000000
         C           -3.768356018681    -0.384542369715    -0.831249147634    12.000000000000
         C           -3.848148018681    -1.149534369715     0.332676852366    12.000000000000
         H           -0.660627018681     2.110965630285    -1.185633147634     1.007825032230
         H           -0.587124018681     2.375097630285     0.551092852366     1.007825032230
         H            1.549668981319     2.050189630285     1.484928852366     1.007825032230
         H            0.320303981319    -0.448521369715    -1.787438147634     1.007825032230
         H            3.722398981319     0.874392630285     1.567838852366     1.007825032230
         H            2.501819981319    -1.608365369715    -1.719546147634     1.007825032230
         H           -1.020062018681    -0.051911369715     1.883494852366     1.007825032230
         H           -2.649481018681     1.102553630285    -1.921256147634     1.007825032230
         H            4.922635981319    -1.491084369715    -0.995707147634     1.007825032230
         H            5.361160981319    -0.581967369715     0.459052852366     1.007825032230
         H            4.486349981319    -2.111554369715     0.599486852366     1.007825032230
         H           -2.913112018681    -1.617840369715     2.221234852366     1.007825032230
         H           -4.532303018681    -0.478627369715    -1.599772147634     1.007825032230
         H           -4.673871018681    -1.842235369715     0.476480852366     1.007825032230

  Basis Set: AUG-CC-PVTZ
    Blend: AUG-CC-PVTZ
  Basis Set: (AUG-CC-PVTZ AUX)
    Blend: AUG-CC-PVTZ-JKFIT
	 Reference Energy          =    -538.4929287796861672 [Eh]
	 Singles Energy            =      -0.0000000000000000 [Eh]
	 Same-Spin Energy          =      -0.6081407279971156 [Eh]
	 Opposite-Spin Energy      =      -1.9348611129402340 [Eh]
	 Correlation Energy        =      -2.5430018409373494 [Eh]
	 Total Energy              =    -541.0359306206235033 [Eh]

	 ================> DF-SCS-MP2 Energies <==================
	-----------------------------------------------------------
	 SCS Same-Spin Scale       =       0.3333333333333333 [-]
	 SCS Opposite-Spin Scale   =       1.2000000000000000 [-]
	 SCS Same-Spin Energy      =      -0.2027135759990385 [Eh]
	 SCS Opposite-Spin Energy  =      -2.3218333355282805 [Eh]
	 SCS Correlation Energy    =      -2.5245469115273189 [Eh]
	 SCS Total Energy          =    -541.0174756912134626 [Eh]
	-----------------------------------------------------------

  Dipole Moment: [D]
     X:     0.3565      Y:    -0.1235      Z:     0.0156     Total:     0.3776

*** Psi4 exiting successfully. Buy a developer a beer!
