                               Psi4 1.4a3.dev225

  ==> Input File <==

--------------------------------------------------------------------------
#psi4
#
memory 32 gb

molecule  {
0 1
  C       -0.5824800     1.6044310    -0.2213210
  C        0.7517090     0.8972820    -0.1584330
  C       -1.8159033     0.5854237    -0.0249847
  C        1.7237550     1.2518080     0.7820810
  C        1.0412590    -0.1412430    -1.0548500
  C        3.2457950    -0.4451680    -0.0684180
  C        2.9517370     0.5872480     0.8282550
  C        2.2676820    -0.7996710    -1.0091590
  C       -1.8261890    -0.1288690     1.1267200
  C       -2.7336970     0.5134260    -1.0120210
  C        4.5537390    -1.1898250     0.0022800
  C       -2.8866350    -1.0143110     1.3128170
  C       -3.7965280    -0.3760470    -0.8307700
  C       -3.8763200    -1.1410390     0.3331560
  H       -0.6887990     2.1194610    -1.1851540
  H       -0.6152960     2.3835930     0.5515720
  H        1.5214970     2.0586850     1.4854080
  H        0.2921320    -0.4400260    -1.7869590
  H        3.6942270     0.8828880     1.5683180
  H        2.4736480    -1.5998700    -1.7190670
  H       -1.0482340    -0.0434160     1.8839740
  H       -2.6776530     1.1110490    -1.9207770
  H        4.8944640    -1.4825890    -0.9952280
  H        5.3329890    -0.5734720     0.4595320
  H        4.4581780    -2.1030590     0.5999660
  H       -2.9412840    -1.6093450     2.2217140
  H       -4.5604750    -0.4701320    -1.5992930
  H       -4.7020430    -1.8337400     0.4769600
units angstrom
no_reorient  #important for SAPT in psi4, default
symmetry c1  #important for SAPT in psi4, default
}

set PROPERTIES_ORIGIN ["COM"]
properties('MP2/aug-cc-pvtz', properties = ['dipole'])
--------------------------------------------------------------------------

    Molecular point group: c1
  Charge       = 0
  Multiplicity = 1
  Basis Set: AUG-CC-PVTZ
    Blend: AUG-CC-PVTZ
  Basis Set: (AUG-CC-PVTZ AUX)
    Blend: AUG-CC-PVTZ-JKFIT

    Orbital Energies [Eh]
    ---------------------

    Doubly Occupied:

       1A    -11.237335     2A    -11.236531     3A    -11.235686
       4A    -11.235425     5A    -11.235246     6A    -11.235107
       7A    -11.230660     8A    -11.229937     9A    -11.228833
      10A    -11.228187    11A    -11.227554    12A    -11.226737
      13A    -11.225137    14A    -11.222336    15A     -1.164364
      16A     -1.148942    17A     -1.066948    18A     -1.022179
      19A     -1.016701    20A     -1.007098    21A     -0.957558
      22A     -0.890074    23A     -0.831571    24A     -0.824531
      25A     -0.802939    26A     -0.774439    27A     -0.696340
      28A     -0.665020    29A     -0.645546    30A     -0.633210
      31A     -0.627102    32A     -0.620376    33A     -0.591395
      34A     -0.577695    35A     -0.573809    36A     -0.562887
      37A     -0.556293    38A     -0.547138    39A     -0.526476
      40A     -0.505035    41A     -0.500736    42A     -0.488825
      43A     -0.477773    44A     -0.475150    45A     -0.453285
      46A     -0.339062    47A     -0.336773    48A     -0.330634
      49A     -0.308132

  @DF-RHF Final Energy:  -538.48478441637087

   => Energetics <=

    Nuclear Repulsion Energy =            786.2215420587402832
    One-Electron Energy =               -2287.8511581947859668
    Two-Electron Energy =                 963.1448317196746984
    Total Energy =                       -538.4847844163708714
  Basis Set: (AUG-CC-PVTZ AUX)
    Blend: AUG-CC-PVTZ-RI
    Molecular point group: c1

    Geometry (in Angstrom), charge = 0, multiplicity = 1:

       Center              X                  Y                   Z               Mass
    ------------   -----------------  -----------------  -----------------  -----------------
         C           -0.547835751867     1.599879588184    -0.221900399378    12.000000000000
         C            0.786353248133     0.892730588184    -0.159012399378    12.000000000000
         C           -1.781259051867     0.580872288184    -0.025564099378    12.000000000000
         C            1.758399248133     1.247256588184     0.781501600622    12.000000000000
         C            1.075903248133    -0.145794411816    -1.055429399378    12.000000000000
         C            3.280439248133    -0.449719411816    -0.068997399378    12.000000000000
         C            2.986381248133     0.582696588184     0.827675600622    12.000000000000
         C            2.302326248133    -0.804222411816    -1.009738399378    12.000000000000
         C           -1.791544751867    -0.133420411816     1.126140600622    12.000000000000
         C           -2.699052751867     0.508874588184    -1.012600399378    12.000000000000
         C            4.588383248133    -1.194376411816     0.001700600622    12.000000000000
         C           -2.851990751867    -1.018862411816     1.312237600622    12.000000000000
         C           -3.761883751867    -0.380598411816    -0.831349399378    12.000000000000
         C           -3.841675751867    -1.145590411816     0.332576600622    12.000000000000
         H           -0.654154751867     2.114909588184    -1.185733399378     1.007825032230
         H           -0.580651751867     2.379041588184     0.550992600622     1.007825032230
         H            1.556141248133     2.054133588184     1.484828600622     1.007825032230
         H            0.326776248133    -0.444577411816    -1.787538399378     1.007825032230
         H            3.728871248133     0.878336588184     1.567738600622     1.007825032230
         H            2.508292248133    -1.604421411816    -1.719646399378     1.007825032230
         H           -1.013589751867    -0.047967411816     1.883394600622     1.007825032230
         H           -2.643008751867     1.106497588184    -1.921356399378     1.007825032230
         H            4.929108248133    -1.487140411816    -0.995807399378     1.007825032230
         H            5.367633248133    -0.578023411816     0.458952600622     1.007825032230
         H            4.492822248133    -2.107610411816     0.599386600622     1.007825032230
         H           -2.906639751867    -1.613896411816     2.221134600622     1.007825032230
         H           -4.525830751867    -0.474683411816    -1.599872399378     1.007825032230
         H           -4.667398751867    -1.838291411816     0.476380600622     1.007825032230

  Basis Set: AUG-CC-PVTZ
    Blend: AUG-CC-PVTZ
  Basis Set: (AUG-CC-PVTZ AUX)
    Blend: AUG-CC-PVTZ-JKFIT
	 Reference Energy          =    -538.4847844163708714 [Eh]
	 Singles Energy            =      -0.0000000000000000 [Eh]
	 Same-Spin Energy          =      -0.6077657718928173 [Eh]
	 Opposite-Spin Energy      =      -1.9340489320660648 [Eh]
	 Correlation Energy        =      -2.5418147039588819 [Eh]
	 Total Energy              =    -541.0265991203297062 [Eh]

	 ================> DF-SCS-MP2 Energies <==================
	-----------------------------------------------------------
	 SCS Same-Spin Scale       =       0.3333333333333333 [-]
	 SCS Opposite-Spin Scale   =       1.2000000000000000 [-]
	 SCS Same-Spin Energy      =      -0.2025885906309391 [Eh]
	 SCS Opposite-Spin Energy  =      -2.3208587184792777 [Eh]
	 SCS Correlation Energy    =      -2.5234473091102170 [Eh]
	 SCS Total Energy          =    -541.0082317254810960 [Eh]
	-----------------------------------------------------------

  Dipole Moment: [D]
     X:     0.2095      Y:    -0.1822      Z:     0.0127     Total:     0.2779

*** Psi4 exiting successfully. Buy a developer a beer!
