                               Psi4 1.4a3.dev225

  ==> Input File <==

--------------------------------------------------------------------------
#psi4
#
memory 32 gb

molecule  {
0 1
  C       -0.5824800     1.6044310    -0.2213210
  C        0.7517090     0.8972820    -0.1584330
  C       -1.7393840     0.6486410    -0.0371650
  C        1.7237550     1.2518080     0.7820810
  C        1.0412590    -0.1412430    -1.0548500
  C        3.2457950    -0.4451680    -0.0684180
  C        2.9517370     0.5872480     0.8282550
  C        2.2676820    -0.7996710    -1.0091590
  C       -1.8261890    -0.1288690     1.1267200
  C       -2.5915538     0.5327558    -0.8726593
  C        4.5537390    -1.1898250     0.0022800
  C       -2.8866350    -1.0143110     1.3128170
  C       -3.7965280    -0.3760470    -0.8307700
  C       -3.8763200    -1.1410390     0.3331560
  H       -0.6887990     2.1194610    -1.1851540
  H       -0.6152960     2.3835930     0.5515720
  H        1.5214970     2.0586850     1.4854080
  H        0.2921320    -0.4400260    -1.7869590
  H        3.6942270     0.8828880     1.5683180
  H        2.4736480    -1.5998700    -1.7190670
  H       -1.0482340    -0.0434160     1.8839740
  H       -2.6776530     1.1110490    -1.9207770
  H        4.8944640    -1.4825890    -0.9952280
  H        5.3329890    -0.5734720     0.4595320
  H        4.4581780    -2.1030590     0.5999660
  H       -2.9412840    -1.6093450     2.2217140
  H       -4.5604750    -0.4701320    -1.5992930
  H       -4.7020430    -1.8337400     0.4769600
units angstrom
no_reorient  #important for SAPT in psi4, default
symmetry c1  #important for SAPT in psi4, default
}

set PROPERTIES_ORIGIN ["COM"]
properties('MP2/aug-cc-pvtz', properties = ['dipole'])
--------------------------------------------------------------------------

    Molecular point group: c1
  Charge       = 0
  Multiplicity = 1
  Basis Set: AUG-CC-PVTZ
    Blend: AUG-CC-PVTZ
  Basis Set: (AUG-CC-PVTZ AUX)
    Blend: AUG-CC-PVTZ-JKFIT

    Orbital Energies [Eh]
    ---------------------

    Doubly Occupied:

       1A    -11.243701     2A    -11.238482     3A    -11.236308
       4A    -11.233855     5A    -11.233499     6A    -11.232804
       7A    -11.232104     8A    -11.231141     9A    -11.229971
      10A    -11.229179    11A    -11.228744    12A    -11.225908
      13A    -11.223026    14A    -11.212514    15A     -1.176179
      16A     -1.150234    17A     -1.075487    18A     -1.039361
      19A     -1.008273    20A     -0.995227    21A     -0.963814
      22A     -0.895466    23A     -0.839973    24A     -0.825644
      25A     -0.791896    26A     -0.775554    27A     -0.692146
      28A     -0.666579    29A     -0.647586    30A     -0.636206
      31A     -0.626119    32A     -0.624854    33A     -0.580154
      34A     -0.578242    35A     -0.572986    36A     -0.569455
      37A     -0.561965    38A     -0.544145    39A     -0.528158
      40A     -0.509212    41A     -0.501796    42A     -0.483193
      43A     -0.478221    44A     -0.475663    45A     -0.442146
      46A     -0.360293    47A     -0.333445    48A     -0.323244
      49A     -0.308500

  @DF-RHF Final Energy:  -538.43305076385707

   => Energetics <=

    Nuclear Repulsion Energy =            789.3688924007121841
    One-Electron Energy =               -2293.9785931602236815
    Two-Electron Energy =                 966.1766499956544294
    Total Energy =                       -538.4330507638570680
  Basis Set: (AUG-CC-PVTZ AUX)
    Blend: AUG-CC-PVTZ-RI
    Molecular point group: c1

    Geometry (in Angstrom), charge = 0, multiplicity = 1:

       Center              X                  Y                   Z               Mass
    ------------   -----------------  -----------------  -----------------  -----------------
         C           -0.562244386633     1.594440196359    -0.230280941729    12.000000000000
         C            0.771944613367     0.887291196359    -0.167392941729    12.000000000000
         C           -1.719148386633     0.638650196359    -0.046124941729    12.000000000000
         C            1.743990613367     1.241817196359     0.773121058271    12.000000000000
         C            1.061494613367    -0.151233803641    -1.063809941729    12.000000000000
         C            3.266030613367    -0.455158803641    -0.077377941729    12.000000000000
         C            2.971972613367     0.577257196359     0.819295058271    12.000000000000
         C            2.287917613367    -0.809661803641    -1.018118941729    12.000000000000
         C           -1.805953386633    -0.138859803641     1.117760058271    12.000000000000
         C           -2.571318186633     0.522764996359    -0.881619241729    12.000000000000
         C            4.573974613367    -1.199815803641    -0.006679941729    12.000000000000
         C           -2.866399386633    -1.024301803641     1.303857058271    12.000000000000
         C           -3.776292386633    -0.386037803641    -0.839729941729    12.000000000000
         C           -3.856084386633    -1.151029803641     0.324196058271    12.000000000000
         H           -0.668563386633     2.109470196359    -1.194113941729     1.007825032230
         H           -0.595060386633     2.373602196359     0.542612058271     1.007825032230
         H            1.541732613367     2.048694196359     1.476448058271     1.007825032230
         H            0.312367613367    -0.450016803641    -1.795918941729     1.007825032230
         H            3.714462613367     0.872897196359     1.559358058271     1.007825032230
         H            2.493883613367    -1.609860803641    -1.728026941729     1.007825032230
         H           -1.027998386633    -0.053406803641     1.875014058271     1.007825032230
         H           -2.657417386633     1.101058196359    -1.929736941729     1.007825032230
         H            4.914699613367    -1.492579803641    -1.004187941729     1.007825032230
         H            5.353224613367    -0.583462803641     0.450572058271     1.007825032230
         H            4.478413613367    -2.113049803641     0.591006058271     1.007825032230
         H           -2.921048386633    -1.619335803641     2.212754058271     1.007825032230
         H           -4.540239386633    -0.480122803641    -1.608252941729     1.007825032230
         H           -4.681807386633    -1.843730803641     0.468000058271     1.007825032230

  Basis Set: AUG-CC-PVTZ
    Blend: AUG-CC-PVTZ
  Basis Set: (AUG-CC-PVTZ AUX)
    Blend: AUG-CC-PVTZ-JKFIT
	 Reference Energy          =    -538.4330507638570680 [Eh]
	 Singles Energy            =      -0.0000000000000000 [Eh]
	 Same-Spin Energy          =      -0.6073857345741529 [Eh]
	 Opposite-Spin Energy      =      -1.9362480898512637 [Eh]
	 Correlation Energy        =      -2.5436338244254166 [Eh]
	 Total Energy              =    -540.9766845882825237 [Eh]

	 ================> DF-SCS-MP2 Energies <==================
	-----------------------------------------------------------
	 SCS Same-Spin Scale       =       0.3333333333333333 [-]
	 SCS Opposite-Spin Scale   =       1.2000000000000000 [-]
	 SCS Same-Spin Energy      =      -0.2024619115247176 [Eh]
	 SCS Opposite-Spin Energy  =      -2.3234977078215162 [Eh]
	 SCS Correlation Energy    =      -2.5259596193462337 [Eh]
	 SCS Total Energy          =    -540.9590103832033492 [Eh]
	-----------------------------------------------------------

  Dipole Moment: [D]
     X:     0.3041      Y:    -0.2281      Z:     0.0730     Total:     0.3871

*** Psi4 exiting successfully. Buy a developer a beer!
