                               Psi4 1.4a3.dev225

  ==> Input File <==

--------------------------------------------------------------------------
#psi4
#
memory 32 gb

molecule  {
0 1
  C       -0.5824800     1.6044310    -0.2213210
  C        0.7517090     0.8972820    -0.1584330
  C       -1.7393840     0.6486410    -0.0371650
  C        1.7237550     1.2518080     0.7820810
  C        1.0412590    -0.1412430    -1.0548500
  C        3.2457950    -0.4451680    -0.0684180
  C        2.9517370     0.5872480     0.8282550
  C        2.2676820    -0.7996710    -1.0091590
  C       -1.8261890    -0.1288690     1.1267200
  C       -2.7336970     0.5134260    -1.0120210
  C        4.5537390    -1.1898250     0.0022800
  C       -2.8866350    -1.0143110     1.3128170
  C       -3.7965280    -0.3760470    -0.8307700
  C       -3.8763200    -1.1410390     0.3331560
  H       -0.6887990     2.1194610    -1.1851540
  H       -0.6152960     2.3835930     0.5515720
  H        1.5214970     2.0586850     1.4854080
  H        0.2921320    -0.4400260    -1.7869590
  H        3.6942270     0.8828880     1.5683180
  H        2.4736480    -1.5998700    -1.7190670
  H       -1.0482340    -0.0434160     1.8839740
  H       -2.6776530     1.1110490    -1.9207770
  H        4.8944640    -1.4825890    -0.9952280
  H        5.3329890    -0.5734720     0.4595320
  H        4.4581780    -2.1030590     0.5999660
  H       -2.9312357    -1.4999361     2.0545951
  H       -4.5604750    -0.4701320    -1.5992930
  H       -4.7020430    -1.8337400     0.4769600
units angstrom
no_reorient  #important for SAPT in psi4, default
symmetry c1  #important for SAPT in psi4, default
}

set PROPERTIES_ORIGIN ["COM"]
properties('MP2/aug-cc-pvtz', properties = ['dipole'])
--------------------------------------------------------------------------

    Molecular point group: c1
  Charge       = 0
  Multiplicity = 1
  Basis Set: AUG-CC-PVTZ
    Blend: AUG-CC-PVTZ
  Basis Set: (AUG-CC-PVTZ AUX)
    Blend: AUG-CC-PVTZ-JKFIT

    Orbital Energies [Eh]
    ---------------------

    Doubly Occupied:

       1A    -11.240047     2A    -11.238223     3A    -11.236705
       4A    -11.234739     5A    -11.233965     6A    -11.231076
       7A    -11.231003     8A    -11.230179     9A    -11.229731
      10A    -11.229012    11A    -11.228502    12A    -11.228342
      13A    -11.222893    14A    -11.210223    15A     -1.160736
      16A     -1.145828    17A     -1.074505    18A     -1.026913
      19A     -1.015691    20A     -1.008028    21A     -0.957136
      22A     -0.895907    23A     -0.840898    24A     -0.826555
      25A     -0.806018    26A     -0.775904    27A     -0.701411
      28A     -0.667642    29A     -0.652685    30A     -0.647663
      31A     -0.629865    32A     -0.619444    33A     -0.588855
      34A     -0.578587    35A     -0.575519    36A     -0.569303
      37A     -0.559565    38A     -0.548044    39A     -0.527657
      40A     -0.503526    41A     -0.496498    42A     -0.489839
      43A     -0.477465    44A     -0.474052    45A     -0.471076
      46A     -0.336605    47A     -0.333340    48A     -0.328876
      49A     -0.306891

  @DF-RHF Final Energy:  -538.45923232515815

   => Energetics <=

    Nuclear Repulsion Energy =            787.1487483293958576
    One-Electron Energy =               -2289.5296246007446825
    Two-Electron Energy =                 963.9216439461906702
    Total Energy =                       -538.4592323251581547
  Basis Set: (AUG-CC-PVTZ AUX)
    Blend: AUG-CC-PVTZ-RI
    Molecular point group: c1

    Geometry (in Angstrom), charge = 0, multiplicity = 1:

       Center              X                  Y                   Z               Mass
    ------------   -----------------  -----------------  -----------------  -----------------
         C           -0.552933554403     1.595108434634    -0.220172921549    12.000000000000
         C            0.781255445597     0.887959434634    -0.157284921549    12.000000000000
         C           -1.709837554403     0.639318434634    -0.036016921549    12.000000000000
         C            1.753301445597     1.242485434634     0.783229078451    12.000000000000
         C            1.070805445597    -0.150565565366    -1.053701921549    12.000000000000
         C            3.275341445597    -0.454490565366    -0.067269921549    12.000000000000
         C            2.981283445597     0.577925434634     0.829403078451    12.000000000000
         C            2.297228445597    -0.808993565366    -1.008010921549    12.000000000000
         C           -1.796642554403    -0.138191565366     1.127868078451    12.000000000000
         C           -2.704150554403     0.504103434634    -1.010872921549    12.000000000000
         C            4.583285445597    -1.199147565366     0.003428078451    12.000000000000
         C           -2.857088554403    -1.023633565366     1.313965078451    12.000000000000
         C           -3.766981554403    -0.385369565366    -0.829621921549    12.000000000000
         C           -3.846773554403    -1.150361565366     0.334304078451    12.000000000000
         H           -0.659252554403     2.110138434634    -1.184005921549     1.007825032230
         H           -0.585749554403     2.374270434634     0.552720078451     1.007825032230
         H            1.551043445597     2.049362434634     1.486556078451     1.007825032230
         H            0.321678445597    -0.449348565366    -1.785810921549     1.007825032230
         H            3.723773445597     0.873565434634     1.569466078451     1.007825032230
         H            2.503194445597    -1.609192565366    -1.717918921549     1.007825032230
         H           -1.018687554403    -0.052738565366     1.885122078451     1.007825032230
         H           -2.648106554403     1.101726434634    -1.919628921549     1.007825032230
         H            4.924010445597    -1.491911565366    -0.994079921549     1.007825032230
         H            5.362535445597    -0.582794565366     0.460680078451     1.007825032230
         H            4.487724445597    -2.112381565366     0.601114078451     1.007825032230
         H           -2.901689254403    -1.509258665366     2.055743178451     1.007825032230
         H           -4.530928554403    -0.479454565366    -1.598144921549     1.007825032230
         H           -4.672496554403    -1.843062565366     0.478108078451     1.007825032230

  Basis Set: AUG-CC-PVTZ
    Blend: AUG-CC-PVTZ
  Basis Set: (AUG-CC-PVTZ AUX)
    Blend: AUG-CC-PVTZ-JKFIT
	 Reference Energy          =    -538.4592323251581547 [Eh]
	 Singles Energy            =      -0.0000000000000000 [Eh]
	 Same-Spin Energy          =      -0.6080357360049068 [Eh]
	 Opposite-Spin Energy      =      -1.9341984530717884 [Eh]
	 Correlation Energy        =      -2.5422341890766953 [Eh]
	 Total Energy              =    -541.0014665142348349 [Eh]

	 ================> DF-SCS-MP2 Energies <==================
	-----------------------------------------------------------
	 SCS Same-Spin Scale       =       0.3333333333333333 [-]
	 SCS Opposite-Spin Scale   =       1.2000000000000000 [-]
	 SCS Same-Spin Energy      =      -0.2026785786683022 [Eh]
	 SCS Opposite-Spin Energy  =      -2.3210381436861458 [Eh]
	 SCS Correlation Energy    =      -2.5237167223544481 [Eh]
	 SCS Total Energy          =    -540.9829490475126477 [Eh]
	-----------------------------------------------------------

  Dipole Moment: [D]
     X:     0.3463      Y:    -0.1560      Z:     0.0506     Total:     0.3832

*** Psi4 exiting successfully. Buy a developer a beer!
