                               Psi4 1.4a3.dev225

  ==> Input File <==

--------------------------------------------------------------------------
#psi4
#
memory 32 gb

molecule  {
0 1
  C       -0.5729165     1.5970085    -0.1978743
  C        0.7517090     0.8972820    -0.1584330
  C       -1.7393840     0.6486410    -0.0371650
  C        1.7237550     1.2518080     0.7820810
  C        1.0412590    -0.1412430    -1.0548500
  C        3.2457950    -0.4451680    -0.0684180
  C        2.9517370     0.5872480     0.8282550
  C        2.2676820    -0.7996710    -1.0091590
  C       -1.8261890    -0.1288690     1.1267200
  C       -2.7336970     0.5134260    -1.0120210
  C        4.5537390    -1.1898250     0.0022800
  C       -2.8866350    -1.0143110     1.3128170
  C       -3.7965280    -0.3760470    -0.8307700
  C       -3.8763200    -1.1410390     0.3331560
  H       -0.6887990     2.1194610    -1.1851540
  H       -0.6152960     2.3835930     0.5515720
  H        1.5214970     2.0586850     1.4854080
  H        0.2921320    -0.4400260    -1.7869590
  H        3.6942270     0.8828880     1.5683180
  H        2.4736480    -1.5998700    -1.7190670
  H       -1.0482340    -0.0434160     1.8839740
  H       -2.6776530     1.1110490    -1.9207770
  H        4.8944640    -1.4825890    -0.9952280
  H        5.3329890    -0.5734720     0.4595320
  H        4.4581780    -2.1030590     0.5999660
  H       -2.9412840    -1.6093450     2.2217140
  H       -4.5604750    -0.4701320    -1.5992930
  H       -4.7020430    -1.8337400     0.4769600
units angstrom
no_reorient  #important for SAPT in psi4, default
symmetry c1  #important for SAPT in psi4, default
}

set PROPERTIES_ORIGIN ["COM"]
properties('MP2/aug-cc-pvtz', properties = ['dipole'])
--------------------------------------------------------------------------

    Molecular point group: c1
  Charge       = 0
  Multiplicity = 1
  Basis Set: AUG-CC-PVTZ
    Blend: AUG-CC-PVTZ
  Basis Set: (AUG-CC-PVTZ AUX)
    Blend: AUG-CC-PVTZ-JKFIT

    Orbital Energies [Eh]
    ---------------------

    Doubly Occupied:

       1A    -11.241031     2A    -11.238382     3A    -11.236576
       4A    -11.235634     5A    -11.235197     6A    -11.234419
       7A    -11.231950     8A    -11.231457     9A    -11.230995
      10A    -11.230112    11A    -11.229196    12A    -11.229109
      13A    -11.228883    14A    -11.222999    15A     -1.161166
      16A     -1.145355    17A     -1.074721    18A     -1.023949
      19A     -1.010260    20A     -1.008243    21A     -0.957893
      22A     -0.895703    23A     -0.828417    24A     -0.822908
      25A     -0.803270    26A     -0.774374    27A     -0.693682
      28A     -0.668272    29A     -0.648883    30A     -0.634285
      31A     -0.628865    32A     -0.617997    33A     -0.582753
      34A     -0.578867    35A     -0.575296    36A     -0.569577
      37A     -0.561417    38A     -0.546604    39A     -0.526849
      40A     -0.503091    41A     -0.491455    42A     -0.490672
      43A     -0.478892    44A     -0.472850    45A     -0.470444
      46A     -0.337145    47A     -0.333807    48A     -0.329359
      49A     -0.307168

  @DF-RHF Final Energy:  -538.49288274613798

   => Energetics <=

    Nuclear Repulsion Energy =            786.1713095958838267
    One-Electron Energy =               -2287.7075345062548877
    Two-Electron Energy =                 963.0433421642329677
    Total Energy =                       -538.4928827461379797
  Basis Set: (AUG-CC-PVTZ AUX)
    Blend: AUG-CC-PVTZ-RI
    Molecular point group: c1

    Geometry (in Angstrom), charge = 0, multiplicity = 1:

       Center              X                  Y                   Z               Mass
    ------------   -----------------  -----------------  -----------------  -----------------
         C           -0.543944626530     1.588780523181    -0.199196092073    12.000000000000
         C            0.780680873470     0.889054023181    -0.159754792073    12.000000000000
         C           -1.710412126530     0.640413023181    -0.038486792073    12.000000000000
         C            1.752726873470     1.243580023181     0.780759207927    12.000000000000
         C            1.070230873470    -0.149470976819    -1.056171792073    12.000000000000
         C            3.274766873470    -0.453395976819    -0.069739792073    12.000000000000
         C            2.980708873470     0.579020023181     0.826933207927    12.000000000000
         C            2.296653873470    -0.807898976819    -1.010480792073    12.000000000000
         C           -1.797217126530    -0.137096976819     1.125398207927    12.000000000000
         C           -2.704725126530     0.505198023181    -1.013342792073    12.000000000000
         C            4.582710873470    -1.198052976819     0.000958207927    12.000000000000
         C           -2.857663126530    -1.022538976819     1.311495207927    12.000000000000
         C           -3.767556126530    -0.384274976819    -0.832091792073    12.000000000000
         C           -3.847348126530    -1.149266976819     0.331834207927    12.000000000000
         H           -0.659827126530     2.111233023181    -1.186475792073     1.007825032230
         H           -0.586324126530     2.375365023181     0.550250207927     1.007825032230
         H            1.550468873470     2.050457023181     1.484086207927     1.007825032230
         H            0.321103873470    -0.448253976819    -1.788280792073     1.007825032230
         H            3.723198873470     0.874660023181     1.566996207927     1.007825032230
         H            2.502619873470    -1.608097976819    -1.720388792073     1.007825032230
         H           -1.019262126530    -0.051643976819     1.882652207927     1.007825032230
         H           -2.648681126530     1.102821023181    -1.922098792073     1.007825032230
         H            4.923435873470    -1.490816976819    -0.996549792073     1.007825032230
         H            5.361960873470    -0.581699976819     0.458210207927     1.007825032230
         H            4.487149873470    -2.111286976819     0.598644207927     1.007825032230
         H           -2.912312126530    -1.617572976819     2.220392207927     1.007825032230
         H           -4.531503126530    -0.478359976819    -1.600614792073     1.007825032230
         H           -4.673071126530    -1.841967976819     0.475638207927     1.007825032230

  Basis Set: AUG-CC-PVTZ
    Blend: AUG-CC-PVTZ
  Basis Set: (AUG-CC-PVTZ AUX)
    Blend: AUG-CC-PVTZ-JKFIT
	 Reference Energy          =    -538.4928827461379797 [Eh]
	 Singles Energy            =      -0.0000000000000000 [Eh]
	 Same-Spin Energy          =      -0.6083229833710999 [Eh]
	 Opposite-Spin Energy      =      -1.9349074207278740 [Eh]
	 Correlation Energy        =      -2.5432304040989742 [Eh]
	 Total Energy              =    -541.0361131502369290 [Eh]

	 ================> DF-SCS-MP2 Energies <==================
	-----------------------------------------------------------
	 SCS Same-Spin Scale       =       0.3333333333333333 [-]
	 SCS Opposite-Spin Scale   =       1.2000000000000000 [-]
	 SCS Same-Spin Energy      =      -0.2027743277903666 [Eh]
	 SCS Opposite-Spin Energy  =      -2.3218889048734486 [Eh]
	 SCS Correlation Energy    =      -2.5246632326638152 [Eh]
	 SCS Total Energy          =    -541.0175459788017633 [Eh]
	-----------------------------------------------------------

  Dipole Moment: [D]
     X:     0.3537      Y:    -0.1389      Z:     0.0273     Total:     0.3810

*** Psi4 exiting successfully. Buy a developer a beer!
