                               Psi4 1.4a3.dev225

  ==> Input File <==

--------------------------------------------------------------------------
#psi4
#
memory 32 gb

molecule  {
0 1
  C       -0.5824800     1.6044310    -0.2213210
  C        0.7517090     0.8972820    -0.1584330
  C       -1.7393840     0.6486410    -0.0371650
  C        1.7237550     1.2518080     0.7820810
  C        1.0371288    -0.1264293    -1.0420634
  C        3.2457950    -0.4451680    -0.0684180
  C        2.9517370     0.5872480     0.8282550
  C        2.2676820    -0.7996710    -1.0091590
  C       -1.8261890    -0.1288690     1.1267200
  C       -2.7336970     0.5134260    -1.0120210
  C        4.5537390    -1.1898250     0.0022800
  C       -2.8866350    -1.0143110     1.3128170
  C       -3.7965280    -0.3760470    -0.8307700
  C       -3.8763200    -1.1410390     0.3331560
  H       -0.6887990     2.1194610    -1.1851540
  H       -0.6152960     2.3835930     0.5515720
  H        1.5214970     2.0586850     1.4854080
  H        0.2921320    -0.4400260    -1.7869590
  H        3.6942270     0.8828880     1.5683180
  H        2.4736480    -1.5998700    -1.7190670
  H       -1.0482340    -0.0434160     1.8839740
  H       -2.6776530     1.1110490    -1.9207770
  H        4.8944640    -1.4825890    -0.9952280
  H        5.3329890    -0.5734720     0.4595320
  H        4.4581780    -2.1030590     0.5999660
  H       -2.9412840    -1.6093450     2.2217140
  H       -4.5604750    -0.4701320    -1.5992930
  H       -4.7020430    -1.8337400     0.4769600
units angstrom
no_reorient  #important for SAPT in psi4, default
symmetry c1  #important for SAPT in psi4, default
}

set PROPERTIES_ORIGIN ["COM"]
properties('MP2/aug-cc-pvtz', properties = ['dipole'])
--------------------------------------------------------------------------

    Molecular point group: c1
  Charge       = 0
  Multiplicity = 1
  Basis Set: AUG-CC-PVTZ
    Blend: AUG-CC-PVTZ
  Basis Set: (AUG-CC-PVTZ AUX)
    Blend: AUG-CC-PVTZ-JKFIT

    Orbital Energies [Eh]
    ---------------------

    Doubly Occupied:

       1A    -11.240987     2A    -11.238424     3A    -11.235352
       4A    -11.234941     5A    -11.234564     6A    -11.234476
       7A    -11.231472     8A    -11.231408     9A    -11.231172
      10A    -11.230364    11A    -11.229375    12A    -11.229232
      13A    -11.228677    14A    -11.222985    15A     -1.161487
      16A     -1.145525    17A     -1.074528    18A     -1.024625
      19A     -1.010079    20A     -1.006712    21A     -0.957136
      22A     -0.897144    23A     -0.828818    24A     -0.823066
      25A     -0.802699    26A     -0.774126    27A     -0.693364
      28A     -0.667706    29A     -0.648644    30A     -0.635064
      31A     -0.628097    32A     -0.617222    33A     -0.582755
      34A     -0.577758    35A     -0.575099    36A     -0.569352
      37A     -0.560192    38A     -0.549042    39A     -0.528213
      40A     -0.502562    41A     -0.491678    42A     -0.489544
      43A     -0.479459    44A     -0.473202    45A     -0.470445
      46A     -0.337328    47A     -0.333393    48A     -0.328256
      49A     -0.308877

  @DF-RHF Final Energy:  -538.49340407729801

   => Energetics <=

    Nuclear Repulsion Energy =            786.2302986416110571
    One-Electron Energy =               -2287.8341524437169028
    Two-Electron Energy =                 963.1104497248077223
    Total Energy =                       -538.4934040772980097
  Basis Set: (AUG-CC-PVTZ AUX)
    Blend: AUG-CC-PVTZ-RI
    Molecular point group: c1

    Geometry (in Angstrom), charge = 0, multiplicity = 1:

       Center              X                  Y                   Z               Mass
    ------------   -----------------  -----------------  -----------------  -----------------
         C           -0.552605788352     1.594737782070    -0.221940351154    12.000000000000
         C            0.781583211648     0.887588782070    -0.159052351154    12.000000000000
         C           -1.709509788352     0.638947782070    -0.037784351154    12.000000000000
         C            1.753629211648     1.242114782070     0.781461648846    12.000000000000
         C            1.067003011648    -0.136122517930    -1.042682751154    12.000000000000
         C            3.275669211648    -0.454861217930    -0.069037351154    12.000000000000
         C            2.981611211648     0.577554782070     0.827635648846    12.000000000000
         C            2.297556211648    -0.809364217930    -1.009778351154    12.000000000000
         C           -1.796314788352    -0.138562217930     1.126100648846    12.000000000000
         C           -2.703822788352     0.503732782070    -1.012640351154    12.000000000000
         C            4.583613211648    -1.199518217930     0.001660648846    12.000000000000
         C           -2.856760788352    -1.024004217930     1.312197648846    12.000000000000
         C           -3.766653788352    -0.385740217930    -0.831389351154    12.000000000000
         C           -3.846445788352    -1.150732217930     0.332536648846    12.000000000000
         H           -0.658924788352     2.109767782070    -1.185773351154     1.007825032230
         H           -0.585421788352     2.373899782070     0.550952648846     1.007825032230
         H            1.551371211648     2.048991782070     1.484788648846     1.007825032230
         H            0.322006211648    -0.449719217930    -1.787578351154     1.007825032230
         H            3.724101211648     0.873194782070     1.567698648846     1.007825032230
         H            2.503522211648    -1.609563217930    -1.719686351154     1.007825032230
         H           -1.018359788352    -0.053109217930     1.883354648846     1.007825032230
         H           -2.647778788352     1.101355782070    -1.921396351154     1.007825032230
         H            4.924338211648    -1.492282217930    -0.995847351154     1.007825032230
         H            5.362863211648    -0.583165217930     0.458912648846     1.007825032230
         H            4.488052211648    -2.112752217930     0.599346648846     1.007825032230
         H           -2.911409788352    -1.619038217930     2.221094648846     1.007825032230
         H           -4.530600788352    -0.479825217930    -1.599912351154     1.007825032230
         H           -4.672168788352    -1.843433217930     0.476340648846     1.007825032230

  Basis Set: AUG-CC-PVTZ
    Blend: AUG-CC-PVTZ
  Basis Set: (AUG-CC-PVTZ AUX)
    Blend: AUG-CC-PVTZ-JKFIT
	 Reference Energy          =    -538.4934040772980097 [Eh]
	 Singles Energy            =      -0.0000000000000000 [Eh]
	 Same-Spin Energy          =      -0.6082365205814971 [Eh]
	 Opposite-Spin Energy      =      -1.9347393805050257 [Eh]
	 Correlation Energy        =      -2.5429759010865229 [Eh]
	 Total Energy              =    -541.0363799783845025 [Eh]

	 ================> DF-SCS-MP2 Energies <==================
	-----------------------------------------------------------
	 SCS Same-Spin Scale       =       0.3333333333333333 [-]
	 SCS Opposite-Spin Scale   =       1.2000000000000000 [-]
	 SCS Same-Spin Energy      =      -0.2027455068604990 [Eh]
	 SCS Opposite-Spin Energy  =      -2.3216872566060309 [Eh]
	 SCS Correlation Energy    =      -2.5244327634665300 [Eh]
	 SCS Total Energy          =    -541.0178368407645166 [Eh]
	-----------------------------------------------------------

  Dipole Moment: [D]
     X:     0.3734      Y:    -0.1331      Z:     0.0101     Total:     0.3965

*** Psi4 exiting successfully. Buy a developer a beer!
