                               Psi4 1.4a3.dev225

  ==> Input File <==

--------------------------------------------------------------------------
#psi4
#
memory 32 gb

molecule  {
0 1
  C       -0.5824800     1.6044310    -0.2213210
  C        0.7517090     0.8972820    -0.1584330
  C       -1.7393840     0.6486410    -0.0371650
  C        1.7237550     1.2518080     0.7820810
  C        1.0412590    -0.1412430    -1.0548500
  C        3.2457950    -0.4451680    -0.0684180
  C        2.9517370     0.5872480     0.8282550
  C        2.2676820    -0.7996710    -1.0091590
  C       -1.8261890    -0.1288690     1.1267200
  C       -2.7336970     0.5134260    -1.0120210
  C        4.5537390    -1.1898250     0.0022800
  C       -2.8866350    -1.0143110     1.3128170
  C       -3.7965280    -0.3760470    -0.8307700
  C       -3.8763200    -1.1410390     0.3331560
  H       -0.6887990     2.1194610    -1.1851540
  H       -0.6152960     2.3835930     0.5515720
  H        1.5177835     2.0734993     1.4983211
  H        0.2921320    -0.4400260    -1.7869590
  H        3.6942270     0.8828880     1.5683180
  H        2.4736480    -1.5998700    -1.7190670
  H       -1.0482340    -0.0434160     1.8839740
  H       -2.6776530     1.1110490    -1.9207770
  H        4.8944640    -1.4825890    -0.9952280
  H        5.3329890    -0.5734720     0.4595320
  H        4.4581780    -2.1030590     0.5999660
  H       -2.9412840    -1.6093450     2.2217140
  H       -4.5604750    -0.4701320    -1.5992930
  H       -4.7020430    -1.8337400     0.4769600
units angstrom
no_reorient  #important for SAPT in psi4, default
symmetry c1  #important for SAPT in psi4, default
}

set PROPERTIES_ORIGIN ["COM"]
properties('MP2/aug-cc-pvtz', properties = ['dipole'])
--------------------------------------------------------------------------

    Molecular point group: c1
  Charge       = 0
  Multiplicity = 1
  Basis Set: AUG-CC-PVTZ
    Blend: AUG-CC-PVTZ
  Basis Set: (AUG-CC-PVTZ AUX)
    Blend: AUG-CC-PVTZ-JKFIT

    Orbital Energies [Eh]
    ---------------------

    Doubly Occupied:

       1A    -11.241065     2A    -11.238538     3A    -11.237184
       4A    -11.235277     5A    -11.235023     6A    -11.234534
       7A    -11.233416     8A    -11.231513     9A    -11.231263
      10A    -11.230038    11A    -11.229466    12A    -11.229420
      13A    -11.228806    14A    -11.223079    15A     -1.160661
      16A     -1.145276    17A     -1.073842    18A     -1.023933
      19A     -1.010166    20A     -1.007747    21A     -0.957340
      22A     -0.896214    23A     -0.827683    24A     -0.822530
      25A     -0.802628    26A     -0.774317    27A     -0.693358
      28A     -0.667305    29A     -0.648457    30A     -0.635007
      31A     -0.627227    32A     -0.617546    33A     -0.582804
      34A     -0.577913    35A     -0.575235    36A     -0.569373
      37A     -0.559536    38A     -0.548475    39A     -0.528070
      40A     -0.502909    41A     -0.491220    42A     -0.490084
      43A     -0.477109    44A     -0.473618    45A     -0.471400
      46A     -0.337163    47A     -0.333733    48A     -0.329349
      49A     -0.307408

  @DF-RHF Final Energy:  -538.49317718620205

   => Energetics <=

    Nuclear Repulsion Energy =            785.8610844374766202
    One-Electron Energy =               -2287.0980110418659024
    Two-Electron Energy =                 962.7437494181872353
    Total Energy =                       -538.4931771862020469
  Basis Set: (AUG-CC-PVTZ AUX)
    Blend: AUG-CC-PVTZ-RI
    Molecular point group: c1

    Geometry (in Angstrom), charge = 0, multiplicity = 1:

       Center              X                  Y                   Z               Mass
    ------------   -----------------  -----------------  -----------------  -----------------
         C           -0.552857394276     1.595631937139    -0.221169249066    12.000000000000
         C            0.781331605724     0.888482937139    -0.158281249066    12.000000000000
         C           -1.709761394276     0.639841937139    -0.037013249066    12.000000000000
         C            1.753377605724     1.243008937139     0.782232750934    12.000000000000
         C            1.070881605724    -0.150042062861    -1.054698249066    12.000000000000
         C            3.275417605724    -0.453967062861    -0.068266249066    12.000000000000
         C            2.981359605724     0.578448937139     0.828406750934    12.000000000000
         C            2.297304605724    -0.808470062861    -1.009007249066    12.000000000000
         C           -1.796566394276    -0.137668062861     1.126871750934    12.000000000000
         C           -2.704074394276     0.504626937139    -1.011869249066    12.000000000000
         C            4.583361605724    -1.198624062861     0.002431750934    12.000000000000
         C           -2.857012394276    -1.023110062861     1.312968750934    12.000000000000
         C           -3.766905394276    -0.384846062861    -0.830618249066    12.000000000000
         C           -3.846697394276    -1.149838062861     0.333307750934    12.000000000000
         H           -0.659176394276     2.110661937139    -1.185002249066     1.007825032230
         H           -0.585673394276     2.374793937139     0.551723750934     1.007825032230
         H            1.547406105724     2.064700237139     1.498472850934     1.007825032230
         H            0.321754605724    -0.448825062861    -1.786807249066     1.007825032230
         H            3.723849605724     0.874088937139     1.568469750934     1.007825032230
         H            2.503270605724    -1.608669062861    -1.718915249066     1.007825032230
         H           -1.018611394276    -0.052215062861     1.884125750934     1.007825032230
         H           -2.648030394276     1.102249937139    -1.920625249066     1.007825032230
         H            4.924086605724    -1.491388062861    -0.995076249066     1.007825032230
         H            5.362611605724    -0.582271062861     0.459683750934     1.007825032230
         H            4.487800605724    -2.111858062861     0.600117750934     1.007825032230
         H           -2.911661394276    -1.618144062861     2.221865750934     1.007825032230
         H           -4.530852394276    -0.478931062861    -1.599141249066     1.007825032230
         H           -4.672420394276    -1.842539062861     0.477111750934     1.007825032230

  Basis Set: AUG-CC-PVTZ
    Blend: AUG-CC-PVTZ
  Basis Set: (AUG-CC-PVTZ AUX)
    Blend: AUG-CC-PVTZ-JKFIT
	 Reference Energy          =    -538.4931771862020469 [Eh]
	 Singles Energy            =      -0.0000000000000000 [Eh]
	 Same-Spin Energy          =      -0.6082433681836159 [Eh]
	 Opposite-Spin Energy      =      -1.9349145712517908 [Eh]
	 Correlation Energy        =      -2.5431579394354067 [Eh]
	 Total Energy              =    -541.0363351256374926 [Eh]

	 ================> DF-SCS-MP2 Energies <==================
	-----------------------------------------------------------
	 SCS Same-Spin Scale       =       0.3333333333333333 [-]
	 SCS Opposite-Spin Scale   =       1.2000000000000000 [-]
	 SCS Same-Spin Energy      =      -0.2027477893945386 [Eh]
	 SCS Opposite-Spin Energy  =      -2.3218974855021490 [Eh]
	 SCS Correlation Energy    =      -2.5246452748966877 [Eh]
	 SCS Total Energy          =    -541.0178224610987172 [Eh]
	-----------------------------------------------------------

  Dipole Moment: [D]
     X:     0.3662      Y:    -0.1370      Z:     0.0048     Total:     0.3910

*** Psi4 exiting successfully. Buy a developer a beer!
