                               Psi4 1.4a3.dev225

  ==> Input File <==

--------------------------------------------------------------------------
#psi4
#
memory 32 gb

molecule  {
0 1
  C       -0.5824800     1.6044310    -0.2213210
  C        0.7517090     0.8972820    -0.1584330
  C       -1.7393840     0.6486410    -0.0371650
  C        1.7237550     1.2518080     0.7820810
  C        1.0412590    -0.1412430    -1.0548500
  C        3.2457950    -0.4451680    -0.0684180
  C        2.9517370     0.5872480     0.8282550
  C        2.2676820    -0.7996710    -1.0091590
  C       -1.8261890    -0.1288690     1.1267200
  C       -2.7336970     0.5134260    -1.0120210
  C        4.5537390    -1.1898250     0.0022800
  C       -2.8866350    -1.0143110     1.3128170
  C       -3.7965280    -0.3760470    -0.8307700
  C       -3.8763200    -1.1410390     0.3331560
  H       -0.6887990     2.1194610    -1.1851540
  H       -0.6152960     2.3835930     0.5515720
  H        1.5214970     2.0586850     1.4854080
  H        0.2921320    -0.4400260    -1.7869590
  H        3.6942270     0.8828880     1.5683180
  H        2.4736480    -1.5998700    -1.7190670
  H       -1.0482340    -0.0434160     1.8839740
  H       -2.6802260     1.0836124    -1.8790564
  H        4.8944640    -1.4825890    -0.9952280
  H        5.3329890    -0.5734720     0.4595320
  H        4.4581780    -2.1030590     0.5999660
  H       -2.9412840    -1.6093450     2.2217140
  H       -4.5604750    -0.4701320    -1.5992930
  H       -4.7020430    -1.8337400     0.4769600
units angstrom
no_reorient  #important for SAPT in psi4, default
symmetry c1  #important for SAPT in psi4, default
}

set PROPERTIES_ORIGIN ["COM"]
properties('MP2/aug-cc-pvtz', properties = ['dipole'])
--------------------------------------------------------------------------

    Molecular point group: c1
  Charge       = 0
  Multiplicity = 1
  Basis Set: AUG-CC-PVTZ
    Blend: AUG-CC-PVTZ
  Basis Set: (AUG-CC-PVTZ AUX)
    Blend: AUG-CC-PVTZ-JKFIT

    Orbital Energies [Eh]
    ---------------------

    Doubly Occupied:

       1A    -11.240565     2A    -11.238387     3A    -11.236971
       4A    -11.235338     5A    -11.234521     6A    -11.234283
       7A    -11.231200     8A    -11.230943     9A    -11.229925
      10A    -11.229168    11A    -11.229024    12A    -11.228698
      13A    -11.225500    14A    -11.222987    15A     -1.160704
      16A     -1.145284    17A     -1.073744    18A     -1.024162
      19A     -1.011318    20A     -1.008177    21A     -0.957479
      22A     -0.896400    23A     -0.828789    24A     -0.824684
      25A     -0.803408    26A     -0.774612    27A     -0.696086
      28A     -0.668373    29A     -0.648733    30A     -0.636371
      31A     -0.629296    32A     -0.618079    33A     -0.584434
      34A     -0.578775    35A     -0.575736    36A     -0.569999
      37A     -0.560042    38A     -0.548745    39A     -0.528079
      40A     -0.502890    41A     -0.492861    42A     -0.490241
      43A     -0.477598    44A     -0.473509    45A     -0.471263
      46A     -0.336945    47A     -0.333511    48A     -0.329155
      49A     -0.307213

  @DF-RHF Final Energy:  -538.49311034607661

   => Energetics <=

    Nuclear Repulsion Energy =            786.2294338675901599
    One-Electron Energy =               -2287.8166716668897607
    Two-Electron Energy =                 963.0941274532229954
    Total Energy =                       -538.4931103460766053
  Basis Set: (AUG-CC-PVTZ AUX)
    Blend: AUG-CC-PVTZ-RI
    Molecular point group: c1

    Geometry (in Angstrom), charge = 0, multiplicity = 1:

       Center              X                  Y                   Z               Mass
    ------------   -----------------  -----------------  -----------------  -----------------
         C           -0.552863705996     1.595865760760    -0.221328674640    12.000000000000
         C            0.781325294004     0.888716760760    -0.158440674640    12.000000000000
         C           -1.709767705996     0.640075760760    -0.037172674640    12.000000000000
         C            1.753371294004     1.243242760760     0.782073325360    12.000000000000
         C            1.070875294004    -0.149808239240    -1.054857674640    12.000000000000
         C            3.275411294004    -0.453733239240    -0.068425674640    12.000000000000
         C            2.981353294004     0.578682760760     0.828247325360    12.000000000000
         C            2.297298294004    -0.808236239240    -1.009166674640    12.000000000000
         C           -1.796572705996    -0.137434239240     1.126712325360    12.000000000000
         C           -2.704080705996     0.504860760760    -1.012028674640    12.000000000000
         C            4.583355294004    -1.198390239240     0.002272325360    12.000000000000
         C           -2.857018705996    -1.022876239240     1.312809325360    12.000000000000
         C           -3.766911705996    -0.384612239240    -0.830777674640    12.000000000000
         C           -3.846703705996    -1.149604239240     0.333148325360    12.000000000000
         H           -0.659182705996     2.110895760760    -1.185161674640     1.007825032230
         H           -0.585679705996     2.375027760760     0.551564325360     1.007825032230
         H            1.551113294004     2.050119760760     1.485400325360     1.007825032230
         H            0.321748294004    -0.448591239240    -1.786966674640     1.007825032230
         H            3.723843294004     0.874322760760     1.568310325360     1.007825032230
         H            2.503264294004    -1.608435239240    -1.719074674640     1.007825032230
         H           -1.018617705996    -0.051981239240     1.883966325360     1.007825032230
         H           -2.650609705996     1.075047160760    -1.879064074640     1.007825032230
         H            4.924080294004    -1.491154239240    -0.995235674640     1.007825032230
         H            5.362605294004    -0.582037239240     0.459524325360     1.007825032230
         H            4.487794294004    -2.111624239240     0.599958325360     1.007825032230
         H           -2.911667705996    -1.617910239240     2.221706325360     1.007825032230
         H           -4.530858705996    -0.478697239240    -1.599300674640     1.007825032230
         H           -4.672426705996    -1.842305239240     0.476952325360     1.007825032230

  Basis Set: AUG-CC-PVTZ
    Blend: AUG-CC-PVTZ
  Basis Set: (AUG-CC-PVTZ AUX)
    Blend: AUG-CC-PVTZ-JKFIT
	 Reference Energy          =    -538.4931103460766053 [Eh]
	 Singles Energy            =      -0.0000000000000000 [Eh]
	 Same-Spin Energy          =      -0.6080871133948804 [Eh]
	 Opposite-Spin Energy      =      -1.9344003959383635 [Eh]
	 Correlation Energy        =      -2.5424875093332440 [Eh]
	 Total Energy              =    -541.0355978554098328 [Eh]

	 ================> DF-SCS-MP2 Energies <==================
	-----------------------------------------------------------
	 SCS Same-Spin Scale       =       0.3333333333333333 [-]
	 SCS Opposite-Spin Scale   =       1.2000000000000000 [-]
	 SCS Same-Spin Energy      =      -0.2026957044649601 [Eh]
	 SCS Opposite-Spin Energy  =      -2.3212804751260361 [Eh]
	 SCS Correlation Energy    =      -2.5239761795909961 [Eh]
	 SCS Total Energy          =    -541.0170865256676507 [Eh]
	-----------------------------------------------------------

  Dipole Moment: [D]
     X:     0.3658      Y:    -0.1179      Z:    -0.0049     Total:     0.3843

*** Psi4 exiting successfully. Buy a developer a beer!
