                               Psi4 1.4a3.dev225

  ==> Input File <==

--------------------------------------------------------------------------
#psi4
#
memory 32 gb

molecule  {
0 1
  C       -0.5824800     1.6044310    -0.2213210
  C        0.7517090     0.8972820    -0.1584330
  C       -1.7393840     0.6486410    -0.0371650
  C        1.7237550     1.2518080     0.7820810
  C        1.0412590    -0.1412430    -1.0548500
  C        3.2457950    -0.4451680    -0.0684180
  C        2.9517370     0.5872480     0.8282550
  C        2.2676820    -0.7996710    -1.0091590
  C       -1.8468437    -0.1388874     1.1182296
  C       -2.7336970     0.5134260    -1.0120210
  C        4.5537390    -1.1898250     0.0022800
  C       -2.8866350    -1.0143110     1.3128170
  C       -3.7965280    -0.3760470    -0.8307700
  C       -3.8763200    -1.1410390     0.3331560
  H       -0.6887990     2.1194610    -1.1851540
  H       -0.6152960     2.3835930     0.5515720
  H        1.5214970     2.0586850     1.4854080
  H        0.2921320    -0.4400260    -1.7869590
  H        3.6942270     0.8828880     1.5683180
  H        2.4736480    -1.5998700    -1.7190670
  H       -1.0482340    -0.0434160     1.8839740
  H       -2.6776530     1.1110490    -1.9207770
  H        4.8944640    -1.4825890    -0.9952280
  H        5.3329890    -0.5734720     0.4595320
  H        4.4581780    -2.1030590     0.5999660
  H       -2.9412840    -1.6093450     2.2217140
  H       -4.5604750    -0.4701320    -1.5992930
  H       -4.7020430    -1.8337400     0.4769600
units angstrom
no_reorient  #important for SAPT in psi4, default
symmetry c1  #important for SAPT in psi4, default
}

set PROPERTIES_ORIGIN ["COM"]
properties('MP2/aug-cc-pvtz', properties = ['dipole'])
--------------------------------------------------------------------------

    Molecular point group: c1
  Charge       = 0
  Multiplicity = 1
  Basis Set: AUG-CC-PVTZ
    Blend: AUG-CC-PVTZ
  Basis Set: (AUG-CC-PVTZ AUX)
    Blend: AUG-CC-PVTZ-JKFIT

    Orbital Energies [Eh]
    ---------------------

    Doubly Occupied:

       1A    -11.240879     2A    -11.238452     3A    -11.237087
       4A    -11.235941     5A    -11.234445     6A    -11.232306
       7A    -11.231300     8A    -11.231268     9A    -11.230980
      10A    -11.229966    11A    -11.229199    12A    -11.228836
      13A    -11.228739    14A    -11.223019    15A     -1.161345
      16A     -1.146399    17A     -1.074064    18A     -1.024089
      19A     -1.011841    20A     -1.008221    21A     -0.957464
      22A     -0.896496    23A     -0.827662    24A     -0.821543
      25A     -0.804133    26A     -0.774959    27A     -0.693067
      28A     -0.668058    29A     -0.648675    30A     -0.634576
      31A     -0.627915    32A     -0.617245    33A     -0.581563
      34A     -0.578766    35A     -0.575604    36A     -0.569428
      37A     -0.560175    38A     -0.548655    39A     -0.528089
      40A     -0.503962    41A     -0.492685    42A     -0.487972
      43A     -0.478020    44A     -0.472894    45A     -0.471397
      46A     -0.337843    47A     -0.334887    48A     -0.328998
      49A     -0.307355

  @DF-RHF Final Energy:  -538.49329830277475

   => Energetics <=

    Nuclear Repulsion Energy =            786.1276224737255234
    One-Electron Energy =               -2287.6249167218670664
    Two-Electron Energy =                 963.0039959453667961
    Total Energy =                       -538.4932983027747468
  Basis Set: (AUG-CC-PVTZ AUX)
    Blend: AUG-CC-PVTZ-RI
    Molecular point group: c1

    Geometry (in Angstrom), charge = 0, multiplicity = 1:

       Center              X                  Y                   Z               Mass
    ------------   -----------------  -----------------  -----------------  -----------------
         C           -0.551516916299     1.596374078460    -0.220538315954    12.000000000000
         C            0.782672083701     0.889225078460    -0.157650315954    12.000000000000
         C           -1.708420916299     0.640584078460    -0.036382315954    12.000000000000
         C            1.754718083701     1.243751078460     0.782863684046    12.000000000000
         C            1.072222083701    -0.149299921540    -1.054067315954    12.000000000000
         C            3.276758083701    -0.453224921540    -0.067635315954    12.000000000000
         C            2.982700083701     0.579191078460     0.829037684046    12.000000000000
         C            2.298645083701    -0.807727921540    -1.008376315954    12.000000000000
         C           -1.815880616299    -0.146944321540     1.119012284046    12.000000000000
         C           -2.702733916299     0.505369078460    -1.011238315954    12.000000000000
         C            4.584702083701    -1.197881921540     0.003062684046    12.000000000000
         C           -2.855671916299    -1.022367921540     1.313599684046    12.000000000000
         C           -3.765564916299    -0.384103921540    -0.829987315954    12.000000000000
         C           -3.845356916299    -1.149095921540     0.333938684046    12.000000000000
         H           -0.657835916299     2.111404078460    -1.184371315954     1.007825032230
         H           -0.584332916299     2.375536078460     0.552354684046     1.007825032230
         H            1.552460083701     2.050628078460     1.486190684046     1.007825032230
         H            0.323095083701    -0.448082921540    -1.786176315954     1.007825032230
         H            3.725190083701     0.874831078460     1.569100684046     1.007825032230
         H            2.504611083701    -1.607926921540    -1.718284315954     1.007825032230
         H           -1.017270916299    -0.051472921540     1.884756684046     1.007825032230
         H           -2.646689916299     1.102992078460    -1.919994315954     1.007825032230
         H            4.925427083701    -1.490645921540    -0.994445315954     1.007825032230
         H            5.363952083701    -0.581528921540     0.460314684046     1.007825032230
         H            4.489141083701    -2.111115921540     0.600748684046     1.007825032230
         H           -2.910320916299    -1.617401921540     2.222496684046     1.007825032230
         H           -4.529511916299    -0.478188921540    -1.598510315954     1.007825032230
         H           -4.671079916299    -1.841796921540     0.477742684046     1.007825032230

  Basis Set: AUG-CC-PVTZ
    Blend: AUG-CC-PVTZ
  Basis Set: (AUG-CC-PVTZ AUX)
    Blend: AUG-CC-PVTZ-JKFIT
	 Reference Energy          =    -538.4932983027747468 [Eh]
	 Singles Energy            =      -0.0000000000000000 [Eh]
	 Same-Spin Energy          =      -0.6081830144926524 [Eh]
	 Opposite-Spin Energy      =      -1.9346301152252805 [Eh]
	 Correlation Energy        =      -2.5428131297179331 [Eh]
	 Total Energy              =    -541.0361114324927030 [Eh]

	 ================> DF-SCS-MP2 Energies <==================
	-----------------------------------------------------------
	 SCS Same-Spin Scale       =       0.3333333333333333 [-]
	 SCS Opposite-Spin Scale   =       1.2000000000000000 [-]
	 SCS Same-Spin Energy      =      -0.2027276714975508 [Eh]
	 SCS Opposite-Spin Energy  =      -2.3215561382703367 [Eh]
	 SCS Correlation Energy    =      -2.5242838097678875 [Eh]
	 SCS Total Energy          =    -541.0175821125426410 [Eh]
	-----------------------------------------------------------

  Dipole Moment: [D]
     X:     0.3705      Y:    -0.1254      Z:     0.0050     Total:     0.3912

*** Psi4 exiting successfully. Buy a developer a beer!
