                               Psi4 1.4a3.dev225

  ==> Input File <==

--------------------------------------------------------------------------
#psi4
#
memory 32 gb

molecule  {
0 1
  C       -0.5824800     1.6044310    -0.2213210
  C        0.7517090     0.8972820    -0.1584330
  C       -1.7393840     0.6486410    -0.0371650
  C        1.7237550     1.2518080     0.7820810
  C        1.0412590    -0.1412430    -1.0548500
  C        3.2457950    -0.4451680    -0.0684180
  C        2.9517370     0.5872480     0.8282550
  C        2.2676820    -0.7996710    -1.0091590
  C       -1.8261890    -0.1288690     1.1267200
  C       -2.7336970     0.5134260    -1.0120210
  C        4.5537390    -1.1898250     0.0022800
  C       -2.8866350    -1.0143110     1.3128170
  C       -3.7965280    -0.3760470    -0.8307700
  C       -3.8763200    -1.1410390     0.3331560
  H       -0.6887990     2.1194610    -1.1851540
  H       -0.6152960     2.3835930     0.5515720
  H        1.5214970     2.0586850     1.4854080
  H        0.2921320    -0.4400260    -1.7869590
  H        3.6942270     0.8828880     1.5683180
  H        2.4736480    -1.5998700    -1.7190670
  H       -1.0482340    -0.0434160     1.8839740
  H       -2.6786822     1.1000743    -1.9040887
  H        4.8944640    -1.4825890    -0.9952280
  H        5.3329890    -0.5734720     0.4595320
  H        4.4581780    -2.1030590     0.5999660
  H       -2.9412840    -1.6093450     2.2217140
  H       -4.5604750    -0.4701320    -1.5992930
  H       -4.7020430    -1.8337400     0.4769600
units angstrom
no_reorient  #important for SAPT in psi4, default
symmetry c1  #important for SAPT in psi4, default
}

set PROPERTIES_ORIGIN ["COM"]
properties('MP2/aug-cc-pvtz', properties = ['dipole'])
--------------------------------------------------------------------------

    Molecular point group: c1
  Charge       = 0
  Multiplicity = 1
  Basis Set: AUG-CC-PVTZ
    Blend: AUG-CC-PVTZ
  Basis Set: (AUG-CC-PVTZ AUX)
    Blend: AUG-CC-PVTZ-JKFIT

    Orbital Energies [Eh]
    ---------------------

    Doubly Occupied:

       1A    -11.240861     2A    -11.238382     3A    -11.236953
       4A    -11.235307     5A    -11.234798     6A    -11.234436
       7A    -11.231194     8A    -11.231167     9A    -11.229909
      10A    -11.229273    11A    -11.229161    12A    -11.229102
      13A    -11.228682    14A    -11.222984    15A     -1.160669
      16A     -1.145260    17A     -1.073783    18A     -1.024051
      19A     -1.010598    20A     -1.008152    21A     -0.957359
      22A     -0.896298    23A     -0.828293    24A     -0.823581
      25A     -0.803133    26A     -0.774600    27A     -0.694394
      28A     -0.668066    29A     -0.648500    30A     -0.635565
      31A     -0.628877    32A     -0.617852    33A     -0.583437
      34A     -0.578768    35A     -0.575459    36A     -0.569696
      37A     -0.559951    38A     -0.548561    39A     -0.528035
      40A     -0.502891    41A     -0.491947    42A     -0.490290
      43A     -0.477610    44A     -0.473511    45A     -0.471292
      46A     -0.337033    47A     -0.333623    48A     -0.329230
      49A     -0.307271

  @DF-RHF Final Energy:  -538.49398152900403

   => Energetics <=

    Nuclear Repulsion Energy =            786.0690936716771375
    One-Electron Energy =               -2287.5064625425811755
    Two-Electron Energy =                 962.9433873419000065
    Total Energy =                       -538.4939815290040315
  Basis Set: (AUG-CC-PVTZ AUX)
    Blend: AUG-CC-PVTZ-RI
    Molecular point group: c1

    Geometry (in Angstrom), charge = 0, multiplicity = 1:

       Center              X                  Y                   Z               Mass
    ------------   -----------------  -----------------  -----------------  -----------------
         C           -0.552872249646     1.595774657823    -0.221190141661    12.000000000000
         C            0.781316750354     0.888625657823    -0.158302141661    12.000000000000
         C           -1.709776249646     0.639984657823    -0.037034141661    12.000000000000
         C            1.753362750354     1.243151657823     0.782211858339    12.000000000000
         C            1.070866750354    -0.149899342177    -1.054719141661    12.000000000000
         C            3.275402750354    -0.453824342177    -0.068287141661    12.000000000000
         C            2.981344750354     0.578591657823     0.828385858339    12.000000000000
         C            2.297289750354    -0.808327342177    -1.009028141661    12.000000000000
         C           -1.796581249646    -0.137525342177     1.126850858339    12.000000000000
         C           -2.704089249646     0.504769657823    -1.011890141661    12.000000000000
         C            4.583346750354    -1.198481342177     0.002410858339    12.000000000000
         C           -2.857027249646    -1.022967342177     1.312947858339    12.000000000000
         C           -3.766920249646    -0.384703342177    -0.830639141661    12.000000000000
         C           -3.846712249646    -1.149695342177     0.333286858339    12.000000000000
         H           -0.659191249646     2.110804657823    -1.185023141661     1.007825032230
         H           -0.585688249646     2.374936657823     0.551702858339     1.007825032230
         H            1.551104750354     2.050028657823     1.485538858339     1.007825032230
         H            0.321739750354    -0.448682342177    -1.786828141661     1.007825032230
         H            3.723834750354     0.874231657823     1.568448858339     1.007825032230
         H            2.503255750354    -1.608526342177    -1.718936141661     1.007825032230
         H           -1.018626249646    -0.052072342177     1.884104858339     1.007825032230
         H           -2.649074449646     1.091417957823    -1.903957841661     1.007825032230
         H            4.924071750354    -1.491245342177    -0.995097141661     1.007825032230
         H            5.362596750354    -0.582128342177     0.459662858339     1.007825032230
         H            4.487785750354    -2.111715342177     0.600096858339     1.007825032230
         H           -2.911676249646    -1.618001342177     2.221844858339     1.007825032230
         H           -4.530867249646    -0.478788342177    -1.599162141661     1.007825032230
         H           -4.672435249646    -1.842396342177     0.477090858339     1.007825032230

  Basis Set: AUG-CC-PVTZ
    Blend: AUG-CC-PVTZ
  Basis Set: (AUG-CC-PVTZ AUX)
    Blend: AUG-CC-PVTZ-JKFIT
	 Reference Energy          =    -538.4939815290040315 [Eh]
	 Singles Energy            =      -0.0000000000000000 [Eh]
	 Same-Spin Energy          =      -0.6081487092577328 [Eh]
	 Opposite-Spin Energy      =      -1.9345909474770184 [Eh]
	 Correlation Energy        =      -2.5427396567347511 [Eh]
	 Total Energy              =    -541.0367211857387701 [Eh]

	 ================> DF-SCS-MP2 Energies <==================
	-----------------------------------------------------------
	 SCS Same-Spin Scale       =       0.3333333333333333 [-]
	 SCS Opposite-Spin Scale   =       1.2000000000000000 [-]
	 SCS Same-Spin Energy      =      -0.2027162364192442 [Eh]
	 SCS Opposite-Spin Energy  =      -2.3215091369724221 [Eh]
	 SCS Correlation Energy    =      -2.5242253733916664 [Eh]
	 SCS Total Energy          =    -541.0182069023957183 [Eh]
	-----------------------------------------------------------

  Dipole Moment: [D]
     X:     0.3640      Y:    -0.1247      Z:     0.0037     Total:     0.3848

*** Psi4 exiting successfully. Buy a developer a beer!
