                               Psi4 1.4a3.dev225

  ==> Input File <==

--------------------------------------------------------------------------
#psi4
#
memory 32 gb

molecule  {
0 1
  C       -0.5824800     1.6044310    -0.2213210
  C        0.7517090     0.8972820    -0.1584330
  C       -1.7393840     0.6486410    -0.0371650
  C        1.7237550     1.2518080     0.7820810
  C        1.0412590    -0.1412430    -1.0548500
  C        3.2457950    -0.4451680    -0.0684180
  C        2.9517370     0.5872480     0.8282550
  C        2.2676820    -0.7996710    -1.0091590
  C       -1.8261890    -0.1288690     1.1267200
  C       -2.7336970     0.5134260    -1.0120210
  C        4.5537390    -1.1898250     0.0022800
  C       -2.8866350    -1.0143110     1.3128170
  C       -3.7965280    -0.3760470    -0.8307700
  C       -3.8763200    -1.1410390     0.3331560
  H       -0.6887990     2.1194610    -1.1851540
  H       -0.6152960     2.3835930     0.5515720
  H        1.5214970     2.0586850     1.4854080
  H        0.2921320    -0.4400260    -1.7869590
  H        3.6942270     0.8828880     1.5683180
  H        2.4736480    -1.5998700    -1.7190670
  H       -1.0482340    -0.0434160     1.8839740
  H       -2.6776530     1.1110490    -1.9207770
  H        4.8944640    -1.4825890    -0.9952280
  H        5.3329890    -0.5734720     0.4595320
  H        4.4581780    -2.1030590     0.5999660
  H       -2.9412840    -1.6093450     2.2217140
  H       -4.5604750    -0.4701320    -1.5992930
  H       -4.7172308    -1.8464811     0.4796050
units angstrom
no_reorient  #important for SAPT in psi4, default
symmetry c1  #important for SAPT in psi4, default
}

set PROPERTIES_ORIGIN ["COM"]
properties('MP2/aug-cc-pvtz', properties = ['dipole'])
--------------------------------------------------------------------------

    Molecular point group: c1
  Charge       = 0
  Multiplicity = 1
  Basis Set: AUG-CC-PVTZ
    Blend: AUG-CC-PVTZ
  Basis Set: (AUG-CC-PVTZ AUX)
    Blend: AUG-CC-PVTZ-JKFIT

    Orbital Energies [Eh]
    ---------------------

    Doubly Occupied:

       1A    -11.241159     2A    -11.238411     3A    -11.236981
       4A    -11.235426     5A    -11.235343     6A    -11.234818
       7A    -11.233397     8A    -11.231601     9A    -11.231227
      10A    -11.229933    11A    -11.229582    12A    -11.229189
      13A    -11.228706    14A    -11.223005    15A     -1.160706
      16A     -1.145284    17A     -1.073751    18A     -1.023769
      19A     -1.010321    20A     -1.008165    21A     -0.957019
      22A     -0.896014    23A     -0.828143    24A     -0.822933
      25A     -0.802258    26A     -0.774508    27A     -0.691938
      28A     -0.667612    29A     -0.648304    30A     -0.634836
      31A     -0.628460    32A     -0.617765    33A     -0.582930
      34A     -0.578773    35A     -0.575038    36A     -0.568316
      37A     -0.559838    38A     -0.548444    39A     -0.527909
      40A     -0.502453    41A     -0.491230    42A     -0.490256
      43A     -0.477676    44A     -0.473563    45A     -0.471139
      46A     -0.337177    47A     -0.333813    48A     -0.329348
      49A     -0.307368

  @DF-RHF Final Energy:  -538.49319241858336

   => Energetics <=

    Nuclear Repulsion Energy =            785.8614919572262352
    One-Electron Energy =               -2287.0976965224499509
    Two-Electron Energy =                 962.7430121466403534
    Total Energy =                       -538.4931924185833623
  Basis Set: (AUG-CC-PVTZ AUX)
    Blend: AUG-CC-PVTZ-RI
    Molecular point group: c1

    Geometry (in Angstrom), charge = 0, multiplicity = 1:

       Center              X                  Y                   Z               Mass
    ------------   -----------------  -----------------  -----------------  -----------------
         C           -0.552793893561     1.595784433380    -0.221112423665    12.000000000000
         C            0.781395106439     0.888635433380    -0.158224423665    12.000000000000
         C           -1.709697893561     0.639994433380    -0.036956423665    12.000000000000
         C            1.753441106439     1.243161433380     0.782289576335    12.000000000000
         C            1.070945106439    -0.149889566620    -1.054641423665    12.000000000000
         C            3.275481106439    -0.453814566620    -0.068209423665    12.000000000000
         C            2.981423106439     0.578601433380     0.828463576335    12.000000000000
         C            2.297368106439    -0.808317566620    -1.008950423665    12.000000000000
         C           -1.796502893561    -0.137515566620     1.126928576335    12.000000000000
         C           -2.704010893561     0.504779433380    -1.011812423665    12.000000000000
         C            4.583425106439    -1.198471566620     0.002488576335    12.000000000000
         C           -2.856948893561    -1.022957566620     1.313025576335    12.000000000000
         C           -3.766841893561    -0.384693566620    -0.830561423665    12.000000000000
         C           -3.846633893561    -1.149685566620     0.333364576335    12.000000000000
         H           -0.659112893561     2.110814433380    -1.184945423665     1.007825032230
         H           -0.585609893561     2.374946433380     0.551780576335     1.007825032230
         H            1.551183106439     2.050038433380     1.485616576335     1.007825032230
         H            0.321818106439    -0.448672566620    -1.786750423665     1.007825032230
         H            3.723913106439     0.874241433380     1.568526576335     1.007825032230
         H            2.503334106439    -1.608516566620    -1.718858423665     1.007825032230
         H           -1.018547893561    -0.052062566620     1.884182576335     1.007825032230
         H           -2.647966893561     1.102402433380    -1.920568423665     1.007825032230
         H            4.924150106439    -1.491235566620    -0.995019423665     1.007825032230
         H            5.362675106439    -0.582118566620     0.459740576335     1.007825032230
         H            4.487864106439    -2.111705566620     0.600174576335     1.007825032230
         H           -2.911597893561    -1.617991566620     2.221922576335     1.007825032230
         H           -4.530788893561    -0.478778566620    -1.599084423665     1.007825032230
         H           -4.687544693561    -1.855127666620     0.479813576335     1.007825032230

  Basis Set: AUG-CC-PVTZ
    Blend: AUG-CC-PVTZ
  Basis Set: (AUG-CC-PVTZ AUX)
    Blend: AUG-CC-PVTZ-JKFIT
	 Reference Energy          =    -538.4931924185833623 [Eh]
	 Singles Energy            =      -0.0000000000000000 [Eh]
	 Same-Spin Energy          =      -0.6082287157151556 [Eh]
	 Opposite-Spin Energy      =      -1.9348911852001158 [Eh]
	 Correlation Energy        =      -2.5431199009152712 [Eh]
	 Total Energy              =    -541.0363123194986201 [Eh]

	 ================> DF-SCS-MP2 Energies <==================
	-----------------------------------------------------------
	 SCS Same-Spin Scale       =       0.3333333333333333 [-]
	 SCS Opposite-Spin Scale   =       1.2000000000000000 [-]
	 SCS Same-Spin Energy      =      -0.2027429052383852 [Eh]
	 SCS Opposite-Spin Energy  =      -2.3218694222401388 [Eh]
	 SCS Correlation Energy    =      -2.5246123274785242 [Eh]
	 SCS Total Energy          =    -541.0178047460618700 [Eh]
	-----------------------------------------------------------

  Dipole Moment: [D]
     X:     0.3708      Y:    -0.1243      Z:     0.0089     Total:     0.3912

*** Psi4 exiting successfully. Buy a developer a beer!
