                               Psi4 1.4a3.dev225

  ==> Input File <==

--------------------------------------------------------------------------
#psi4
#
memory 32 gb

molecule  {
0 1
  C       -0.5824800     1.6044310    -0.2213210
  C        0.7517090     0.8972820    -0.1584330
  C       -1.7393840     0.6486410    -0.0371650
  C        1.7237550     1.2518080     0.7820810
  C        1.0412590    -0.1412430    -1.0548500
  C        3.2457950    -0.4451680    -0.0684180
  C        2.9517370     0.5872480     0.8282550
  C        2.2676820    -0.7996710    -1.0091590
  C       -1.8261890    -0.1288690     1.1267200
  C       -2.7336970     0.5134260    -1.0120210
  C        4.5537390    -1.1898250     0.0022800
  C       -2.8866350    -1.0143110     1.3128170
  C       -3.7965280    -0.3760470    -0.8307700
  C       -3.8763200    -1.1410390     0.3331560
  H       -0.6887990     2.1194610    -1.1851540
  H       -0.6152960     2.3835930     0.5515720
  H        1.5214970     2.0586850     1.4854080
  H        0.2921320    -0.4400260    -1.7869590
  H        3.6942270     0.8828880     1.5683180
  H        2.4736480    -1.5998700    -1.7190670
  H       -1.0482340    -0.0434160     1.8839740
  H       -2.6776530     1.1110490    -1.9207770
  H        4.9256090    -1.5093500    -1.0864083
  H        5.3329890    -0.5734720     0.4595320
  H        4.4581780    -2.1030590     0.5999660
  H       -2.9412840    -1.6093450     2.2217140
  H       -4.5604750    -0.4701320    -1.5992930
  H       -4.7020430    -1.8337400     0.4769600
units angstrom
no_reorient  #important for SAPT in psi4, default
symmetry c1  #important for SAPT in psi4, default
}

set PROPERTIES_ORIGIN ["COM"]
properties('MP2/aug-cc-pvtz', properties = ['dipole'])
--------------------------------------------------------------------------

    Molecular point group: c1
  Charge       = 0
  Multiplicity = 1
  Basis Set: AUG-CC-PVTZ
    Blend: AUG-CC-PVTZ
  Basis Set: (AUG-CC-PVTZ AUX)
    Blend: AUG-CC-PVTZ-JKFIT

    Orbital Energies [Eh]
    ---------------------

    Doubly Occupied:

       1A    -11.241265     2A    -11.239336     3A    -11.237382
       4A    -11.235553     5A    -11.235178     6A    -11.234786
       7A    -11.234698     8A    -11.231681     9A    -11.231675
      10A    -11.231423    11A    -11.230154    12A    -11.229963
      13A    -11.229614    14A    -11.228925    15A     -1.160934
      16A     -1.145484    17A     -1.073609    18A     -1.023082
      19A     -1.010333    20A     -1.008536    21A     -0.954644
      22A     -0.893218    23A     -0.828420    24A     -0.822985
      25A     -0.802484    26A     -0.774433    27A     -0.693508
      28A     -0.667653    29A     -0.647862    30A     -0.635192
      31A     -0.628298    32A     -0.617651    33A     -0.582981
      34A     -0.579159    35A     -0.572470    36A     -0.569746
      37A     -0.560182    38A     -0.543045    39A     -0.520920
      40A     -0.503424    41A     -0.490805    42A     -0.490214
      43A     -0.477258    44A     -0.473561    45A     -0.471188
      46A     -0.337408    47A     -0.333906    48A     -0.329425
      49A     -0.307590

  @DF-RHF Final Energy:  -538.48729439886165

   => Energetics <=

    Nuclear Repulsion Energy =            785.5525129670318165
    One-Electron Energy =               -2286.4731282124039353
    Two-Electron Energy =                 962.4333208465104690
    Total Energy =                       -538.4872943988616498
  Basis Set: (AUG-CC-PVTZ AUX)
    Blend: AUG-CC-PVTZ-RI
    Molecular point group: c1

    Geometry (in Angstrom), charge = 0, multiplicity = 1:

       Center              X                  Y                   Z               Mass
    ------------   -----------------  -----------------  -----------------  -----------------
         C           -0.553050307107     1.595862021876    -0.220593178597    12.000000000000
         C            0.781138692893     0.888713021876    -0.157705178597    12.000000000000
         C           -1.709954307107     0.640072021876    -0.036437178597    12.000000000000
         C            1.753184692893     1.243239021876     0.782808821403    12.000000000000
         C            1.070688692893    -0.149811978124    -1.054122178597    12.000000000000
         C            3.275224692893    -0.453736978124    -0.067690178597    12.000000000000
         C            2.981166692893     0.578679021876     0.828982821403    12.000000000000
         C            2.297111692893    -0.808239978124    -1.008431178597    12.000000000000
         C           -1.796759307107    -0.137437978124     1.127447821403    12.000000000000
         C           -2.704267307107     0.504857021876    -1.011293178597    12.000000000000
         C            4.583168692893    -1.198393978124     0.003007821403    12.000000000000
         C           -2.857205307107    -1.022879978124     1.313544821403    12.000000000000
         C           -3.767098307107    -0.384615978124    -0.830042178597    12.000000000000
         C           -3.846890307107    -1.149607978124     0.333883821403    12.000000000000
         H           -0.659369307107     2.110892021876    -1.184426178597     1.007825032230
         H           -0.585866307107     2.375024021876     0.552299821403     1.007825032230
         H            1.550926692893     2.050116021876     1.486135821403     1.007825032230
         H            0.321561692893    -0.448594978124    -1.786231178597     1.007825032230
         H            3.723656692893     0.874319021876     1.569045821403     1.007825032230
         H            2.503077692893    -1.608438978124    -1.718339178597     1.007825032230
         H           -1.018804307107    -0.051984978124     1.884701821403     1.007825032230
         H           -2.648223307107     1.102480021876    -1.920049178597     1.007825032230
         H            4.955038692893    -1.517918978124    -1.085680478597     1.007825032230
         H            5.362418692893    -0.582040978124     0.460259821403     1.007825032230
         H            4.487607692893    -2.111627978124     0.600693821403     1.007825032230
         H           -2.911854307107    -1.617913978124     2.222441821403     1.007825032230
         H           -4.531045307107    -0.478700978124    -1.598565178597     1.007825032230
         H           -4.672613307107    -1.842308978124     0.477687821403     1.007825032230

  Basis Set: AUG-CC-PVTZ
    Blend: AUG-CC-PVTZ
  Basis Set: (AUG-CC-PVTZ AUX)
    Blend: AUG-CC-PVTZ-JKFIT
	 Reference Energy          =    -538.4872943988616498 [Eh]
	 Singles Energy            =      -0.0000000000000000 [Eh]
	 Same-Spin Energy          =      -0.6082023718280203 [Eh]
	 Opposite-Spin Energy      =      -1.9354783644991786 [Eh]
	 Correlation Energy        =      -2.5436807363271989 [Eh]
	 Total Energy              =    -541.0309751351888963 [Eh]

	 ================> DF-SCS-MP2 Energies <==================
	-----------------------------------------------------------
	 SCS Same-Spin Scale       =       0.3333333333333333 [-]
	 SCS Opposite-Spin Scale   =       1.2000000000000000 [-]
	 SCS Same-Spin Energy      =      -0.2027341239426734 [Eh]
	 SCS Opposite-Spin Energy  =      -2.3225740373990145 [Eh]
	 SCS Correlation Energy    =      -2.5253081613416879 [Eh]
	 SCS Total Energy          =    -541.0126025602033906 [Eh]
	-----------------------------------------------------------

  Dipole Moment: [D]
     X:     0.3127      Y:    -0.1005      Z:     0.0519     Total:     0.3325

*** Psi4 exiting successfully. Buy a developer a beer!
