                               Psi4 1.4a3.dev225

  ==> Input File <==

--------------------------------------------------------------------------
#psi4
#
memory 32 gb

molecule  {
0 1
  C       -0.5824800     1.6044310    -0.2213210
  C        0.7517090     0.8972820    -0.1584330
  C       -1.7393840     0.6486410    -0.0371650
  C        1.7237550     1.2518080     0.7820810
  C        1.0412590    -0.1412430    -1.0548500
  C        3.2457950    -0.4451680    -0.0684180
  C        2.8658884     0.5975529     0.7829218
  C        2.2676820    -0.7996710    -1.0091590
  C       -1.8261890    -0.1288690     1.1267200
  C       -2.7336970     0.5134260    -1.0120210
  C        4.5537390    -1.1898250     0.0022800
  C       -2.8866350    -1.0143110     1.3128170
  C       -3.7965280    -0.3760470    -0.8307700
  C       -3.8763200    -1.1410390     0.3331560
  H       -0.6887990     2.1194610    -1.1851540
  H       -0.6152960     2.3835930     0.5515720
  H        1.5214970     2.0586850     1.4854080
  H        0.2921320    -0.4400260    -1.7869590
  H        3.6942270     0.8828880     1.5683180
  H        2.4736480    -1.5998700    -1.7190670
  H       -1.0482340    -0.0434160     1.8839740
  H       -2.6776530     1.1110490    -1.9207770
  H        4.8944640    -1.4825890    -0.9952280
  H        5.3329890    -0.5734720     0.4595320
  H        4.4581780    -2.1030590     0.5999660
  H       -2.9412840    -1.6093450     2.2217140
  H       -4.5604750    -0.4701320    -1.5992930
  H       -4.7020430    -1.8337400     0.4769600
units angstrom
no_reorient  #important for SAPT in psi4, default
symmetry c1  #important for SAPT in psi4, default
}

set PROPERTIES_ORIGIN ["COM"]
properties('MP2/aug-cc-pvtz', properties = ['dipole'])
--------------------------------------------------------------------------

    Molecular point group: c1
  Charge       = 0
  Multiplicity = 1
  Basis Set: AUG-CC-PVTZ
    Blend: AUG-CC-PVTZ
  Basis Set: (AUG-CC-PVTZ AUX)
    Blend: AUG-CC-PVTZ-JKFIT

    Orbital Energies [Eh]
    ---------------------

    Doubly Occupied:

       1A    -11.241211     2A    -11.237858     3A    -11.237085
       4A    -11.235124     5A    -11.235046     6A    -11.234609
       7A    -11.231477     8A    -11.231245     9A    -11.229569
      10A    -11.229001    11A    -11.228571    12A    -11.226578
      13A    -11.225730    14A    -11.221682    15A     -1.165860
      16A     -1.148277    17A     -1.073273    18A     -1.028578
      19A     -1.012833    20A     -1.010180    21A     -0.959783
      22A     -0.897059    23A     -0.825430    24A     -0.819133
      25A     -0.806254    26A     -0.775255    27A     -0.693293
      28A     -0.670530    29A     -0.652744    30A     -0.635194
      31A     -0.626001    32A     -0.612649    33A     -0.582944
      34A     -0.576796    35A     -0.575750    36A     -0.569369
      37A     -0.555599    38A     -0.550280    39A     -0.529665
      40A     -0.506839    41A     -0.494459    42A     -0.487303
      43A     -0.480777    44A     -0.476997    45A     -0.458561
      46A     -0.343660    47A     -0.334682    48A     -0.330177
      49A     -0.305028

  @DF-RHF Final Energy:  -538.48138427673086

   => Energetics <=

    Nuclear Repulsion Energy =            787.6713951377698777
    One-Electron Energy =               -2290.6735544084294816
    Two-Electron Energy =                 964.5207749939287396
    Total Energy =                       -538.4813842767308643
  Basis Set: (AUG-CC-PVTZ AUX)
    Blend: AUG-CC-PVTZ-RI
    Molecular point group: c1

    Geometry (in Angstrom), charge = 0, multiplicity = 1:

       Center              X                  Y                   Z               Mass
    ------------   -----------------  -----------------  -----------------  -----------------
         C           -0.547221003218     1.595034886751    -0.218110581665    12.000000000000
         C            0.786967996782     0.887885886751    -0.155222581665    12.000000000000
         C           -1.704125003218     0.639244886751    -0.033954581665    12.000000000000
         C            1.759013996782     1.242411886751     0.785291418335    12.000000000000
         C            1.076517996782    -0.150639113249    -1.051639581665    12.000000000000
         C            3.281053996782    -0.454564113249    -0.065207581665    12.000000000000
         C            2.901147396782     0.588156786751     0.786132218335    12.000000000000
         C            2.302940996782    -0.809067113249    -1.005948581665    12.000000000000
         C           -1.790930003218    -0.138265113249     1.129930418335    12.000000000000
         C           -2.698438003218     0.504029886751    -1.008810581665    12.000000000000
         C            4.588997996782    -1.199221113249     0.005490418335    12.000000000000
         C           -2.851376003218    -1.023707113249     1.316027418335    12.000000000000
         C           -3.761269003218    -0.385443113249    -0.827559581665    12.000000000000
         C           -3.841061003218    -1.150435113249     0.336366418335    12.000000000000
         H           -0.653540003218     2.110064886751    -1.181943581665     1.007825032230
         H           -0.580037003218     2.374196886751     0.554782418335     1.007825032230
         H            1.556755996782     2.049288886751     1.488618418335     1.007825032230
         H            0.327390996782    -0.449422113249    -1.783748581665     1.007825032230
         H            3.729485996782     0.873491886751     1.571528418335     1.007825032230
         H            2.508906996782    -1.609266113249    -1.715856581665     1.007825032230
         H           -1.012975003218    -0.052812113249     1.887184418335     1.007825032230
         H           -2.642394003218     1.101652886751    -1.917566581665     1.007825032230
         H            4.929722996782    -1.491985113249    -0.992017581665     1.007825032230
         H            5.368247996782    -0.582868113249     0.462742418335     1.007825032230
         H            4.493436996782    -2.112455113249     0.603176418335     1.007825032230
         H           -2.906025003218    -1.618741113249     2.224924418335     1.007825032230
         H           -4.525216003218    -0.479528113249    -1.596082581665     1.007825032230
         H           -4.666784003218    -1.843136113249     0.480170418335     1.007825032230

  Basis Set: AUG-CC-PVTZ
    Blend: AUG-CC-PVTZ
  Basis Set: (AUG-CC-PVTZ AUX)
    Blend: AUG-CC-PVTZ-JKFIT
	 Reference Energy          =    -538.4813842767308643 [Eh]
	 Singles Energy            =      -0.0000000000000000 [Eh]
	 Same-Spin Energy          =      -0.6085885005497976 [Eh]
	 Opposite-Spin Energy      =      -1.9351289932316602 [Eh]
	 Correlation Energy        =      -2.5437174937814580 [Eh]
	 Total Energy              =    -541.0251017705123786 [Eh]

	 ================> DF-SCS-MP2 Energies <==================
	-----------------------------------------------------------
	 SCS Same-Spin Scale       =       0.3333333333333333 [-]
	 SCS Opposite-Spin Scale   =       1.2000000000000000 [-]
	 SCS Same-Spin Energy      =      -0.2028628335165992 [Eh]
	 SCS Opposite-Spin Energy  =      -2.3221547918779923 [Eh]
	 SCS Correlation Energy    =      -2.5250176253945917 [Eh]
	 SCS Total Energy          =    -541.0064019021255035 [Eh]
	-----------------------------------------------------------

  Dipole Moment: [D]
     X:     0.3600      Y:    -0.1635      Z:    -0.0347     Total:     0.3969

*** Psi4 exiting successfully. Buy a developer a beer!
