                               Psi4 1.4a3.dev225

  ==> Input File <==

--------------------------------------------------------------------------
#psi4
#
memory 32 gb

molecule  {
0 1
  C       -0.5824800     1.6044310    -0.2213210
  C        0.7517090     0.8972820    -0.1584330
  C       -1.7393840     0.6486410    -0.0371650
  C        1.7237550     1.2518080     0.7820810
  C        1.0412590    -0.1412430    -1.0548500
  C        3.2457950    -0.4451680    -0.0684180
  C        2.9517370     0.5872480     0.8282550
  C        2.2676820    -0.7996710    -1.0091590
  C       -1.8261890    -0.1288690     1.1267200
  C       -2.7336970     0.5134260    -1.0120210
  C        4.5537390    -1.1898250     0.0022800
  C       -2.8866350    -1.0143110     1.3128170
  C       -3.8725683    -0.4396844    -0.8178024
  C       -3.8763200    -1.1410390     0.3331560
  H       -0.6887990     2.1194610    -1.1851540
  H       -0.6152960     2.3835930     0.5515720
  H        1.5214970     2.0586850     1.4854080
  H        0.2921320    -0.4400260    -1.7869590
  H        3.6942270     0.8828880     1.5683180
  H        2.4736480    -1.5998700    -1.7190670
  H       -1.0482340    -0.0434160     1.8839740
  H       -2.6776530     1.1110490    -1.9207770
  H        4.8944640    -1.4825890    -0.9952280
  H        5.3329890    -0.5734720     0.4595320
  H        4.4581780    -2.1030590     0.5999660
  H       -2.9412840    -1.6093450     2.2217140
  H       -4.5604750    -0.4701320    -1.5992930
  H       -4.7020430    -1.8337400     0.4769600
units angstrom
no_reorient  #important for SAPT in psi4, default
symmetry c1  #important for SAPT in psi4, default
}

set PROPERTIES_ORIGIN ["COM"]
properties('MP2/aug-cc-pvtz', properties = ['dipole'])
--------------------------------------------------------------------------

    Molecular point group: c1
  Charge       = 0
  Multiplicity = 1
  Basis Set: AUG-CC-PVTZ
    Blend: AUG-CC-PVTZ
  Basis Set: (AUG-CC-PVTZ AUX)
    Blend: AUG-CC-PVTZ-JKFIT

    Orbital Energies [Eh]
    ---------------------

    Doubly Occupied:

       1A    -11.240956     2A    -11.239611     3A    -11.238436
       4A    -11.236796     5A    -11.235522     6A    -11.235212
       7A    -11.235072     8A    -11.231465     9A    -11.231252
      10A    -11.229818    11A    -11.229170    12A    -11.228589
      13A    -11.227560    14A    -11.223000    15A     -1.159307
      16A     -1.142971    17A     -1.075287    18A     -1.027548
      19A     -1.008246    20A     -1.001987    21A     -0.957708
      22A     -0.894837    23A     -0.832674    24A     -0.825612
      25A     -0.799114    26A     -0.774660    27A     -0.692592
      28A     -0.667574    29A     -0.647981    30A     -0.643930
      31A     -0.628343    32A     -0.615748    33A     -0.587956
      34A     -0.578730    35A     -0.573969    36A     -0.566241
      37A     -0.558441    38A     -0.548153    39A     -0.528497
      40A     -0.500923    41A     -0.498303    42A     -0.486173
      43A     -0.477411    44A     -0.474151    45A     -0.464160
      46A     -0.341348    47A     -0.331724    48A     -0.323214
      49A     -0.309783

  @DF-RHF Final Energy:  -538.48255242259722

   => Energetics <=

    Nuclear Repulsion Energy =            784.7674942958033171
    One-Electron Energy =               -2284.8845876690597834
    Two-Electron Energy =                 961.6345409506592432
    Total Energy =                       -538.4825524225972231
  Basis Set: (AUG-CC-PVTZ AUX)
    Blend: AUG-CC-PVTZ-RI
    Molecular point group: c1

    Geometry (in Angstrom), charge = 0, multiplicity = 1:

       Center              X                  Y                   Z               Mass
    ------------   -----------------  -----------------  -----------------  -----------------
         C           -0.547867315285     1.599907270423    -0.221952278041    12.000000000000
         C            0.786321684715     0.892758270423    -0.159064278041    12.000000000000
         C           -1.704771315285     0.644117270423    -0.037796278041    12.000000000000
         C            1.758367684715     1.247284270423     0.781449721959    12.000000000000
         C            1.075871684715    -0.145766729577    -1.055481278041    12.000000000000
         C            3.280407684715    -0.449691729577    -0.069049278041    12.000000000000
         C            2.986349684715     0.582724270423     0.827623721959    12.000000000000
         C            2.302294684715    -0.804194729577    -1.009790278041    12.000000000000
         C           -1.791576315285    -0.133392729577     1.126088721959    12.000000000000
         C           -2.699084315285     0.508902270423    -1.012652278041    12.000000000000
         C            4.588351684715    -1.194348729577     0.001648721959    12.000000000000
         C           -2.852022315285    -1.018834729577     1.312185721959    12.000000000000
         C           -3.837955615285    -0.444208129577    -0.818433678041    12.000000000000
         C           -3.841707315285    -1.145562729577     0.332524721959    12.000000000000
         H           -0.654186315285     2.114937270423    -1.185785278041     1.007825032230
         H           -0.580683315285     2.379069270423     0.550940721959     1.007825032230
         H            1.556109684715     2.054161270423     1.484776721959     1.007825032230
         H            0.326744684715    -0.444549729577    -1.787590278041     1.007825032230
         H            3.728839684715     0.878364270423     1.567686721959     1.007825032230
         H            2.508260684715    -1.604393729577    -1.719698278041     1.007825032230
         H           -1.013621315285    -0.047939729577     1.883342721959     1.007825032230
         H           -2.643040315285     1.106525270423    -1.921408278041     1.007825032230
         H            4.929076684715    -1.487112729577    -0.995859278041     1.007825032230
         H            5.367601684715    -0.577995729577     0.458900721959     1.007825032230
         H            4.492790684715    -2.107582729577     0.599334721959     1.007825032230
         H           -2.906671315285    -1.613868729577     2.221082721959     1.007825032230
         H           -4.525862315285    -0.474655729577    -1.599924278041     1.007825032230
         H           -4.667430315285    -1.838263729577     0.476328721959     1.007825032230

  Basis Set: AUG-CC-PVTZ
    Blend: AUG-CC-PVTZ
  Basis Set: (AUG-CC-PVTZ AUX)
    Blend: AUG-CC-PVTZ-JKFIT
	 Reference Energy          =    -538.4825524225972231 [Eh]
	 Singles Energy            =      -0.0000000000000000 [Eh]
	 Same-Spin Energy          =      -0.6078384022547582 [Eh]
	 Opposite-Spin Energy      =      -1.9354199591283889 [Eh]
	 Correlation Energy        =      -2.5432583613831472 [Eh]
	 Total Energy              =    -541.0258107839803188 [Eh]

	 ================> DF-SCS-MP2 Energies <==================
	-----------------------------------------------------------
	 SCS Same-Spin Scale       =       0.3333333333333333 [-]
	 SCS Opposite-Spin Scale   =       1.2000000000000000 [-]
	 SCS Same-Spin Energy      =      -0.2026128007515861 [Eh]
	 SCS Opposite-Spin Energy  =      -2.3225039509540668 [Eh]
	 SCS Correlation Energy    =      -2.5251167517056530 [Eh]
	 SCS Total Energy          =    -541.0076691743029187 [Eh]
	-----------------------------------------------------------

  Dipole Moment: [D]
     X:     0.3667      Y:    -0.1254      Z:    -0.0098     Total:     0.3877

*** Psi4 exiting successfully. Buy a developer a beer!
