                               Psi4 1.4a3.dev225

  ==> Input File <==

--------------------------------------------------------------------------
#psi4
#
memory 32 gb

molecule  {
0 1
  C       -0.5824800     1.6044310    -0.2213210
  C        0.7370039     0.9145510    -0.1494278
  C       -1.7393840     0.6486410    -0.0371650
  C        1.7237550     1.2518080     0.7820810
  C        1.0412590    -0.1412430    -1.0548500
  C        3.2457950    -0.4451680    -0.0684180
  C        2.9517370     0.5872480     0.8282550
  C        2.2676820    -0.7996710    -1.0091590
  C       -1.8261890    -0.1288690     1.1267200
  C       -2.7336970     0.5134260    -1.0120210
  C        4.5537390    -1.1898250     0.0022800
  C       -2.8866350    -1.0143110     1.3128170
  C       -3.7965280    -0.3760470    -0.8307700
  C       -3.8763200    -1.1410390     0.3331560
  H       -0.6887990     2.1194610    -1.1851540
  H       -0.6152960     2.3835930     0.5515720
  H        1.5214970     2.0586850     1.4854080
  H        0.2921320    -0.4400260    -1.7869590
  H        3.6942270     0.8828880     1.5683180
  H        2.4736480    -1.5998700    -1.7190670
  H       -1.0482340    -0.0434160     1.8839740
  H       -2.6776530     1.1110490    -1.9207770
  H        4.8944640    -1.4825890    -0.9952280
  H        5.3329890    -0.5734720     0.4595320
  H        4.4581780    -2.1030590     0.5999660
  H       -2.9412840    -1.6093450     2.2217140
  H       -4.5604750    -0.4701320    -1.5992930
  H       -4.7020430    -1.8337400     0.4769600
units angstrom
no_reorient  #important for SAPT in psi4, default
symmetry c1  #important for SAPT in psi4, default
}

set PROPERTIES_ORIGIN ["COM"]
properties('MP2/aug-cc-pvtz', properties = ['dipole'])
--------------------------------------------------------------------------

    Molecular point group: c1
  Charge       = 0
  Multiplicity = 1
  Basis Set: AUG-CC-PVTZ
    Blend: AUG-CC-PVTZ
  Basis Set: (AUG-CC-PVTZ AUX)
    Blend: AUG-CC-PVTZ-JKFIT

    Orbital Energies [Eh]
    ---------------------

    Doubly Occupied:

       1A    -11.241514     2A    -11.238641     3A    -11.238149
       4A    -11.235262     5A    -11.234850     6A    -11.234753
       7A    -11.231837     8A    -11.231677     9A    -11.231533
      10A    -11.231173    11A    -11.229724    12A    -11.229068
      13A    -11.228949    14A    -11.223032    15A     -1.160429
      16A     -1.144532    17A     -1.075632    18A     -1.023576
      19A     -1.010389    20A     -1.006858    21A     -0.959127
      22A     -0.896017    23A     -0.827396    24A     -0.822542
      25A     -0.803751    26A     -0.774043    27A     -0.693964
      28A     -0.667780    29A     -0.648660    30A     -0.635700
      31A     -0.629045    32A     -0.617633    33A     -0.583072
      34A     -0.576798    35A     -0.575379    36A     -0.569987
      37A     -0.561136    38A     -0.550120    39A     -0.527564
      40A     -0.502955    41A     -0.491447    42A     -0.490660
      43A     -0.477793    44A     -0.472778    45A     -0.470886
      46A     -0.336612    47A     -0.333818    48A     -0.329907
      49A     -0.305837

  @DF-RHF Final Energy:  -538.49255718273730

   => Energetics <=

    Nuclear Repulsion Energy =            785.8591999989532724
    One-Electron Energy =               -2287.0755444978103696
    Two-Electron Energy =                 962.7237873161197967
    Total Energy =                       -538.4925571827373005
  Basis Set: (AUG-CC-PVTZ AUX)
    Blend: AUG-CC-PVTZ-RI
    Molecular point group: c1

    Geometry (in Angstrom), charge = 0, multiplicity = 1:

       Center              X                  Y                   Z               Mass
    ------------   -----------------  -----------------  -----------------  -----------------
         C           -0.551908961636     1.594575991543    -0.221691178061    12.000000000000
         C            0.767574938364     0.904695991543    -0.149797978061    12.000000000000
         C           -1.708812961636     0.638785991543    -0.037535178061    12.000000000000
         C            1.754326038364     1.241952991543     0.781710821939    12.000000000000
         C            1.071830038364    -0.151098008457    -1.055220178061    12.000000000000
         C            3.276366038364    -0.455023008457    -0.068788178061    12.000000000000
         C            2.982308038364     0.577392991543     0.827884821939    12.000000000000
         C            2.298253038364    -0.809526008457    -1.009529178061    12.000000000000
         C           -1.795617961636    -0.138724008457     1.126349821939    12.000000000000
         C           -2.703125961636     0.503570991543    -1.012391178061    12.000000000000
         C            4.584310038364    -1.199680008457     0.001909821939    12.000000000000
         C           -2.856063961636    -1.024166008457     1.312446821939    12.000000000000
         C           -3.765956961636    -0.385902008457    -0.831140178061    12.000000000000
         C           -3.845748961636    -1.150894008457     0.332785821939    12.000000000000
         H           -0.658227961636     2.109605991543    -1.185524178061     1.007825032230
         H           -0.584724961636     2.373737991543     0.551201821939     1.007825032230
         H            1.552068038364     2.048829991543     1.485037821939     1.007825032230
         H            0.322703038364    -0.449881008457    -1.787329178061     1.007825032230
         H            3.724798038364     0.873032991543     1.567947821939     1.007825032230
         H            2.504219038364    -1.609725008457    -1.719437178061     1.007825032230
         H           -1.017662961636    -0.053271008457     1.883603821939     1.007825032230
         H           -2.647081961636     1.101193991543    -1.921147178061     1.007825032230
         H            4.925035038364    -1.492444008457    -0.995598178061     1.007825032230
         H            5.363560038364    -0.583327008457     0.459161821939     1.007825032230
         H            4.488749038364    -2.112914008457     0.599595821939     1.007825032230
         H           -2.910712961636    -1.619200008457     2.221343821939     1.007825032230
         H           -4.529903961636    -0.479987008457    -1.599663178061     1.007825032230
         H           -4.671471961636    -1.843595008457     0.476589821939     1.007825032230

  Basis Set: AUG-CC-PVTZ
    Blend: AUG-CC-PVTZ
  Basis Set: (AUG-CC-PVTZ AUX)
    Blend: AUG-CC-PVTZ-JKFIT
	 Reference Energy          =    -538.4925571827373005 [Eh]
	 Singles Energy            =      -0.0000000000000000 [Eh]
	 Same-Spin Energy          =      -0.6083847994305823 [Eh]
	 Opposite-Spin Energy      =      -1.9351028047623902 [Eh]
	 Correlation Energy        =      -2.5434876041929724 [Eh]
	 Total Energy              =    -541.0360447869302334 [Eh]

	 ================> DF-SCS-MP2 Energies <==================
	-----------------------------------------------------------
	 SCS Same-Spin Scale       =       0.3333333333333333 [-]
	 SCS Opposite-Spin Scale   =       1.2000000000000000 [-]
	 SCS Same-Spin Energy      =      -0.2027949331435274 [Eh]
	 SCS Opposite-Spin Energy  =      -2.3221233657148681 [Eh]
	 SCS Correlation Energy    =      -2.5249182988583954 [Eh]
	 SCS Total Energy          =    -541.0174754815957385 [Eh]
	-----------------------------------------------------------

  Dipole Moment: [D]
     X:     0.3316      Y:    -0.1323      Z:     0.0059     Total:     0.3571

*** Psi4 exiting successfully. Buy a developer a beer!
