                               Psi4 1.4a3.dev225

  ==> Input File <==

--------------------------------------------------------------------------
#psi4
#
memory 32 gb

molecule  {
0 1
  C       -0.5824800     1.6044310    -0.2213210
  C        0.7517090     0.8972820    -0.1584330
  C       -1.7393840     0.6486410    -0.0371650
  C        1.7237550     1.2518080     0.7820810
  C        1.0412590    -0.1412430    -1.0548500
  C        3.2457950    -0.4451680    -0.0684180
  C        2.9517370     0.5872480     0.8282550
  C        2.2676820    -0.7996710    -1.0091590
  C       -1.8261890    -0.1288690     1.1267200
  C       -2.7336970     0.5134260    -1.0120210
  C        4.5537390    -1.1898250     0.0022800
  C       -2.8866350    -1.0143110     1.3128170
  C       -3.7965280    -0.3760470    -0.8307700
  C       -3.8763200    -1.1410390     0.3331560
  H       -0.6887990     2.1194610    -1.1851540
  H       -0.6152960     2.3835930     0.5515720
  H        1.5214970     2.0586850     1.4854080
  H        0.2921320    -0.4400260    -1.7869590
  H        3.6942270     0.8828880     1.5683180
  H        2.4736480    -1.5998700    -1.7190670
  H       -1.0482340    -0.0434160     1.8839740
  H       -2.6776530     1.1110490    -1.9207770
  H        4.8944640    -1.4825890    -0.9952280
  H        5.3329890    -0.5734720     0.4595320
  H        4.4581780    -2.1030590     0.5999660
  H       -2.9412840    -1.6093450     2.2217140
  H       -4.5604750    -0.4701320    -1.5992930
  H       -4.6640735    -1.8018873     0.4703474
units angstrom
no_reorient  #important for SAPT in psi4, default
symmetry c1  #important for SAPT in psi4, default
}

set PROPERTIES_ORIGIN ["COM"]
properties('MP2/aug-cc-pvtz', properties = ['dipole'])
--------------------------------------------------------------------------

    Molecular point group: c1
  Charge       = 0
  Multiplicity = 1
  Basis Set: AUG-CC-PVTZ
    Blend: AUG-CC-PVTZ
  Basis Set: (AUG-CC-PVTZ AUX)
    Blend: AUG-CC-PVTZ-JKFIT

    Orbital Energies [Eh]
    ---------------------

    Doubly Occupied:

       1A    -11.240907     2A    -11.238310     3A    -11.236856
       4A    -11.235165     5A    -11.234516     6A    -11.234043
       7A    -11.231126     8A    -11.231112     9A    -11.229825
      10A    -11.229102    11A    -11.229087    12A    -11.228598
      13A    -11.225455    14A    -11.222933    15A     -1.160571
      16A     -1.145249    17A     -1.074039    18A     -1.024743
      19A     -1.009845    20A     -1.008054    21A     -0.958104
      22A     -0.896922    23A     -0.828032    24A     -0.822645
      25A     -0.804986    26A     -0.774858    27A     -0.697507
      28A     -0.668482    29A     -0.648568    30A     -0.635843
      31A     -0.628742    32A     -0.617515    33A     -0.582583
      34A     -0.578817    35A     -0.576185    36A     -0.571619
      37A     -0.559918    38A     -0.548361    39A     -0.528229
      40A     -0.504005    41A     -0.491725    42A     -0.490026
      43A     -0.477489    44A     -0.473405    45A     -0.471623
      46A     -0.336928    47A     -0.333466    48A     -0.329151
      49A     -0.307194

  @DF-RHF Final Energy:  -538.49304727130470

   => Energetics <=

    Nuclear Repulsion Energy =            786.2355137732623689
    One-Electron Energy =               -2287.8321929866851860
    Two-Electron Energy =                 963.1036319421179996
    Total Energy =                       -538.4930472713047038
  Basis Set: (AUG-CC-PVTZ AUX)
    Blend: AUG-CC-PVTZ-RI
    Molecular point group: c1

    Geometry (in Angstrom), charge = 0, multiplicity = 1:

       Center              X                  Y                   Z               Mass
    ------------   -----------------  -----------------  -----------------  -----------------
         C           -0.553088075043     1.595537643753    -0.221061190542    12.000000000000
         C            0.781100924957     0.888388643753    -0.158173190542    12.000000000000
         C           -1.709992075043     0.639747643753    -0.036905190542    12.000000000000
         C            1.753146924957     1.242914643753     0.782340809458    12.000000000000
         C            1.070650924957    -0.150136356247    -1.054590190542    12.000000000000
         C            3.275186924957    -0.454061356247    -0.068158190542    12.000000000000
         C            2.981128924957     0.578354643753     0.828514809458    12.000000000000
         C            2.297073924957    -0.808564356247    -1.008899190542    12.000000000000
         C           -1.796797075043    -0.137762356247     1.126979809458    12.000000000000
         C           -2.704305075043     0.504532643753    -1.011761190542    12.000000000000
         C            4.583130924957    -1.198718356247     0.002539809458    12.000000000000
         C           -2.857243075043    -1.023204356247     1.313076809458    12.000000000000
         C           -3.767136075043    -0.384940356247    -0.830510190542    12.000000000000
         C           -3.846928075043    -1.149932356247     0.333415809458    12.000000000000
         H           -0.659407075043     2.110567643753    -1.184894190542     1.007825032230
         H           -0.585904075043     2.374699643753     0.551831809458     1.007825032230
         H            1.550888924957     2.049791643753     1.485667809458     1.007825032230
         H            0.321523924957    -0.448919356247    -1.786699190542     1.007825032230
         H            3.723618924957     0.873994643753     1.568577809458     1.007825032230
         H            2.503039924957    -1.608763356247    -1.718807190542     1.007825032230
         H           -1.018842075043    -0.052309356247     1.884233809458     1.007825032230
         H           -2.648261075043     1.102155643753    -1.920517190542     1.007825032230
         H            4.923855924957    -1.491482356247    -0.994968190542     1.007825032230
         H            5.362380924957    -0.582365356247     0.459791809458     1.007825032230
         H            4.487569924957    -2.111952356247     0.600225809458     1.007825032230
         H           -2.911892075043    -1.618238356247     2.221973809458     1.007825032230
         H           -4.531083075043    -0.479025356247    -1.599033190542     1.007825032230
         H           -4.634681575043    -1.810780656247     0.470607209458     1.007825032230

  Basis Set: AUG-CC-PVTZ
    Blend: AUG-CC-PVTZ
  Basis Set: (AUG-CC-PVTZ AUX)
    Blend: AUG-CC-PVTZ-JKFIT
	 Reference Energy          =    -538.4930472713047038 [Eh]
	 Singles Energy            =      -0.0000000000000000 [Eh]
	 Same-Spin Energy          =      -0.6081201066822334 [Eh]
	 Opposite-Spin Energy      =      -1.9344339499968184 [Eh]
	 Correlation Energy        =      -2.5425540566790517 [Eh]
	 Total Energy              =    -541.0356013279837271 [Eh]

	 ================> DF-SCS-MP2 Energies <==================
	-----------------------------------------------------------
	 SCS Same-Spin Scale       =       0.3333333333333333 [-]
	 SCS Opposite-Spin Scale   =       1.2000000000000000 [-]
	 SCS Same-Spin Energy      =      -0.2027067022274111 [Eh]
	 SCS Opposite-Spin Energy  =      -2.3213207399961822 [Eh]
	 SCS Correlation Energy    =      -2.5240274422235931 [Eh]
	 SCS Total Energy          =    -541.0170747135282454 [Eh]
	-----------------------------------------------------------

  Dipole Moment: [D]
     X:     0.3457      Y:    -0.1411      Z:     0.0127     Total:     0.3736

*** Psi4 exiting successfully. Buy a developer a beer!
