                               Psi4 1.4a3.dev225

  ==> Input File <==

--------------------------------------------------------------------------
#psi4
#
memory 32 gb

molecule  {
0 1
  C       -0.5824800     1.6044310    -0.2213210
  C        0.7517090     0.8972820    -0.1584330
  C       -1.7393840     0.6486410    -0.0371650
  C        1.7237550     1.2518080     0.7820810
  C        1.0412590    -0.1412430    -1.0548500
  C        3.2457950    -0.4451680    -0.0684180
  C        2.9517370     0.5872480     0.8282550
  C        2.2676820    -0.7996710    -1.0091590
  C       -1.8261890    -0.1288690     1.1267200
  C       -2.7336970     0.5134260    -1.0120210
  C        4.5537390    -1.1898250     0.0022800
  C       -2.8866350    -1.0143110     1.3128170
  C       -3.7965280    -0.3760470    -0.8307700
  C       -3.8763200    -1.1410390     0.3331560
  H       -0.6887990     2.1194610    -1.1851540
  H       -0.6152960     2.3835930     0.5515720
  H        1.5214970     2.0586850     1.4854080
  H        0.2921320    -0.4400260    -1.7869590
  H        3.6942270     0.8828880     1.5683180
  H        2.4736480    -1.5998700    -1.7190670
  H       -1.0482340    -0.0434160     1.8839740
  H       -2.6776530     1.1110490    -1.9207770
  H        4.8944640    -1.4825890    -0.9952280
  H        5.3329890    -0.5734720     0.4595320
  H        4.4581780    -2.1030590     0.5999660
  H       -2.9437961    -1.6366972     2.2634937
  H       -4.5604750    -0.4701320    -1.5992930
  H       -4.7020430    -1.8337400     0.4769600
units angstrom
no_reorient  #important for SAPT in psi4, default
symmetry c1  #important for SAPT in psi4, default
}

set PROPERTIES_ORIGIN ["COM"]
properties('MP2/aug-cc-pvtz', properties = ['dipole'])
--------------------------------------------------------------------------

    Molecular point group: c1
  Charge       = 0
  Multiplicity = 1
  Basis Set: AUG-CC-PVTZ
    Blend: AUG-CC-PVTZ
  Basis Set: (AUG-CC-PVTZ AUX)
    Blend: AUG-CC-PVTZ-JKFIT

    Orbital Energies [Eh]
    ---------------------

    Doubly Occupied:

       1A    -11.241439     2A    -11.240248     3A    -11.238444
       4A    -11.237036     5A    -11.235487     6A    -11.235380
       7A    -11.231934     8A    -11.231633     9A    -11.231268
      10A    -11.229971    11A    -11.229967    12A    -11.229218
      13A    -11.228743    14A    -11.223020    15A     -1.160774
      16A     -1.145326    17A     -1.073834    18A     -1.023945
      19A     -1.009305    20A     -1.008119    21A     -0.957410
      22A     -0.896379    23A     -0.827873    24A     -0.821219
      25A     -0.802028    26A     -0.774318    27A     -0.692257
      28A     -0.667973    29A     -0.648475    30A     -0.633302
      31A     -0.627279    32A     -0.616557    33A     -0.580632
      34A     -0.578836    35A     -0.574810    36A     -0.569283
      37A     -0.559998    38A     -0.548571    39A     -0.528140
      40A     -0.502973    41A     -0.490968    42A     -0.488904
      43A     -0.477682    44A     -0.473260    45A     -0.471238
      46A     -0.337294    47A     -0.333930    48A     -0.329450
      49A     -0.307466

  @DF-RHF Final Energy:  -538.49137938627314

   => Energetics <=

    Nuclear Repulsion Energy =            785.7123526976220091
    One-Electron Energy =               -2286.8002780739434456
    Two-Electron Energy =                 962.5965459900482983
    Total Energy =                       -538.4913793862731382
  Basis Set: (AUG-CC-PVTZ AUX)
    Blend: AUG-CC-PVTZ-RI
    Molecular point group: c1

    Geometry (in Angstrom), charge = 0, multiplicity = 1:

       Center              X                  Y                   Z               Mass
    ------------   -----------------  -----------------  -----------------  -----------------
         C           -0.552864043027     1.595865293677    -0.221329001710    12.000000000000
         C            0.781324956973     0.888716293677    -0.158441001710    12.000000000000
         C           -1.709768043027     0.640075293677    -0.037173001710    12.000000000000
         C            1.753370956973     1.243242293677     0.782072998290    12.000000000000
         C            1.070874956973    -0.149808706323    -1.054858001710    12.000000000000
         C            3.275410956973    -0.453733706323    -0.068426001710    12.000000000000
         C            2.981352956973     0.578682293677     0.828246998290    12.000000000000
         C            2.297297956973    -0.808236706323    -1.009167001710    12.000000000000
         C           -1.796573043027    -0.137434706323     1.126711998290    12.000000000000
         C           -2.704081043027     0.504860293677    -1.012029001710    12.000000000000
         C            4.583354956973    -1.198390706323     0.002271998290    12.000000000000
         C           -2.857019043027    -1.022876706323     1.312808998290    12.000000000000
         C           -3.766912043027    -0.384612706323    -0.830778001710    12.000000000000
         C           -3.846704043027    -1.149604706323     0.333147998290    12.000000000000
         H           -0.659183043027     2.110895293677    -1.185162001710     1.007825032230
         H           -0.585680043027     2.375027293677     0.551563998290     1.007825032230
         H            1.551112956973     2.050119293677     1.485399998290     1.007825032230
         H            0.321747956973    -0.448591706323    -1.786967001710     1.007825032230
         H            3.723842956973     0.874322293677     1.568309998290     1.007825032230
         H            2.503263956973    -1.608435706323    -1.719075001710     1.007825032230
         H           -1.018618043027    -0.051981706323     1.883965998290     1.007825032230
         H           -2.648037043027     1.102483293677    -1.920785001710     1.007825032230
         H            4.924079956973    -1.491154706323    -0.995236001710     1.007825032230
         H            5.362604956973    -0.582037706323     0.459523998290     1.007825032230
         H            4.487793956973    -2.111624706323     0.599957998290     1.007825032230
         H           -2.914180143027    -1.645262906323     2.263485698290     1.007825032230
         H           -4.530859043027    -0.478697706323    -1.599301001710     1.007825032230
         H           -4.672427043027    -1.842305706323     0.476951998290     1.007825032230

  Basis Set: AUG-CC-PVTZ
    Blend: AUG-CC-PVTZ
  Basis Set: (AUG-CC-PVTZ AUX)
    Blend: AUG-CC-PVTZ-JKFIT
	 Reference Energy          =    -538.4913793862731382 [Eh]
	 Singles Energy            =      -0.0000000000000000 [Eh]
	 Same-Spin Energy          =      -0.6082915802415115 [Eh]
	 Opposite-Spin Energy      =      -1.9351726656880388 [Eh]
	 Correlation Energy        =      -2.5434642459295502 [Eh]
	 Total Energy              =    -541.0348436322026373 [Eh]

	 ================> DF-SCS-MP2 Energies <==================
	-----------------------------------------------------------
	 SCS Same-Spin Scale       =       0.3333333333333333 [-]
	 SCS Opposite-Spin Scale   =       1.2000000000000000 [-]
	 SCS Same-Spin Energy      =      -0.2027638600805038 [Eh]
	 SCS Opposite-Spin Energy  =      -2.3222071988256463 [Eh]
	 SCS Correlation Energy    =      -2.5249710589061500 [Eh]
	 SCS Total Energy          =    -541.0163504451793415 [Eh]
	-----------------------------------------------------------

  Dipole Moment: [D]
     X:     0.3695      Y:    -0.1169      Z:    -0.0094     Total:     0.3877

*** Psi4 exiting successfully. Buy a developer a beer!
