                               Psi4 1.4a3.dev225

  ==> Input File <==

--------------------------------------------------------------------------
#psi4
#
memory 32 gb

molecule  {
0 1
  C       -0.5824800     1.6044310    -0.2213210
  C        0.7517090     0.8972820    -0.1584330
  C       -1.7393840     0.6486410    -0.0371650
  C        1.7237550     1.2518080     0.7820810
  C        1.0412590    -0.1412430    -1.0548500
  C        3.2457950    -0.4451680    -0.0684180
  C        2.9517370     0.5872480     0.8282550
  C        2.2676820    -0.7996710    -1.0091590
  C       -1.8261890    -0.1288690     1.1267200
  C       -2.7336970     0.5134260    -1.0120210
  C        4.5537390    -1.1898250     0.0022800
  C       -2.8866350    -1.0143110     1.3128170
  C       -3.7585079    -0.3442283    -0.8372538
  C       -3.8763200    -1.1410390     0.3331560
  H       -0.6887990     2.1194610    -1.1851540
  H       -0.6152960     2.3835930     0.5515720
  H        1.5214970     2.0586850     1.4854080
  H        0.2921320    -0.4400260    -1.7869590
  H        3.6942270     0.8828880     1.5683180
  H        2.4736480    -1.5998700    -1.7190670
  H       -1.0482340    -0.0434160     1.8839740
  H       -2.6776530     1.1110490    -1.9207770
  H        4.8944640    -1.4825890    -0.9952280
  H        5.3329890    -0.5734720     0.4595320
  H        4.4581780    -2.1030590     0.5999660
  H       -2.9412840    -1.6093450     2.2217140
  H       -4.5604750    -0.4701320    -1.5992930
  H       -4.7020430    -1.8337400     0.4769600
units angstrom
no_reorient  #important for SAPT in psi4, default
symmetry c1  #important for SAPT in psi4, default
}

set PROPERTIES_ORIGIN ["COM"]
properties('MP2/aug-cc-pvtz', properties = ['dipole'])
--------------------------------------------------------------------------

    Molecular point group: c1
  Charge       = 0
  Multiplicity = 1
  Basis Set: AUG-CC-PVTZ
    Blend: AUG-CC-PVTZ
  Basis Set: (AUG-CC-PVTZ AUX)
    Blend: AUG-CC-PVTZ-JKFIT

    Orbital Energies [Eh]
    ---------------------

    Doubly Occupied:

       1A    -11.241301     2A    -11.238360     3A    -11.237027
       4A    -11.235322     5A    -11.234724     6A    -11.234171
       7A    -11.233020     8A    -11.231168     9A    -11.229959
      10A    -11.229162    11A    -11.228731    12A    -11.228526
      13A    -11.226183    14A    -11.222982    15A     -1.161894
      16A     -1.146757    17A     -1.073283    18A     -1.022910
      19A     -1.015366    20A     -1.008196    21A     -0.956457
      22A     -0.896855    23A     -0.827597    24A     -0.819161
      25A     -0.805381    26A     -0.774701    27A     -0.693872
      28A     -0.668011    29A     -0.648814    30A     -0.634354
      31A     -0.627396    32A     -0.618104    33A     -0.583213
      34A     -0.578720    35A     -0.575244    36A     -0.568450
      37A     -0.560200    38A     -0.548390    39A     -0.527825
      40A     -0.505456    41A     -0.493414    42A     -0.485114
      43A     -0.477846    44A     -0.472707    45A     -0.471403
      46A     -0.341208    47A     -0.335011    48A     -0.327695
      49A     -0.305660

  @DF-RHF Final Energy:  -538.49059077644279

   => Energetics <=

    Nuclear Repulsion Energy =            786.6127613614265783
    One-Electron Energy =               -2288.5921008522418560
    Two-Electron Energy =                 963.4887487143723774
    Total Energy =                       -538.4905907764427866
  Basis Set: (AUG-CC-PVTZ AUX)
    Blend: AUG-CC-PVTZ-RI
    Molecular point group: c1

    Geometry (in Angstrom), charge = 0, multiplicity = 1:

       Center              X                  Y                   Z               Mass
    ------------   -----------------  -----------------  -----------------  -----------------
         C           -0.555383257182     1.593617247757    -0.220670539662    12.000000000000
         C            0.778805742818     0.886468247757    -0.157782539662    12.000000000000
         C           -1.712287257182     0.637827247757    -0.036514539662    12.000000000000
         C            1.750851742818     1.240994247757     0.782731460338    12.000000000000
         C            1.068355742818    -0.152056752243    -1.054199539662    12.000000000000
         C            3.272891742818    -0.455981752243    -0.067767539662    12.000000000000
         C            2.978833742818     0.576434247757     0.828905460338    12.000000000000
         C            2.294778742818    -0.810484752243    -1.008508539662    12.000000000000
         C           -1.799092257182    -0.139682752243     1.127370460338    12.000000000000
         C           -2.706600257182     0.502612247757    -1.011370539662    12.000000000000
         C            4.580835742818    -1.200638752243     0.002930460338    12.000000000000
         C           -2.859538257182    -1.025124752243     1.313467460338    12.000000000000
         C           -3.731411157182    -0.355042052243    -0.836603339662    12.000000000000
         C           -3.849223257182    -1.151852752243     0.333806460338    12.000000000000
         H           -0.661702257182     2.108647247757    -1.184503539662     1.007825032230
         H           -0.588199257182     2.372779247757     0.552222460338     1.007825032230
         H            1.548593742818     2.047871247757     1.486058460338     1.007825032230
         H            0.319228742818    -0.450839752243    -1.786308539662     1.007825032230
         H            3.721323742818     0.872074247757     1.568968460338     1.007825032230
         H            2.500744742818    -1.610683752243    -1.718416539662     1.007825032230
         H           -1.021137257182    -0.054229752243     1.884624460338     1.007825032230
         H           -2.650556257182     1.100235247757    -1.920126539662     1.007825032230
         H            4.921560742818    -1.493402752243    -0.994577539662     1.007825032230
         H            5.360085742818    -0.584285752243     0.460182460338     1.007825032230
         H            4.485274742818    -2.113872752243     0.600616460338     1.007825032230
         H           -2.914187257182    -1.620158752243     2.222364460338     1.007825032230
         H           -4.533378257182    -0.480945752243    -1.598642539662     1.007825032230
         H           -4.674946257182    -1.844553752243     0.477610460338     1.007825032230

  Basis Set: AUG-CC-PVTZ
    Blend: AUG-CC-PVTZ
  Basis Set: (AUG-CC-PVTZ AUX)
    Blend: AUG-CC-PVTZ-JKFIT
	 Reference Energy          =    -538.4905907764427866 [Eh]
	 Singles Energy            =      -0.0000000000000000 [Eh]
	 Same-Spin Energy          =      -0.6082799895580215 [Eh]
	 Opposite-Spin Energy      =      -1.9348281111938426 [Eh]
	 Correlation Energy        =      -2.5431081007518639 [Eh]
	 Total Energy              =    -541.0336988771946380 [Eh]

	 ================> DF-SCS-MP2 Energies <==================
	-----------------------------------------------------------
	 SCS Same-Spin Scale       =       0.3333333333333333 [-]
	 SCS Opposite-Spin Scale   =       1.2000000000000000 [-]
	 SCS Same-Spin Energy      =      -0.2027599965193405 [Eh]
	 SCS Opposite-Spin Energy  =      -2.3217937334326111 [Eh]
	 SCS Correlation Energy    =      -2.5245537299519514 [Eh]
	 SCS Total Energy          =    -541.0151445063947904 [Eh]
	-----------------------------------------------------------

  Dipole Moment: [D]
     X:     0.3634      Y:    -0.1323      Z:     0.0240     Total:     0.3875

*** Psi4 exiting successfully. Buy a developer a beer!
