                               Psi4 1.4a3.dev225

  ==> Input File <==

--------------------------------------------------------------------------
#psi4
#
memory 32 gb

molecule  {
0 1
  C       -0.5824800     1.6044310    -0.2213210
  C        0.7517090     0.8972820    -0.1584330
  C       -1.7393840     0.6486410    -0.0371650
  C        1.7237550     1.2518080     0.7820810
  C        1.0412590    -0.1412430    -1.0548500
  C        3.2457950    -0.4451680    -0.0684180
  C        2.9517370     0.5872480     0.8282550
  C        2.2676820    -0.7996710    -1.0091590
  C       -1.8261890    -0.1288690     1.1267200
  C       -2.7336970     0.5134260    -1.0120210
  C        4.5537390    -1.1898250     0.0022800
  C       -2.7344887    -0.8872732     1.2861169
  C       -3.7965280    -0.3760470    -0.8307700
  C       -3.8763200    -1.1410390     0.3331560
  H       -0.6887990     2.1194610    -1.1851540
  H       -0.6152960     2.3835930     0.5515720
  H        1.5214970     2.0586850     1.4854080
  H        0.2921320    -0.4400260    -1.7869590
  H        3.6942270     0.8828880     1.5683180
  H        2.4736480    -1.5998700    -1.7190670
  H       -1.0482340    -0.0434160     1.8839740
  H       -2.6776530     1.1110490    -1.9207770
  H        4.8944640    -1.4825890    -0.9952280
  H        5.3329890    -0.5734720     0.4595320
  H        4.4581780    -2.1030590     0.5999660
  H       -2.9412840    -1.6093450     2.2217140
  H       -4.5604750    -0.4701320    -1.5992930
  H       -4.7020430    -1.8337400     0.4769600
units angstrom
no_reorient  #important for SAPT in psi4, default
symmetry c1  #important for SAPT in psi4, default
}

set PROPERTIES_ORIGIN ["COM"]
properties('MP2/aug-cc-pvtz', properties = ['dipole'])
--------------------------------------------------------------------------

    Molecular point group: c1
  Charge       = 0
  Multiplicity = 1
  Basis Set: AUG-CC-PVTZ
    Blend: AUG-CC-PVTZ
  Basis Set: (AUG-CC-PVTZ AUX)
    Blend: AUG-CC-PVTZ-JKFIT

    Orbital Energies [Eh]
    ---------------------

    Doubly Occupied:

       1A    -11.243207     2A    -11.239242     3A    -11.239175
       4A    -11.237580     5A    -11.235886     6A    -11.233668
       7A    -11.232021     8A    -11.230578     9A    -11.229864
      10A    -11.229350    11A    -11.228504    12A    -11.227952
      13A    -11.223476    14A    -11.203004    15A     -1.171406
      16A     -1.151550    17A     -1.072960    18A     -1.039515
      19A     -1.017298    20A     -1.008778    21A     -0.953435
      22A     -0.896977    23A     -0.827845    24A     -0.813438
      25A     -0.803861    26A     -0.777065    27A     -0.696071
      28A     -0.669245    29A     -0.651064    30A     -0.638623
      31A     -0.626369    32A     -0.610174    33A     -0.590398
      34A     -0.579356    35A     -0.574951    36A     -0.562419
      37A     -0.559065    38A     -0.549645    39A     -0.531258
      40A     -0.513261    41A     -0.500282    42A     -0.480852
      43A     -0.478435    44A     -0.474701    45A     -0.441471
      46A     -0.365390    47A     -0.334494    48A     -0.322488
      49A     -0.303717

  @DF-RHF Final Energy:  -538.43154230000903

   => Energetics <=

    Nuclear Repulsion Energy =            789.0613579318037409
    One-Electron Energy =               -2293.3430620041067414
    Two-Electron Energy =                 965.8501617722939727
    Total Energy =                       -538.4315423000090277
  Basis Set: (AUG-CC-PVTZ AUX)
    Blend: AUG-CC-PVTZ-RI
    Molecular point group: c1

    Geometry (in Angstrom), charge = 0, multiplicity = 1:

       Center              X                  Y                   Z               Mass
    ------------   -----------------  -----------------  -----------------  -----------------
         C           -0.562903534930     1.587342842064    -0.219338398655    12.000000000000
         C            0.771285465070     0.880193842064    -0.156450398655    12.000000000000
         C           -1.719807534930     0.631552842064    -0.035182398655    12.000000000000
         C            1.743331465070     1.234719842064     0.784063601345    12.000000000000
         C            1.060835465070    -0.158331157936    -1.052867398655    12.000000000000
         C            3.265371465070    -0.462256157936    -0.066435398655    12.000000000000
         C            2.971313465070     0.570159842064     0.830237601345    12.000000000000
         C            2.287258465070    -0.816759157936    -1.007176398655    12.000000000000
         C           -1.806612534930    -0.145957157936     1.128702601345    12.000000000000
         C           -2.714120534930     0.496337842064    -1.010038398655    12.000000000000
         C            4.573315465070    -1.206913157936     0.004262601345    12.000000000000
         C           -2.714912234930    -0.904361357936     1.288099501345    12.000000000000
         C           -3.776951534930    -0.393135157936    -0.828787398655    12.000000000000
         C           -3.856743534930    -1.158127157936     0.335138601345    12.000000000000
         H           -0.669222534930     2.102372842064    -1.183171398655     1.007825032230
         H           -0.595719534930     2.366504842064     0.553554601345     1.007825032230
         H            1.541073465070     2.041596842064     1.487390601345     1.007825032230
         H            0.311708465070    -0.457114157936    -1.784976398655     1.007825032230
         H            3.713803465070     0.865799842064     1.570300601345     1.007825032230
         H            2.493224465070    -1.616958157936    -1.717084398655     1.007825032230
         H           -1.028657534930    -0.060504157936     1.885956601345     1.007825032230
         H           -2.658076534930     1.093960842064    -1.918794398655     1.007825032230
         H            4.914040465070    -1.499677157936    -0.993245398655     1.007825032230
         H            5.352565465070    -0.590560157936     0.461514601345     1.007825032230
         H            4.477754465070    -2.120147157936     0.601948601345     1.007825032230
         H           -2.921707534930    -1.626433157936     2.223696601345     1.007825032230
         H           -4.540898534930    -0.487220157936    -1.597310398655     1.007825032230
         H           -4.682466534930    -1.850828157936     0.478942601345     1.007825032230

  Basis Set: AUG-CC-PVTZ
    Blend: AUG-CC-PVTZ
  Basis Set: (AUG-CC-PVTZ AUX)
    Blend: AUG-CC-PVTZ-JKFIT
	 Reference Energy          =    -538.4315423000090277 [Eh]
	 Singles Energy            =      -0.0000000000000000 [Eh]
	 Same-Spin Energy          =      -0.6074878275617449 [Eh]
	 Opposite-Spin Energy      =      -1.9360741182435874 [Eh]
	 Correlation Energy        =      -2.5435619458053322 [Eh]
	 Total Energy              =    -540.9751042458143502 [Eh]

	 ================> DF-SCS-MP2 Energies <==================
	-----------------------------------------------------------
	 SCS Same-Spin Scale       =       0.3333333333333333 [-]
	 SCS Opposite-Spin Scale   =       1.2000000000000000 [-]
	 SCS Same-Spin Energy      =      -0.2024959425205816 [Eh]
	 SCS Opposite-Spin Energy  =      -2.3232889418923048 [Eh]
	 SCS Correlation Energy    =      -2.5257848844128863 [Eh]
	 SCS Total Energy          =    -540.9573271844219562 [Eh]
	-----------------------------------------------------------

  Dipole Moment: [D]
     X:     0.3743      Y:    -0.0865      Z:    -0.0737     Total:     0.3912

*** Psi4 exiting successfully. Buy a developer a beer!
