                               Psi4 1.4a3.dev225

  ==> Input File <==

--------------------------------------------------------------------------
#psi4
#
memory 32 gb

molecule  {
0 1
  C       -0.5824800     1.6044310    -0.2213210
  C        0.7517090     0.8972820    -0.1584330
  C       -1.7393840     0.6486410    -0.0371650
  C        1.7237550     1.2518080     0.7820810
  C        1.0412590    -0.1412430    -1.0548500
  C        3.2457950    -0.4451680    -0.0684180
  C        2.9517370     0.5872480     0.8282550
  C        2.2676820    -0.7996710    -1.0091590
  C       -1.8261890    -0.1288690     1.1267200
  C       -2.7336970     0.5134260    -1.0120210
  C        4.5537390    -1.1898250     0.0022800
  C       -2.8866350    -1.0143110     1.3128170
  C       -3.7965280    -0.3760470    -0.8307700
  C       -3.8763200    -1.1410390     0.3331560
  H       -0.6887990     2.1194610    -1.1851540
  H       -0.6152960     2.3835930     0.5515720
  H        1.5214970     2.0586850     1.4854080
  H        0.2921320    -0.4400260    -1.7869590
  H        3.6942270     0.8828880     1.5683180
  H        2.4736480    -1.5998700    -1.7190670
  H       -1.0482340    -0.0434160     1.8839740
  H       -2.6776530     1.1110490    -1.9207770
  H        4.8944640    -1.4825890    -0.9952280
  H        5.3329890    -0.5734720     0.4595320
  H        4.4599224    -2.0863882     0.5890554
  H       -2.9412840    -1.6093450     2.2217140
  H       -4.5604750    -0.4701320    -1.5992930
  H       -4.7020430    -1.8337400     0.4769600
units angstrom
no_reorient  #important for SAPT in psi4, default
symmetry c1  #important for SAPT in psi4, default
}

set PROPERTIES_ORIGIN ["COM"]
properties('MP2/aug-cc-pvtz', properties = ['dipole'])
--------------------------------------------------------------------------

    Molecular point group: c1
  Charge       = 0
  Multiplicity = 1
  Basis Set: AUG-CC-PVTZ
    Blend: AUG-CC-PVTZ
  Basis Set: (AUG-CC-PVTZ AUX)
    Blend: AUG-CC-PVTZ-JKFIT

    Orbital Energies [Eh]
    ---------------------

    Doubly Occupied:

       1A    -11.241048     2A    -11.238246     3A    -11.236860
       4A    -11.235240     5A    -11.235007     6A    -11.234521
       7A    -11.231491     8A    -11.231244     9A    -11.231129
      10A    -11.229830    11A    -11.229409    12A    -11.229061
      13A    -11.228602    14A    -11.220559    15A     -1.160618
      16A     -1.145233    17A     -1.073907    18A     -1.024282
      19A     -1.010156    20A     -1.008064    21A     -0.957999
      22A     -0.896967    23A     -0.828047    24A     -0.822808
      25A     -0.803049    26A     -0.774662    27A     -0.693370
      28A     -0.668049    29A     -0.648290    30A     -0.635092
      31A     -0.628539    32A     -0.617649    33A     -0.582866
      34A     -0.578917    35A     -0.577657    36A     -0.570159
      37A     -0.559816    38A     -0.548318    39A     -0.527889
      40A     -0.503072    41A     -0.491343    42A     -0.490182
      43A     -0.477553    44A     -0.473544    45A     -0.471491
      46A     -0.337069    47A     -0.333676    48A     -0.329280
      49A     -0.307347

  @DF-RHF Final Energy:  -538.49385849085002

   => Energetics <=

    Nuclear Repulsion Energy =            786.0522930729530344
    One-Electron Energy =               -2287.4738850773665035
    Two-Electron Energy =                 962.9277335135634530
    Total Energy =                       -538.4938584908500161
  Basis Set: (AUG-CC-PVTZ AUX)
    Blend: AUG-CC-PVTZ-RI
    Molecular point group: c1

    Geometry (in Angstrom), charge = 0, multiplicity = 1:

       Center              X                  Y                   Z               Mass
    ------------   -----------------  -----------------  -----------------  -----------------
         C           -0.552887599217     1.595621662954    -0.221037404684    12.000000000000
         C            0.781301400783     0.888472662954    -0.158149404684    12.000000000000
         C           -1.709791599217     0.639831662954    -0.036881404684    12.000000000000
         C            1.753347400783     1.242998662954     0.782364595316    12.000000000000
         C            1.070851400783    -0.150052337046    -1.054566404684    12.000000000000
         C            3.275387400783    -0.453977337046    -0.068134404684    12.000000000000
         C            2.981329400783     0.578438662954     0.828538595316    12.000000000000
         C            2.297274400783    -0.808480337046    -1.008875404684    12.000000000000
         C           -1.796596599217    -0.137678337046     1.127003595316    12.000000000000
         C           -2.704104599217     0.504616662954    -1.011737404684    12.000000000000
         C            4.583331400783    -1.198634337046     0.002563595316    12.000000000000
         C           -2.857042599217    -1.023120337046     1.313100595316    12.000000000000
         C           -3.766935599217    -0.384856337046    -0.830486404684    12.000000000000
         C           -3.846727599217    -1.149848337046     0.333439595316    12.000000000000
         H           -0.659206599217     2.110651662954    -1.184870404684     1.007825032230
         H           -0.585703599217     2.374783662954     0.551855595316     1.007825032230
         H            1.551089400783     2.049875662954     1.485691595316     1.007825032230
         H            0.321724400783    -0.448835337046    -1.786675404684     1.007825032230
         H            3.723819400783     0.874078662954     1.568601595316     1.007825032230
         H            2.503240400783    -1.608679337046    -1.718783404684     1.007825032230
         H           -1.018641599217    -0.052225337046     1.884257595316     1.007825032230
         H           -2.648060599217     1.102239662954    -1.920493404684     1.007825032230
         H            4.924056400783    -1.491398337046    -0.994944404684     1.007825032230
         H            5.362581400783    -0.582281337046     0.459815595316     1.007825032230
         H            4.489514800783    -2.095197537046     0.589338995316     1.007825032230
         H           -2.911691599217    -1.618154337046     2.221997595316     1.007825032230
         H           -4.530882599217    -0.478941337046    -1.599009404684     1.007825032230
         H           -4.672450599217    -1.842549337046     0.477243595316     1.007825032230

  Basis Set: AUG-CC-PVTZ
    Blend: AUG-CC-PVTZ
  Basis Set: (AUG-CC-PVTZ AUX)
    Blend: AUG-CC-PVTZ-JKFIT
	 Reference Energy          =    -538.4938584908500161 [Eh]
	 Singles Energy            =      -0.0000000000000000 [Eh]
	 Same-Spin Energy          =      -0.6081985185424293 [Eh]
	 Opposite-Spin Energy      =      -1.9346265659494872 [Eh]
	 Correlation Energy        =      -2.5428250844919167 [Eh]
	 Total Energy              =    -541.0366835753419537 [Eh]

	 ================> DF-SCS-MP2 Energies <==================
	-----------------------------------------------------------
	 SCS Same-Spin Scale       =       0.3333333333333333 [-]
	 SCS Opposite-Spin Scale   =       1.2000000000000000 [-]
	 SCS Same-Spin Energy      =      -0.2027328395141431 [Eh]
	 SCS Opposite-Spin Energy  =      -2.3215518791393848 [Eh]
	 SCS Correlation Energy    =      -2.5242847186535280 [Eh]
	 SCS Total Energy          =    -541.0181432095035916 [Eh]
	-----------------------------------------------------------

  Dipole Moment: [D]
     X:     0.3686      Y:    -0.1386      Z:     0.0142     Total:     0.3940

*** Psi4 exiting successfully. Buy a developer a beer!
