                               Psi4 1.4a3.dev225

  ==> Input File <==

--------------------------------------------------------------------------
#psi4
#
memory 32 gb

molecule  {
0 1
  C       -0.5824800     1.6044310    -0.2213210
  C        0.7517090     0.8972820    -0.1584330
  C       -1.7393840     0.6486410    -0.0371650
  C        1.7237550     1.2518080     0.7820810
  C        1.0412590    -0.1412430    -1.0548500
  C        3.2457950    -0.4451680    -0.0684180
  C        2.9517370     0.5872480     0.8282550
  C        2.2676820    -0.7996710    -1.0091590
  C       -1.8261890    -0.1288690     1.1267200
  C       -2.7429715     0.5197608    -1.0336762
  C        4.5537390    -1.1898250     0.0022800
  C       -2.8866350    -1.0143110     1.3128170
  C       -3.7965280    -0.3760470    -0.8307700
  C       -3.8763200    -1.1410390     0.3331560
  H       -0.6887990     2.1194610    -1.1851540
  H       -0.6152960     2.3835930     0.5515720
  H        1.5214970     2.0586850     1.4854080
  H        0.2921320    -0.4400260    -1.7869590
  H        3.6942270     0.8828880     1.5683180
  H        2.4736480    -1.5998700    -1.7190670
  H       -1.0482340    -0.0434160     1.8839740
  H       -2.6776530     1.1110490    -1.9207770
  H        4.8944640    -1.4825890    -0.9952280
  H        5.3329890    -0.5734720     0.4595320
  H        4.4581780    -2.1030590     0.5999660
  H       -2.9412840    -1.6093450     2.2217140
  H       -4.5604750    -0.4701320    -1.5992930
  H       -4.7020430    -1.8337400     0.4769600
units angstrom
no_reorient  #important for SAPT in psi4, default
symmetry c1  #important for SAPT in psi4, default
}

set PROPERTIES_ORIGIN ["COM"]
properties('MP2/aug-cc-pvtz', properties = ['dipole'])
--------------------------------------------------------------------------

    Molecular point group: c1
  Charge       = 0
  Multiplicity = 1
  Basis Set: AUG-CC-PVTZ
    Blend: AUG-CC-PVTZ
  Basis Set: (AUG-CC-PVTZ AUX)
    Blend: AUG-CC-PVTZ-JKFIT

    Orbital Energies [Eh]
    ---------------------

    Doubly Occupied:

       1A    -11.243574     2A    -11.238329     3A    -11.236912
       4A    -11.235344     5A    -11.235212     6A    -11.235057
       7A    -11.232011     8A    -11.231252     9A    -11.231138
      10A    -11.229852    11A    -11.229251    12A    -11.229116
      13A    -11.228625    14A    -11.222954    15A     -1.159733
      16A     -1.144023    17A     -1.073621    18A     -1.022990
      19A     -1.010831    20A     -1.008087    21A     -0.956613
      22A     -0.896248    23A     -0.827899    24A     -0.823337
      25A     -0.802643    26A     -0.773978    27A     -0.694092
      28A     -0.668131    29A     -0.648396    30A     -0.636629
      31A     -0.628627    32A     -0.616215    33A     -0.584211
      34A     -0.578686    35A     -0.575475    36A     -0.569392
      37A     -0.559794    38A     -0.548583    39A     -0.527977
      40A     -0.502924    41A     -0.493270    42A     -0.489023
      43A     -0.477480    44A     -0.473188    45A     -0.470202
      46A     -0.337491    47A     -0.333269    48A     -0.328233
      49A     -0.306793

  @DF-RHF Final Energy:  -538.49280366277344

   => Energetics <=

    Nuclear Repulsion Energy =            785.5247740528338909
    One-Electron Energy =               -2286.4217383407017223
    Two-Electron Energy =                 962.4041606250943914
    Total Energy =                       -538.4928036627734400
  Basis Set: (AUG-CC-PVTZ AUX)
    Blend: AUG-CC-PVTZ-RI
    Molecular point group: c1

    Geometry (in Angstrom), charge = 0, multiplicity = 1:

       Center              X                  Y                   Z               Mass
    ------------   -----------------  -----------------  -----------------  -----------------
         C           -0.552266807778     1.595296494118    -0.219670829325    12.000000000000
         C            0.781922192222     0.888147494118    -0.156782829325    12.000000000000
         C           -1.709170807778     0.639506494118    -0.035514829325    12.000000000000
         C            1.753968192222     1.242673494118     0.783731170675    12.000000000000
         C            1.071472192222    -0.150377505882    -1.053199829325    12.000000000000
         C            3.276008192222    -0.454302505882    -0.066767829325    12.000000000000
         C            2.981950192222     0.578113494118     0.829905170675    12.000000000000
         C            2.297895192222    -0.808805505882    -1.007508829325    12.000000000000
         C           -1.795975807778    -0.138003505882     1.128370170675    12.000000000000
         C           -2.712758307778     0.510626294118    -1.032026029325    12.000000000000
         C            4.583952192222    -1.198959505882     0.003930170675    12.000000000000
         C           -2.856421807778    -1.023445505882     1.314467170675    12.000000000000
         C           -3.766314807778    -0.385181505882    -0.829119829325    12.000000000000
         C           -3.846106807778    -1.150173505882     0.334806170675    12.000000000000
         H           -0.658585807778     2.110326494118    -1.183503829325     1.007825032230
         H           -0.585082807778     2.374458494118     0.553222170675     1.007825032230
         H            1.551710192222     2.049550494118     1.487058170675     1.007825032230
         H            0.322345192222    -0.449160505882    -1.785308829325     1.007825032230
         H            3.724440192222     0.873753494118     1.569968170675     1.007825032230
         H            2.503861192222    -1.609004505882    -1.717416829325     1.007825032230
         H           -1.018020807778    -0.052550505882     1.885624170675     1.007825032230
         H           -2.647439807778     1.101914494118    -1.919126829325     1.007825032230
         H            4.924677192222    -1.491723505882    -0.993577829325     1.007825032230
         H            5.363202192222    -0.582606505882     0.461182170675     1.007825032230
         H            4.488391192222    -2.112193505882     0.601616170675     1.007825032230
         H           -2.911070807778    -1.618479505882     2.223364170675     1.007825032230
         H           -4.530261807778    -0.479266505882    -1.597642829325     1.007825032230
         H           -4.671829807778    -1.842874505882     0.478610170675     1.007825032230

  Basis Set: AUG-CC-PVTZ
    Blend: AUG-CC-PVTZ
  Basis Set: (AUG-CC-PVTZ AUX)
    Blend: AUG-CC-PVTZ-JKFIT
	 Reference Energy          =    -538.4928036627734400 [Eh]
	 Singles Energy            =      -0.0000000000000000 [Eh]
	 Same-Spin Energy          =      -0.6082060777477259 [Eh]
	 Opposite-Spin Energy      =      -1.9348559983898208 [Eh]
	 Correlation Energy        =      -2.5430620761375469 [Eh]
	 Total Energy              =    -541.0358657389109567 [Eh]

	 ================> DF-SCS-MP2 Energies <==================
	-----------------------------------------------------------
	 SCS Same-Spin Scale       =       0.3333333333333333 [-]
	 SCS Opposite-Spin Scale   =       1.2000000000000000 [-]
	 SCS Same-Spin Energy      =      -0.2027353592492420 [Eh]
	 SCS Opposite-Spin Energy  =      -2.3218271980677847 [Eh]
	 SCS Correlation Energy    =      -2.5245625573170267 [Eh]
	 SCS Total Energy          =    -541.0173662200904801 [Eh]
	-----------------------------------------------------------

  Dipole Moment: [D]
     X:     0.3626      Y:    -0.1220      Z:     0.0062     Total:     0.3826

*** Psi4 exiting successfully. Buy a developer a beer!
