                               Psi4 1.4a3.dev225

  ==> Input File <==

--------------------------------------------------------------------------
#psi4
#
memory 32 gb

molecule  {
0 1
  C       -0.5824800     1.6044310    -0.2213210
  C        0.6947095     0.9669531    -0.1207212
  C       -1.7393840     0.6486410    -0.0371650
  C        1.7237550     1.2518080     0.7820810
  C        1.0412590    -0.1412430    -1.0548500
  C        3.2457950    -0.4451680    -0.0684180
  C        2.9517370     0.5872480     0.8282550
  C        2.2676820    -0.7996710    -1.0091590
  C       -1.8261890    -0.1288690     1.1267200
  C       -2.7336970     0.5134260    -1.0120210
  C        4.5537390    -1.1898250     0.0022800
  C       -2.8866350    -1.0143110     1.3128170
  C       -3.7965280    -0.3760470    -0.8307700
  C       -3.8763200    -1.1410390     0.3331560
  H       -0.6887990     2.1194610    -1.1851540
  H       -0.6152960     2.3835930     0.5515720
  H        1.5214970     2.0586850     1.4854080
  H        0.2921320    -0.4400260    -1.7869590
  H        3.6942270     0.8828880     1.5683180
  H        2.4736480    -1.5998700    -1.7190670
  H       -1.0482340    -0.0434160     1.8839740
  H       -2.6776530     1.1110490    -1.9207770
  H        4.8944640    -1.4825890    -0.9952280
  H        5.3329890    -0.5734720     0.4595320
  H        4.4581780    -2.1030590     0.5999660
  H       -2.9412840    -1.6093450     2.2217140
  H       -4.5604750    -0.4701320    -1.5992930
  H       -4.7020430    -1.8337400     0.4769600
units angstrom
no_reorient  #important for SAPT in psi4, default
symmetry c1  #important for SAPT in psi4, default
}

set PROPERTIES_ORIGIN ["COM"]
properties('MP2/aug-cc-pvtz', properties = ['dipole'])
--------------------------------------------------------------------------

    Molecular point group: c1
  Charge       = 0
  Multiplicity = 1
  Basis Set: AUG-CC-PVTZ
    Blend: AUG-CC-PVTZ
  Basis Set: (AUG-CC-PVTZ AUX)
    Blend: AUG-CC-PVTZ-JKFIT

    Orbital Energies [Eh]
    ---------------------

    Doubly Occupied:

       1A    -11.242908     2A    -11.241841     3A    -11.239487
       4A    -11.237585     5A    -11.235966     6A    -11.235387
       7A    -11.233237     8A    -11.232822     9A    -11.232299
      10A    -11.231508    11A    -11.230581    12A    -11.228921
      13A    -11.228447    14A    -11.223219    15A     -1.161024
      16A     -1.142222    17A     -1.081961    18A     -1.022704
      19A     -1.011111    20A     -1.003086    21A     -0.964702
      22A     -0.895448    23A     -0.826920    24A     -0.820521
      25A     -0.806006    26A     -0.771940    27A     -0.695857
      28A     -0.668041    29A     -0.649801    30A     -0.637675
      31A     -0.630978    32A     -0.617390    33A     -0.583929
      34A     -0.576201    35A     -0.573841    36A     -0.571580
      37A     -0.563100    38A     -0.555227    39A     -0.525962
      40A     -0.503432    41A     -0.493018    42A     -0.491842
      43A     -0.484156    44A     -0.467751    45A     -0.460917
      46A     -0.336098    47A     -0.334246    48A     -0.331501
      49A     -0.300972

  @DF-RHF Final Energy:  -538.48028962858962

   => Energetics <=

    Nuclear Repulsion Energy =            785.5789155645397841
    One-Electron Energy =               -2286.4476730556843904
    Two-Electron Energy =                 962.3884678625549896
    Total Energy =                       -538.4802896285896168
  Basis Set: (AUG-CC-PVTZ AUX)
    Blend: AUG-CC-PVTZ-RI
    Molecular point group: c1

    Geometry (in Angstrom), charge = 0, multiplicity = 1:

       Center              X                  Y                   Z               Mass
    ------------   -----------------  -----------------  -----------------  -----------------
         C           -0.549121997423     1.591122986479    -0.223582782313    12.000000000000
         C            0.728067502577     0.953645086479    -0.122982982313    12.000000000000
         C           -1.706025997423     0.635332986479    -0.039426782313    12.000000000000
         C            1.757113002577     1.238499986479     0.779819217687    12.000000000000
         C            1.074617002577    -0.154551013521    -1.057111782313    12.000000000000
         C            3.279153002577    -0.458476013521    -0.070679782313    12.000000000000
         C            2.985095002577     0.573939986479     0.825993217687    12.000000000000
         C            2.301040002577    -0.812979013521    -1.011420782313    12.000000000000
         C           -1.792830997423    -0.142177013521     1.124458217687    12.000000000000
         C           -2.700338997423     0.500117986479    -1.014282782313    12.000000000000
         C            4.587097002577    -1.203133013521     0.000018217687    12.000000000000
         C           -2.853276997423    -1.027619013521     1.310555217687    12.000000000000
         C           -3.763169997423    -0.389355013521    -0.833031782313    12.000000000000
         C           -3.842961997423    -1.154347013521     0.330894217687    12.000000000000
         H           -0.655440997423     2.106152986479    -1.187415782313     1.007825032230
         H           -0.581937997423     2.370284986479     0.549310217687     1.007825032230
         H            1.554855002577     2.045376986479     1.483146217687     1.007825032230
         H            0.325490002577    -0.453334013521    -1.789220782313     1.007825032230
         H            3.727585002577     0.869579986479     1.566056217687     1.007825032230
         H            2.507006002577    -1.613178013521    -1.721328782313     1.007825032230
         H           -1.014875997423    -0.056724013521     1.881712217687     1.007825032230
         H           -2.644294997423     1.097740986479    -1.923038782313     1.007825032230
         H            4.927822002577    -1.495897013521    -0.997489782313     1.007825032230
         H            5.366347002577    -0.586780013521     0.457270217687     1.007825032230
         H            4.491536002577    -2.116367013521     0.597704217687     1.007825032230
         H           -2.907925997423    -1.622653013521     2.219452217687     1.007825032230
         H           -4.527116997423    -0.483440013521    -1.601554782313     1.007825032230
         H           -4.668684997423    -1.847048013521     0.474698217687     1.007825032230

  Basis Set: AUG-CC-PVTZ
    Blend: AUG-CC-PVTZ
  Basis Set: (AUG-CC-PVTZ AUX)
    Blend: AUG-CC-PVTZ-JKFIT
	 Reference Energy          =    -538.4802896285896168 [Eh]
	 Singles Energy            =      -0.0000000000000000 [Eh]
	 Same-Spin Energy          =      -0.6091565596669424 [Eh]
	 Opposite-Spin Energy      =      -1.9367504325790481 [Eh]
	 Correlation Energy        =      -2.5459069922459907 [Eh]
	 Total Energy              =    -541.0261966208356625 [Eh]

	 ================> DF-SCS-MP2 Energies <==================
	-----------------------------------------------------------
	 SCS Same-Spin Scale       =       0.3333333333333333 [-]
	 SCS Opposite-Spin Scale   =       1.2000000000000000 [-]
	 SCS Same-Spin Energy      =      -0.2030521865556474 [Eh]
	 SCS Opposite-Spin Energy  =      -2.3241005190948578 [Eh]
	 SCS Correlation Energy    =      -2.5271527056505052 [Eh]
	 SCS Total Energy          =    -541.0074423342400678 [Eh]
	-----------------------------------------------------------

  Dipole Moment: [D]
     X:     0.2383      Y:    -0.1408      Z:    -0.0072     Total:     0.2769

*** Psi4 exiting successfully. Buy a developer a beer!
