                               Psi4 1.4a3.dev225

  ==> Input File <==

--------------------------------------------------------------------------
#psi4
#
memory 32 gb

molecule  {
0 1
  C       -0.5824800     1.6044310    -0.2213210
  C        0.7517090     0.8972820    -0.1584330
  C       -1.7393840     0.6486410    -0.0371650
  C        1.7237550     1.2518080     0.7820810
  C        1.0206081    -0.0671747    -0.9909170
  C        3.2457950    -0.4451680    -0.0684180
  C        2.9517370     0.5872480     0.8282550
  C        2.2676820    -0.7996710    -1.0091590
  C       -1.8261890    -0.1288690     1.1267200
  C       -2.7336970     0.5134260    -1.0120210
  C        4.5537390    -1.1898250     0.0022800
  C       -2.8866350    -1.0143110     1.3128170
  C       -3.7965280    -0.3760470    -0.8307700
  C       -3.8763200    -1.1410390     0.3331560
  H       -0.6887990     2.1194610    -1.1851540
  H       -0.6152960     2.3835930     0.5515720
  H        1.5214970     2.0586850     1.4854080
  H        0.2921320    -0.4400260    -1.7869590
  H        3.6942270     0.8828880     1.5683180
  H        2.4736480    -1.5998700    -1.7190670
  H       -1.0482340    -0.0434160     1.8839740
  H       -2.6776530     1.1110490    -1.9207770
  H        4.8944640    -1.4825890    -0.9952280
  H        5.3329890    -0.5734720     0.4595320
  H        4.4581780    -2.1030590     0.5999660
  H       -2.9412840    -1.6093450     2.2217140
  H       -4.5604750    -0.4701320    -1.5992930
  H       -4.7020430    -1.8337400     0.4769600
units angstrom
no_reorient  #important for SAPT in psi4, default
symmetry c1  #important for SAPT in psi4, default
}

set PROPERTIES_ORIGIN ["COM"]
properties('MP2/aug-cc-pvtz', properties = ['dipole'])
--------------------------------------------------------------------------

    Molecular point group: c1
  Charge       = 0
  Multiplicity = 1
  Basis Set: AUG-CC-PVTZ
    Blend: AUG-CC-PVTZ
  Basis Set: (AUG-CC-PVTZ AUX)
    Blend: AUG-CC-PVTZ-JKFIT

    Orbital Energies [Eh]
    ---------------------

    Doubly Occupied:

       1A    -11.240634     2A    -11.238674     3A    -11.234598
       4A    -11.234583     5A    -11.234227     6A    -11.233474
       7A    -11.233041     8A    -11.230996     9A    -11.230793
      10A    -11.229703    11A    -11.229162    12A    -11.227247
      13A    -11.224048    14A    -11.223004    15A     -1.166275
      16A     -1.146507    17A     -1.078007    18A     -1.027298
      19A     -1.009765    20A     -1.001696    21A     -0.956116
      22A     -0.901158    23A     -0.833293    24A     -0.823407
      25A     -0.801401    26A     -0.770808    27A     -0.693303
      28A     -0.667827    29A     -0.650376    30A     -0.634911
      31A     -0.626547    32A     -0.615663    33A     -0.582587
      34A     -0.577204    35A     -0.573631    36A     -0.569043
      37A     -0.559232    38A     -0.550960    39A     -0.529182
      40A     -0.502753    41A     -0.493628    42A     -0.486939
      43A     -0.484091    44A     -0.474159    45A     -0.461085
      46A     -0.341081    47A     -0.333211    48A     -0.322609
      49A     -0.314558

  @DF-RHF Final Energy:  -538.48054474514709

   => Energetics <=

    Nuclear Repulsion Energy =            787.3495227735537583
    One-Electron Energy =               -2290.0511481380103760
    Two-Electron Energy =                 964.2210806193094186
    Total Energy =                       -538.4805447451470855
  Basis Set: (AUG-CC-PVTZ AUX)
    Blend: AUG-CC-PVTZ-RI
    Molecular point group: c1

    Geometry (in Angstrom), charge = 0, multiplicity = 1:

       Center              X                  Y                   Z               Mass
    ------------   -----------------  -----------------  -----------------  -----------------
         C           -0.551517166698     1.590833235613    -0.225310612618    12.000000000000
         C            0.782671833302     0.883684235613    -0.162422612618    12.000000000000
         C           -1.708421166698     0.635043235613    -0.041154612618    12.000000000000
         C            1.754717833302     1.238210235613     0.778091387382    12.000000000000
         C            1.051570933302    -0.080772464387    -0.994906612618    12.000000000000
         C            3.276757833302    -0.458765764387    -0.072407612618    12.000000000000
         C            2.982699833302     0.573650235613     0.824265387382    12.000000000000
         C            2.298644833302    -0.813268764387    -1.013148612618    12.000000000000
         C           -1.795226166698    -0.142466764387     1.122730387382    12.000000000000
         C           -2.702734166698     0.499828235613    -1.016010612618    12.000000000000
         C            4.584701833302    -1.203422764387    -0.001709612618    12.000000000000
         C           -2.855672166698    -1.027908764387     1.308827387382    12.000000000000
         C           -3.765565166698    -0.389644764387    -0.834759612618    12.000000000000
         C           -3.845357166698    -1.154636764387     0.329166387382    12.000000000000
         H           -0.657836166698     2.105863235613    -1.189143612618     1.007825032230
         H           -0.584333166698     2.369995235613     0.547582387382     1.007825032230
         H            1.552459833302     2.045087235613     1.481418387382     1.007825032230
         H            0.323094833302    -0.453623764387    -1.790948612618     1.007825032230
         H            3.725189833302     0.869290235613     1.564328387382     1.007825032230
         H            2.504610833302    -1.613467764387    -1.723056612618     1.007825032230
         H           -1.017271166698    -0.057013764387     1.879984387382     1.007825032230
         H           -2.646690166698     1.097451235613    -1.924766612618     1.007825032230
         H            4.925426833302    -1.496186764387    -0.999217612618     1.007825032230
         H            5.363951833302    -0.587069764387     0.455542387382     1.007825032230
         H            4.489140833302    -2.116656764387     0.595976387382     1.007825032230
         H           -2.910321166698    -1.622942764387     2.217724387382     1.007825032230
         H           -4.529512166698    -0.483729764387    -1.603282612618     1.007825032230
         H           -4.671080166698    -1.847337764387     0.472970387382     1.007825032230

  Basis Set: AUG-CC-PVTZ
    Blend: AUG-CC-PVTZ
  Basis Set: (AUG-CC-PVTZ AUX)
    Blend: AUG-CC-PVTZ-JKFIT
	 Reference Energy          =    -538.4805447451470855 [Eh]
	 Singles Energy            =      -0.0000000000000000 [Eh]
	 Same-Spin Energy          =      -0.6082488915371602 [Eh]
	 Opposite-Spin Energy      =      -1.9351386287388808 [Eh]
	 Correlation Energy        =      -2.5433875202760410 [Eh]
	 Total Energy              =    -541.0239322654231273 [Eh]

	 ================> DF-SCS-MP2 Energies <==================
	-----------------------------------------------------------
	 SCS Same-Spin Scale       =       0.3333333333333333 [-]
	 SCS Opposite-Spin Scale   =       1.2000000000000000 [-]
	 SCS Same-Spin Energy      =      -0.2027496305123867 [Eh]
	 SCS Opposite-Spin Energy  =      -2.3221663544866566 [Eh]
	 SCS Correlation Energy    =      -2.5249159849990432 [Eh]
	 SCS Total Energy          =    -541.0054607301461829 [Eh]
	-----------------------------------------------------------

  Dipole Moment: [D]
     X:     0.4226      Y:    -0.1458      Z:     0.0146     Total:     0.4473

*** Psi4 exiting successfully. Buy a developer a beer!
