                               Psi4 1.4a3.dev225

  ==> Input File <==

--------------------------------------------------------------------------
#psi4
#
memory 32 gb

molecule  {
0 1
  C       -0.5824800     1.6044310    -0.2213210
  C        0.7517090     0.8972820    -0.1584330
  C       -1.7393840     0.6486410    -0.0371650
  C        1.7237550     1.2518080     0.7820810
  C        1.0412590    -0.1412430    -1.0548500
  C        3.2457950    -0.4451680    -0.0684180
  C        2.9517370     0.5872480     0.8282550
  C        2.2676820    -0.7996710    -1.0091590
  C       -1.8261890    -0.1288690     1.1267200
  C       -2.7336970     0.5134260    -1.0120210
  C        4.5537390    -1.1898250     0.0022800
  C       -2.8866350    -1.0143110     1.3128170
  C       -3.7965280    -0.3760470    -0.8307700
  C       -3.8648811    -1.0313706     0.1662968
  H       -0.6887990     2.1194610    -1.1851540
  H       -0.6152960     2.3835930     0.5515720
  H        1.5214970     2.0586850     1.4854080
  H        0.2921320    -0.4400260    -1.7869590
  H        3.6942270     0.8828880     1.5683180
  H        2.4736480    -1.5998700    -1.7190670
  H       -1.0482340    -0.0434160     1.8839740
  H       -2.6776530     1.1110490    -1.9207770
  H        4.8944640    -1.4825890    -0.9952280
  H        5.3329890    -0.5734720     0.4595320
  H        4.4581780    -2.1030590     0.5999660
  H       -2.9412840    -1.6093450     2.2217140
  H       -4.5604750    -0.4701320    -1.5992930
  H       -4.7020430    -1.8337400     0.4769600
units angstrom
no_reorient  #important for SAPT in psi4, default
symmetry c1  #important for SAPT in psi4, default
}

set PROPERTIES_ORIGIN ["COM"]
properties('MP2/aug-cc-pvtz', properties = ['dipole'])
--------------------------------------------------------------------------

    Molecular point group: c1
  Charge       = 0
  Multiplicity = 1
  Basis Set: AUG-CC-PVTZ
    Blend: AUG-CC-PVTZ
  Basis Set: (AUG-CC-PVTZ AUX)
    Blend: AUG-CC-PVTZ-JKFIT

    Orbital Energies [Eh]
    ---------------------

    Doubly Occupied:

       1A    -11.243424     2A    -11.240014     3A    -11.238578
       4A    -11.236753     5A    -11.235074     6A    -11.231342
       7A    -11.230938     8A    -11.230430     9A    -11.229939
      10A    -11.229280    11A    -11.228709    12A    -11.225889
      13A    -11.223113    14A    -11.206206    15A     -1.169375
      16A     -1.151893    17A     -1.081607    18A     -1.037235
      19A     -1.008684    20A     -1.005163    21A     -0.957153
      22A     -0.895591    23A     -0.831455    24A     -0.826573
      25A     -0.795061    26A     -0.772103    27A     -0.691713
      28A     -0.666506    29A     -0.649440    30A     -0.635145
      31A     -0.627110    32A     -0.621092    33A     -0.598886
      34A     -0.578784    35A     -0.574282    36A     -0.561392
      37A     -0.555504    38A     -0.546622    39A     -0.525119
      40A     -0.507462    41A     -0.504998    42A     -0.482937
      43A     -0.479532    44A     -0.474592    45A     -0.443226
      46A     -0.360822    47A     -0.333025    48A     -0.319305
      49A     -0.309889

  @DF-RHF Final Energy:  -538.43177127824356

   => Energetics <=

    Nuclear Repulsion Energy =            788.1941862069479612
    One-Electron Energy =               -2291.6339817291000145
    Two-Electron Energy =                 965.0080242439084941
    Total Energy =                       -538.4317712782435592
  Basis Set: (AUG-CC-PVTZ AUX)
    Blend: AUG-CC-PVTZ-RI
    Molecular point group: c1

    Geometry (in Angstrom), charge = 0, multiplicity = 1:

       Center              X                  Y                   Z               Mass
    ------------   -----------------  -----------------  -----------------  -----------------
         C           -0.553631704893     1.588487388298    -0.210102698518    12.000000000000
         C            0.780557295107     0.881338388298    -0.147214698518    12.000000000000
         C           -1.710535704893     0.632697388298    -0.025946698518    12.000000000000
         C            1.752603295107     1.235864388298     0.793299301482    12.000000000000
         C            1.070107295107    -0.157186611702    -1.043631698518    12.000000000000
         C            3.274643295107    -0.461111611702    -0.057199698518    12.000000000000
         C            2.980585295107     0.571304388298     0.839473301482    12.000000000000
         C            2.296530295107    -0.815614611702    -0.997940698518    12.000000000000
         C           -1.797340704893    -0.144812611702     1.137938301482    12.000000000000
         C           -2.704848704893     0.497482388298    -1.000802698518    12.000000000000
         C            4.582587295107    -1.205768611702     0.013498301482    12.000000000000
         C           -2.857786704893    -1.030254611702     1.324035301482    12.000000000000
         C           -3.767679704893    -0.391990611702    -0.819551698518    12.000000000000
         C           -3.836032804893    -1.047314211702     0.177515101482    12.000000000000
         H           -0.659950704893     2.103517388298    -1.173935698518     1.007825032230
         H           -0.586447704893     2.367649388298     0.562790301482     1.007825032230
         H            1.550345295107     2.042741388298     1.496626301482     1.007825032230
         H            0.320980295107    -0.455969611702    -1.775740698518     1.007825032230
         H            3.723075295107     0.866944388298     1.579536301482     1.007825032230
         H            2.502496295107    -1.615813611702    -1.707848698518     1.007825032230
         H           -1.019385704893    -0.059359611702     1.895192301482     1.007825032230
         H           -2.648804704893     1.095105388298    -1.909558698518     1.007825032230
         H            4.923312295107    -1.498532611702    -0.984009698518     1.007825032230
         H            5.361837295107    -0.589415611702     0.470750301482     1.007825032230
         H            4.487026295107    -2.119002611702     0.611184301482     1.007825032230
         H           -2.912435704893    -1.625288611702     2.232932301482     1.007825032230
         H           -4.531626704893    -0.486075611702    -1.588074698518     1.007825032230
         H           -4.673194704893    -1.849683611702     0.488178301482     1.007825032230

  Basis Set: AUG-CC-PVTZ
    Blend: AUG-CC-PVTZ
  Basis Set: (AUG-CC-PVTZ AUX)
    Blend: AUG-CC-PVTZ-JKFIT
	 Reference Energy          =    -538.4317712782435592 [Eh]
	 Singles Energy            =      -0.0000000000000000 [Eh]
	 Same-Spin Energy          =      -0.6074398550776181 [Eh]
	 Opposite-Spin Energy      =      -1.9359729602362528 [Eh]
	 Correlation Energy        =      -2.5434128153138706 [Eh]
	 Total Energy              =    -540.9751840935574592 [Eh]

	 ================> DF-SCS-MP2 Energies <==================
	-----------------------------------------------------------
	 SCS Same-Spin Scale       =       0.3333333333333333 [-]
	 SCS Opposite-Spin Scale   =       1.2000000000000000 [-]
	 SCS Same-Spin Energy      =      -0.2024799516925394 [Eh]
	 SCS Opposite-Spin Energy  =      -2.3231675522835031 [Eh]
	 SCS Correlation Energy    =      -2.5256475039760424 [Eh]
	 SCS Total Energy          =    -540.9574187822196336 [Eh]
	-----------------------------------------------------------

  Dipole Moment: [D]
     X:     0.4296      Y:    -0.0960      Z:     0.0313     Total:     0.4413

*** Psi4 exiting successfully. Buy a developer a beer!
