                               Psi4 1.4a3.dev225

  ==> Input File <==

--------------------------------------------------------------------------
#psi4
#
memory 32 gb

molecule  {
0 1
  C       -0.5824800     1.6044310    -0.2213210
  C        0.7517090     0.8972820    -0.1584330
  C       -1.7546879     0.6359975    -0.0347289
  C        1.7237550     1.2518080     0.7820810
  C        1.0412590    -0.1412430    -1.0548500
  C        3.2457950    -0.4451680    -0.0684180
  C        2.9517370     0.5872480     0.8282550
  C        2.2676820    -0.7996710    -1.0091590
  C       -1.8261890    -0.1288690     1.1267200
  C       -2.7336970     0.5134260    -1.0120210
  C        4.5537390    -1.1898250     0.0022800
  C       -2.8866350    -1.0143110     1.3128170
  C       -3.7965280    -0.3760470    -0.8307700
  C       -3.8763200    -1.1410390     0.3331560
  H       -0.6887990     2.1194610    -1.1851540
  H       -0.6152960     2.3835930     0.5515720
  H        1.5214970     2.0586850     1.4854080
  H        0.2921320    -0.4400260    -1.7869590
  H        3.6942270     0.8828880     1.5683180
  H        2.4736480    -1.5998700    -1.7190670
  H       -1.0482340    -0.0434160     1.8839740
  H       -2.6776530     1.1110490    -1.9207770
  H        4.8944640    -1.4825890    -0.9952280
  H        5.3329890    -0.5734720     0.4595320
  H        4.4581780    -2.1030590     0.5999660
  H       -2.9412840    -1.6093450     2.2217140
  H       -4.5604750    -0.4701320    -1.5992930
  H       -4.7020430    -1.8337400     0.4769600
units angstrom
no_reorient  #important for SAPT in psi4, default
symmetry c1  #important for SAPT in psi4, default
}

set PROPERTIES_ORIGIN ["COM"]
properties('MP2/aug-cc-pvtz', properties = ['dipole'])
--------------------------------------------------------------------------

    Molecular point group: c1
  Charge       = 0
  Multiplicity = 1
  Basis Set: AUG-CC-PVTZ
    Blend: AUG-CC-PVTZ
  Basis Set: (AUG-CC-PVTZ AUX)
    Blend: AUG-CC-PVTZ-JKFIT

    Orbital Energies [Eh]
    ---------------------

    Doubly Occupied:

       1A    -11.239803     2A    -11.238172     3A    -11.236637
       4A    -11.235606     5A    -11.235108     6A    -11.234639
       7A    -11.231205     8A    -11.230939     9A    -11.230441
      10A    -11.229681    11A    -11.228965    12A    -11.228499
      13A    -11.228452    14A    -11.222854    15A     -1.160871
      16A     -1.146263    17A     -1.072242    18A     -1.023537
      19A     -1.011324    20A     -1.007936    21A     -0.957471
      22A     -0.894967    23A     -0.828309    24A     -0.823653
      25A     -0.802949    26A     -0.774615    27A     -0.693900
      28A     -0.667261    29A     -0.647731    30A     -0.634341
      31A     -0.628230    32A     -0.618144    33A     -0.584514
      34A     -0.578543    35A     -0.574848    36A     -0.568151
      37A     -0.559094    38A     -0.548197    39A     -0.527683
      40A     -0.502754    41A     -0.492611    42A     -0.490473
      43A     -0.477736    44A     -0.474307    45A     -0.468701
      46A     -0.337352    47A     -0.334152    48A     -0.329751
      49A     -0.307695

  @DF-RHF Final Energy:  -538.49391387472838

   => Energetics <=

    Nuclear Repulsion Energy =            786.0057403491756531
    One-Electron Energy =               -2287.3966925353724946
    Two-Electron Energy =                 962.8970383114685774
    Total Energy =                       -538.4939138747283778
  Basis Set: (AUG-CC-PVTZ AUX)
    Blend: AUG-CC-PVTZ-RI
    Molecular point group: c1

    Geometry (in Angstrom), charge = 0, multiplicity = 1:

       Center              X                  Y                   Z               Mass
    ------------   -----------------  -----------------  -----------------  -----------------
         C           -0.551869504068     1.596547057856    -0.221258311142    12.000000000000
         C            0.782319495932     0.889398057856    -0.158370311142    12.000000000000
         C           -1.724077404068     0.628113557856    -0.034666211142    12.000000000000
         C            1.754365495932     1.243924057856     0.782143688858    12.000000000000
         C            1.071869495932    -0.149126942144    -1.054787311142    12.000000000000
         C            3.276405495932    -0.453051942144    -0.068355311142    12.000000000000
         C            2.982347495932     0.579364057856     0.828317688858    12.000000000000
         C            2.298292495932    -0.807554942144    -1.009096311142    12.000000000000
         C           -1.795578504068    -0.136752942144     1.126782688858    12.000000000000
         C           -2.703086504068     0.505542057856    -1.011958311142    12.000000000000
         C            4.584349495932    -1.197708942144     0.002342688858    12.000000000000
         C           -2.856024504068    -1.022194942144     1.312879688858    12.000000000000
         C           -3.765917504068    -0.383930942144    -0.830707311142    12.000000000000
         C           -3.845709504068    -1.148922942144     0.333218688858    12.000000000000
         H           -0.658188504068     2.111577057856    -1.185091311142     1.007825032230
         H           -0.584685504068     2.375709057856     0.551634688858     1.007825032230
         H            1.552107495932     2.050801057856     1.485470688858     1.007825032230
         H            0.322742495932    -0.447909942144    -1.786896311142     1.007825032230
         H            3.724837495932     0.875004057856     1.568380688858     1.007825032230
         H            2.504258495932    -1.607753942144    -1.719004311142     1.007825032230
         H           -1.017623504068    -0.051299942144     1.884036688858     1.007825032230
         H           -2.647042504068     1.103165057856    -1.920714311142     1.007825032230
         H            4.925074495932    -1.490472942144    -0.995165311142     1.007825032230
         H            5.363599495932    -0.581355942144     0.459594688858     1.007825032230
         H            4.488788495932    -2.110942942144     0.600028688858     1.007825032230
         H           -2.910673504068    -1.617228942144     2.221776688858     1.007825032230
         H           -4.529864504068    -0.478015942144    -1.599230311142     1.007825032230
         H           -4.671432504068    -1.841623942144     0.477022688858     1.007825032230

  Basis Set: AUG-CC-PVTZ
    Blend: AUG-CC-PVTZ
  Basis Set: (AUG-CC-PVTZ AUX)
    Blend: AUG-CC-PVTZ-JKFIT
	 Reference Energy          =    -538.4939138747283778 [Eh]
	 Singles Energy            =      -0.0000000000000000 [Eh]
	 Same-Spin Energy          =      -0.6080150597159437 [Eh]
	 Opposite-Spin Energy      =      -1.9344475427170038 [Eh]
	 Correlation Energy        =      -2.5424626024329475 [Eh]
	 Total Energy              =    -541.0363764771612978 [Eh]

	 ================> DF-SCS-MP2 Energies <==================
	-----------------------------------------------------------
	 SCS Same-Spin Scale       =       0.3333333333333333 [-]
	 SCS Opposite-Spin Scale   =       1.2000000000000000 [-]
	 SCS Same-Spin Energy      =      -0.2026716865719812 [Eh]
	 SCS Opposite-Spin Energy  =      -2.3213370512604046 [Eh]
	 SCS Correlation Energy    =      -2.5240087378323857 [Eh]
	 SCS Total Energy          =    -541.0179226125607101 [Eh]
	-----------------------------------------------------------

  Dipole Moment: [D]
     X:     0.3320      Y:    -0.1397      Z:     0.0103     Total:     0.3604

*** Psi4 exiting successfully. Buy a developer a beer!
