                               Psi4 1.4a3.dev225

  ==> Input File <==

--------------------------------------------------------------------------
#psi4
#
memory 32 gb

molecule  {
0 1
  C       -0.5824800     1.6044310    -0.2213210
  C        0.7517090     0.8972820    -0.1584330
  C       -1.7393840     0.6486410    -0.0371650
  C        1.7237550     1.2518080     0.7820810
  C        1.0412590    -0.1412430    -1.0548500
  C        3.2457950    -0.4451680    -0.0684180
  C        2.9517370     0.5872480     0.8282550
  C        2.2676820    -0.7996710    -1.0091590
  C       -1.8261890    -0.1288690     1.1267200
  C       -2.7336970     0.5134260    -1.0120210
  C        4.5537390    -1.1898250     0.0022800
  C       -2.9018496    -1.0270148     1.3154870
  C       -3.7965280    -0.3760470    -0.8307700
  C       -3.8763200    -1.1410390     0.3331560
  H       -0.6887990     2.1194610    -1.1851540
  H       -0.6152960     2.3835930     0.5515720
  H        1.5214970     2.0586850     1.4854080
  H        0.2921320    -0.4400260    -1.7869590
  H        3.6942270     0.8828880     1.5683180
  H        2.4736480    -1.5998700    -1.7190670
  H       -1.0482340    -0.0434160     1.8839740
  H       -2.6776530     1.1110490    -1.9207770
  H        4.8944640    -1.4825890    -0.9952280
  H        5.3329890    -0.5734720     0.4595320
  H        4.4581780    -2.1030590     0.5999660
  H       -2.9412840    -1.6093450     2.2217140
  H       -4.5604750    -0.4701320    -1.5992930
  H       -4.7020430    -1.8337400     0.4769600
units angstrom
no_reorient  #important for SAPT in psi4, default
symmetry c1  #important for SAPT in psi4, default
}

set PROPERTIES_ORIGIN ["COM"]
properties('MP2/aug-cc-pvtz', properties = ['dipole'])
--------------------------------------------------------------------------

    Molecular point group: c1
  Charge       = 0
  Multiplicity = 1
  Basis Set: AUG-CC-PVTZ
    Blend: AUG-CC-PVTZ
  Basis Set: (AUG-CC-PVTZ AUX)
    Blend: AUG-CC-PVTZ-JKFIT

    Orbital Energies [Eh]
    ---------------------

    Doubly Occupied:

       1A    -11.240916     2A    -11.238315     3A    -11.236894
       4A    -11.235252     5A    -11.235143     6A    -11.234843
       7A    -11.231865     8A    -11.231477     9A    -11.231123
      10A    -11.230551    11A    -11.229849    12A    -11.229101
      13A    -11.228622    14A    -11.222944    15A     -1.160253
      16A     -1.144733    17A     -1.074053    18A     -1.024749
      19A     -1.008354    20A     -1.007832    21A     -0.957383
      22A     -0.896084    23A     -0.828671    24A     -0.823896
      25A     -0.802110    26A     -0.774389    27A     -0.693240
      28A     -0.667756    29A     -0.648312    30A     -0.634965
      31A     -0.629141    32A     -0.618518    33A     -0.582522
      34A     -0.578696    35A     -0.575431    36A     -0.569694
      37A     -0.559797    38A     -0.548178    39A     -0.527749
      40A     -0.501714    41A     -0.492950    42A     -0.489928
      43A     -0.477533    44A     -0.474004    45A     -0.470611
      46A     -0.336781    47A     -0.332629    48A     -0.329819
      49A     -0.307259

  @DF-RHF Final Energy:  -538.49320231094953

   => Energetics <=

    Nuclear Repulsion Energy =            785.6946376873189593
    One-Electron Energy =               -2286.7624225143154035
    Two-Electron Energy =                 962.5745825160470304
    Total Energy =                       -538.4932023109495276
  Basis Set: (AUG-CC-PVTZ AUX)
    Blend: AUG-CC-PVTZ-RI
    Molecular point group: c1

    Geometry (in Angstrom), charge = 0, multiplicity = 1:

       Center              X                  Y                   Z               Mass
    ------------   -----------------  -----------------  -----------------  -----------------
         C           -0.551875388438     1.596551031288    -0.221273723843    12.000000000000
         C            0.782313611562     0.889402031288    -0.158385723843    12.000000000000
         C           -1.708779388438     0.640761031288    -0.037117723843    12.000000000000
         C            1.754359611562     1.243928031288     0.782128276157    12.000000000000
         C            1.071863611562    -0.149122968712    -1.054802723843    12.000000000000
         C            3.276399611562    -0.453047968712    -0.068370723843    12.000000000000
         C            2.982341611562     0.579368031288     0.828302276157    12.000000000000
         C            2.298286611562    -0.807550968712    -1.009111723843    12.000000000000
         C           -1.795584388438    -0.136748968712     1.126767276157    12.000000000000
         C           -2.703092388438     0.505546031288    -1.011973723843    12.000000000000
         C            4.584343611562    -1.197704968712     0.002327276157    12.000000000000
         C           -2.871244988438    -1.034894768712     1.315534276157    12.000000000000
         C           -3.765923388438    -0.383926968712    -0.830722723843    12.000000000000
         C           -3.845715388438    -1.148918968712     0.333203276157    12.000000000000
         H           -0.658194388438     2.111581031288    -1.185106723843     1.007825032230
         H           -0.584691388438     2.375713031288     0.551619276157     1.007825032230
         H            1.552101611562     2.050805031288     1.485455276157     1.007825032230
         H            0.322736611562    -0.447905968712    -1.786911723843     1.007825032230
         H            3.724831611562     0.875008031288     1.568365276157     1.007825032230
         H            2.504252611562    -1.607749968712    -1.719019723843     1.007825032230
         H           -1.017629388438    -0.051295968712     1.884021276157     1.007825032230
         H           -2.647048388438     1.103169031288    -1.920729723843     1.007825032230
         H            4.925068611562    -1.490468968712    -0.995180723843     1.007825032230
         H            5.363593611562    -0.581351968712     0.459579276157     1.007825032230
         H            4.488782611562    -2.110938968712     0.600013276157     1.007825032230
         H           -2.910679388438    -1.617224968712     2.221761276157     1.007825032230
         H           -4.529870388438    -0.478011968712    -1.599245723843     1.007825032230
         H           -4.671438388438    -1.841619968712     0.477007276157     1.007825032230

  Basis Set: AUG-CC-PVTZ
    Blend: AUG-CC-PVTZ
  Basis Set: (AUG-CC-PVTZ AUX)
    Blend: AUG-CC-PVTZ-JKFIT
	 Reference Energy          =    -538.4932023109495276 [Eh]
	 Singles Energy            =      -0.0000000000000000 [Eh]
	 Same-Spin Energy          =      -0.6082143823864639 [Eh]
	 Opposite-Spin Energy      =      -1.9348361117926627 [Eh]
	 Correlation Energy        =      -2.5430504941791265 [Eh]
	 Total Energy              =    -541.0362528051286972 [Eh]

	 ================> DF-SCS-MP2 Energies <==================
	-----------------------------------------------------------
	 SCS Same-Spin Scale       =       0.3333333333333333 [-]
	 SCS Opposite-Spin Scale   =       1.2000000000000000 [-]
	 SCS Same-Spin Energy      =      -0.2027381274621546 [Eh]
	 SCS Opposite-Spin Energy  =      -2.3218033341511952 [Eh]
	 SCS Correlation Energy    =      -2.5245414616133499 [Eh]
	 SCS Total Energy          =    -541.0177437725628806 [Eh]
	-----------------------------------------------------------

  Dipole Moment: [D]
     X:     0.3636      Y:    -0.1309      Z:     0.0149     Total:     0.3867

*** Psi4 exiting successfully. Buy a developer a beer!
