                               Psi4 1.4a3.dev225

  ==> Input File <==

--------------------------------------------------------------------------
#psi4
#
memory 32 gb

molecule  {
0 1
  C       -0.5824800     1.6044310    -0.2213210
  C        0.7517090     0.8972820    -0.1584330
  C       -1.7393840     0.6486410    -0.0371650
  C        1.7237550     1.2518080     0.7820810
  C        1.0412590    -0.1412430    -1.0548500
  C        3.2457950    -0.4451680    -0.0684180
  C        2.9517370     0.5872480     0.8282550
  C        2.2676820    -0.7996710    -1.0091590
  C       -1.8261890    -0.1288690     1.1267200
  C       -2.7479113     0.5114930    -1.0259572
  C        4.5537390    -1.1898250     0.0022800
  C       -2.8866350    -1.0143110     1.3128170
  C       -3.7965280    -0.3760470    -0.8307700
  C       -3.8763200    -1.1410390     0.3331560
  H       -0.6887990     2.1194610    -1.1851540
  H       -0.6152960     2.3835930     0.5515720
  H        1.5214970     2.0586850     1.4854080
  H        0.2921320    -0.4400260    -1.7869590
  H        3.6942270     0.8828880     1.5683180
  H        2.4736480    -1.5998700    -1.7190670
  H       -1.0482340    -0.0434160     1.8839740
  H       -2.6776530     1.1110490    -1.9207770
  H        4.8944640    -1.4825890    -0.9952280
  H        5.3329890    -0.5734720     0.4595320
  H        4.4581780    -2.1030590     0.5999660
  H       -2.9412840    -1.6093450     2.2217140
  H       -4.5604750    -0.4701320    -1.5992930
  H       -4.7020430    -1.8337400     0.4769600
units angstrom
no_reorient  #important for SAPT in psi4, default
symmetry c1  #important for SAPT in psi4, default
}

set PROPERTIES_ORIGIN ["COM"]
properties('MP2/aug-cc-pvtz', properties = ['dipole'])
--------------------------------------------------------------------------

    Molecular point group: c1
  Charge       = 0
  Multiplicity = 1
  Basis Set: AUG-CC-PVTZ
    Blend: AUG-CC-PVTZ
  Basis Set: (AUG-CC-PVTZ AUX)
    Blend: AUG-CC-PVTZ-JKFIT

    Orbital Energies [Eh]
    ---------------------

    Doubly Occupied:

       1A    -11.243254     2A    -11.238391     3A    -11.237033
       4A    -11.235510     5A    -11.234778     6A    -11.234141
       7A    -11.231723     8A    -11.231218     9A    -11.231142
      10A    -11.229919    11A    -11.229176    12A    -11.229167
      13A    -11.228692    14A    -11.222993    15A     -1.160062
      16A     -1.144678    17A     -1.073799    18A     -1.022935
      19A     -1.011662    20A     -1.008156    21A     -0.956706
      22A     -0.896418    23A     -0.827785    24A     -0.822442
      25A     -0.803208    26A     -0.774273    27A     -0.693838
      28A     -0.668040    29A     -0.648377    30A     -0.636180
      31A     -0.628455    32A     -0.616455    33A     -0.584042
      34A     -0.578756    35A     -0.575325    36A     -0.569071
      37A     -0.559879    38A     -0.548728    39A     -0.528019
      40A     -0.503238    41A     -0.492470    42A     -0.489072
      43A     -0.477683    44A     -0.472992    45A     -0.471098
      46A     -0.338049    47A     -0.333672    48A     -0.328152
      49A     -0.306748

  @DF-RHF Final Energy:  -538.49318387003314

   => Energetics <=

    Nuclear Repulsion Energy =            785.6646239204060294
    One-Electron Energy =               -2286.7004112675654142
    Two-Electron Energy =                 962.5426034771262493
    Total Energy =                       -538.4931838700331355
  Basis Set: (AUG-CC-PVTZ AUX)
    Blend: AUG-CC-PVTZ-RI
    Molecular point group: c1

    Geometry (in Angstrom), charge = 0, multiplicity = 1:

       Center              X                  Y                   Z               Mass
    ------------   -----------------  -----------------  -----------------  -----------------
         C           -0.551941302609     1.595841295859    -0.220179468218    12.000000000000
         C            0.782247697391     0.888692295859    -0.157291468218    12.000000000000
         C           -1.708845302609     0.640051295859    -0.036023468218    12.000000000000
         C            1.754293697391     1.243218295859     0.783222531782    12.000000000000
         C            1.071797697391    -0.149832704141    -1.053708468218    12.000000000000
         C            3.276333697391    -0.453757704141    -0.067276468218    12.000000000000
         C            2.982275697391     0.578658295859     0.829396531782    12.000000000000
         C            2.298220697391    -0.808260704141    -1.008017468218    12.000000000000
         C           -1.795650302609    -0.137458704141     1.127861531782    12.000000000000
         C           -2.717372602609     0.502903295859    -1.024815668218    12.000000000000
         C            4.584277697391    -1.198414704141     0.003421531782    12.000000000000
         C           -2.856096302609    -1.022900704141     1.313958531782    12.000000000000
         C           -3.765989302609    -0.384636704141    -0.829628468218    12.000000000000
         C           -3.845781302609    -1.149628704141     0.334297531782    12.000000000000
         H           -0.658260302609     2.110871295859    -1.184012468218     1.007825032230
         H           -0.584757302609     2.375003295859     0.552713531782     1.007825032230
         H            1.552035697391     2.050095295859     1.486549531782     1.007825032230
         H            0.322670697391    -0.448615704141    -1.785817468218     1.007825032230
         H            3.724765697391     0.874298295859     1.569459531782     1.007825032230
         H            2.504186697391    -1.608459704141    -1.717925468218     1.007825032230
         H           -1.017695302609    -0.052005704141     1.885115531782     1.007825032230
         H           -2.647114302609     1.102459295859    -1.919635468218     1.007825032230
         H            4.925002697391    -1.491178704141    -0.994086468218     1.007825032230
         H            5.363527697391    -0.582061704141     0.460673531782     1.007825032230
         H            4.488716697391    -2.111648704141     0.601107531782     1.007825032230
         H           -2.910745302609    -1.617934704141     2.222855531782     1.007825032230
         H           -4.529936302609    -0.478721704141    -1.598151468218     1.007825032230
         H           -4.671504302609    -1.842329704141     0.478101531782     1.007825032230

  Basis Set: AUG-CC-PVTZ
    Blend: AUG-CC-PVTZ
  Basis Set: (AUG-CC-PVTZ AUX)
    Blend: AUG-CC-PVTZ-JKFIT
	 Reference Energy          =    -538.4931838700331355 [Eh]
	 Singles Energy            =      -0.0000000000000000 [Eh]
	 Same-Spin Energy          =      -0.6082180517140856 [Eh]
	 Opposite-Spin Energy      =      -1.9347949152812640 [Eh]
	 Correlation Energy        =      -2.5430129669953496 [Eh]
	 Total Energy              =    -541.0361968370284558 [Eh]

	 ================> DF-SCS-MP2 Energies <==================
	-----------------------------------------------------------
	 SCS Same-Spin Scale       =       0.3333333333333333 [-]
	 SCS Opposite-Spin Scale   =       1.2000000000000000 [-]
	 SCS Same-Spin Energy      =      -0.2027393505713619 [Eh]
	 SCS Opposite-Spin Energy  =      -2.3217538983375166 [Eh]
	 SCS Correlation Energy    =      -2.5244932489088785 [Eh]
	 SCS Total Energy          =    -541.0176771189420606 [Eh]
	-----------------------------------------------------------

  Dipole Moment: [D]
     X:     0.3689      Y:    -0.1229      Z:     0.0081     Total:     0.3889

*** Psi4 exiting successfully. Buy a developer a beer!
