                               Psi4 1.4a3.dev225

  ==> Input File <==

--------------------------------------------------------------------------
#psi4
#
memory 32 gb

molecule  {
0 1
  C       -0.5824800     1.6044310    -0.2213210
  C        0.7517090     0.8972820    -0.1584330
  C       -1.7393840     0.6486410    -0.0371650
  C        1.7237550     1.2518080     0.7820810
  C        1.0412590    -0.1412430    -1.0548500
  C        3.2457950    -0.4451680    -0.0684180
  C        2.9517370     0.5872480     0.8282550
  C        2.2676820    -0.7996710    -1.0091590
  C       -1.8261890    -0.1288690     1.1267200
  C       -2.7336970     0.5134260    -1.0120210
  C        4.5537390    -1.1898250     0.0022800
  C       -2.8866350    -1.0143110     1.3128170
  C       -3.7965280    -0.3760470    -0.8307700
  C       -3.8763200    -1.1410390     0.3331560
  H       -0.6887990     2.1194610    -1.1851540
  H       -0.6152960     2.3835930     0.5515720
  H        1.5214970     2.0586850     1.4854080
  H        0.2921320    -0.4400260    -1.7869590
  H        3.6942270     0.8828880     1.5683180
  H        2.4736480    -1.5998700    -1.7190670
  H       -1.0482340    -0.0434160     1.8839740
  H       -2.6776530     1.1110490    -1.9207770
  H        4.8944640    -1.4825890    -0.9952280
  H        5.3329890    -0.5734720     0.4595320
  H        4.4756224    -1.9363508     0.4908602
  H       -2.9412840    -1.6093450     2.2217140
  H       -4.5604750    -0.4701320    -1.5992930
  H       -4.7020430    -1.8337400     0.4769600
units angstrom
no_reorient  #important for SAPT in psi4, default
symmetry c1  #important for SAPT in psi4, default
}

set PROPERTIES_ORIGIN ["COM"]
properties('MP2/aug-cc-pvtz', properties = ['dipole'])
--------------------------------------------------------------------------

    Molecular point group: c1
  Charge       = 0
  Multiplicity = 1
  Basis Set: AUG-CC-PVTZ
    Blend: AUG-CC-PVTZ
  Basis Set: (AUG-CC-PVTZ AUX)
    Blend: AUG-CC-PVTZ-JKFIT

    Orbital Energies [Eh]
    ---------------------

    Doubly Occupied:

       1A    -11.240911     2A    -11.237345     3A    -11.236494
       4A    -11.235014     5A    -11.234901     6A    -11.234418
       7A    -11.231370     8A    -11.231134     9A    -11.230790
      10A    -11.229479    11A    -11.229287    12A    -11.228572
      13A    -11.228243    14A    -11.198361    15A     -1.160540
      16A     -1.145319    17A     -1.076022    18A     -1.028891
      19A     -1.010090    20A     -1.007725    21A     -0.967649
      22A     -0.904671    23A     -0.827784    24A     -0.822640
      25A     -0.804450    26A     -0.775719    27A     -0.693445
      28A     -0.671469    29A     -0.647848    30A     -0.635249
      31A     -0.629386    32A     -0.617807    33A     -0.607187
      34A     -0.582519    35A     -0.578261    36A     -0.570884
      37A     -0.559317    38A     -0.547697    39A     -0.527232
      40A     -0.504175    41A     -0.491144    42A     -0.489973
      43A     -0.477243    44A     -0.474372    45A     -0.472015
      46A     -0.336962    47A     -0.333511    48A     -0.329374
      49A     -0.307793

  @DF-RHF Final Energy:  -538.46025947276257

   => Energetics <=

    Nuclear Repulsion Energy =            786.9506649988184108
    One-Electron Energy =               -2289.1364793419543275
    Two-Electron Energy =                 963.7255548703733439
    Total Energy =                       -538.4602594727625728
  Basis Set: (AUG-CC-PVTZ AUX)
    Blend: AUG-CC-PVTZ-RI
    Molecular point group: c1

    Geometry (in Angstrom), charge = 0, multiplicity = 1:

       Center              X                  Y                   Z               Mass
    ------------   -----------------  -----------------  -----------------  -----------------
         C           -0.552974485671     1.594791330623    -0.220493975850    12.000000000000
         C            0.781214514329     0.887642330623    -0.157605975850    12.000000000000
         C           -1.709878485671     0.639001330623    -0.036337975850    12.000000000000
         C            1.753260514329     1.242168330623     0.782908024150    12.000000000000
         C            1.070764514329    -0.150882669377    -1.054022975850    12.000000000000
         C            3.275300514329    -0.454807669377    -0.067590975850    12.000000000000
         C            2.981242514329     0.577608330623     0.829082024150    12.000000000000
         C            2.297187514329    -0.809310669377    -1.008331975850    12.000000000000
         C           -1.796683485671    -0.138508669377     1.127547024150    12.000000000000
         C           -2.704191485671     0.503786330623    -1.011193975850    12.000000000000
         C            4.583244514329    -1.199464669377     0.003107024150    12.000000000000
         C           -2.857129485671    -1.023950669377     1.313644024150    12.000000000000
         C           -3.767022485671    -0.385686669377    -0.829942975850    12.000000000000
         C           -3.846814485671    -1.150678669377     0.333983024150    12.000000000000
         H           -0.659293485671     2.109821330623    -1.184326975850     1.007825032230
         H           -0.585790485671     2.373953330623     0.552399024150     1.007825032230
         H            1.551002514329     2.049045330623     1.486235024150     1.007825032230
         H            0.321637514329    -0.449665669377    -1.786131975850     1.007825032230
         H            3.723732514329     0.873248330623     1.569145024150     1.007825032230
         H            2.503153514329    -1.609509669377    -1.718239975850     1.007825032230
         H           -1.018728485671    -0.053055669377     1.884801024150     1.007825032230
         H           -2.648147485671     1.101409330623    -1.919949975850     1.007825032230
         H            4.923969514329    -1.492228669377    -0.994400975850     1.007825032230
         H            5.362494514329    -0.583111669377     0.460359024150     1.007825032230
         H            4.505127914329    -1.945990469377     0.491687224150     1.007825032230
         H           -2.911778485671    -1.618984669377     2.222541024150     1.007825032230
         H           -4.530969485671    -0.479771669377    -1.598465975850     1.007825032230
         H           -4.672537485671    -1.843379669377     0.477787024150     1.007825032230

  Basis Set: AUG-CC-PVTZ
    Blend: AUG-CC-PVTZ
  Basis Set: (AUG-CC-PVTZ AUX)
    Blend: AUG-CC-PVTZ-JKFIT
	 Reference Energy          =    -538.4602594727625728 [Eh]
	 Singles Energy            =      -0.0000000000000000 [Eh]
	 Same-Spin Energy          =      -0.6083217736755674 [Eh]
	 Opposite-Spin Energy      =      -1.9341404436836740 [Eh]
	 Correlation Energy        =      -2.5424622173592413 [Eh]
	 Total Energy              =    -541.0027216901218026 [Eh]

	 ================> DF-SCS-MP2 Energies <==================
	-----------------------------------------------------------
	 SCS Same-Spin Scale       =       0.3333333333333333 [-]
	 SCS Opposite-Spin Scale   =       1.2000000000000000 [-]
	 SCS Same-Spin Energy      =      -0.2027739245585224 [Eh]
	 SCS Opposite-Spin Energy  =      -2.3209685324204088 [Eh]
	 SCS Correlation Energy    =      -2.5237424569789311 [Eh]
	 SCS Total Energy          =    -540.9840019297414528 [Eh]
	-----------------------------------------------------------

  Dipole Moment: [D]
     X:     0.3997      Y:    -0.1862      Z:     0.0354     Total:     0.4423

*** Psi4 exiting successfully. Buy a developer a beer!
