                               Psi4 1.4a3.dev225

  ==> Input File <==

--------------------------------------------------------------------------
#psi4
#
memory 32 gb

molecule  {
0 1
  C       -0.5824800     1.6044310    -0.2213210
  C        0.7517090     0.8972820    -0.1584330
  C       -1.7393840     0.6486410    -0.0371650
  C        1.7237550     1.2518080     0.7820810
  C        1.0412590    -0.1412430    -1.0548500
  C        3.2457950    -0.4451680    -0.0684180
  C        2.9517370     0.5872480     0.8282550
  C        2.2676820    -0.7996710    -1.0091590
  C       -1.8261890    -0.1288690     1.1267200
  C       -2.7336970     0.5134260    -1.0120210
  C        4.5537390    -1.1898250     0.0022800
  C       -2.8866350    -1.0143110     1.3128170
  C       -3.7965280    -0.3760470    -0.8307700
  C       -3.9391515    -1.2403432     0.4204099
  H       -0.6887990     2.1194610    -1.1851540
  H       -0.6152960     2.3835930     0.5515720
  H        1.5214970     2.0586850     1.4854080
  H        0.2921320    -0.4400260    -1.7869590
  H        3.6942270     0.8828880     1.5683180
  H        2.4736480    -1.5998700    -1.7190670
  H       -1.0482340    -0.0434160     1.8839740
  H       -2.6776530     1.1110490    -1.9207770
  H        4.8944640    -1.4825890    -0.9952280
  H        5.3329890    -0.5734720     0.4595320
  H        4.4581780    -2.1030590     0.5999660
  H       -2.9412840    -1.6093450     2.2217140
  H       -4.5604750    -0.4701320    -1.5992930
  H       -4.7020430    -1.8337400     0.4769600
units angstrom
no_reorient  #important for SAPT in psi4, default
symmetry c1  #important for SAPT in psi4, default
}

set PROPERTIES_ORIGIN ["COM"]
properties('MP2/aug-cc-pvtz', properties = ['dipole'])
--------------------------------------------------------------------------

    Molecular point group: c1
  Charge       = 0
  Multiplicity = 1
  Basis Set: AUG-CC-PVTZ
    Blend: AUG-CC-PVTZ
  Basis Set: (AUG-CC-PVTZ AUX)
    Blend: AUG-CC-PVTZ-JKFIT

    Orbital Energies [Eh]
    ---------------------

    Doubly Occupied:

       1A    -11.248866     2A    -11.244448     3A    -11.238726
       4A    -11.237706     5A    -11.237473     6A    -11.236398
       7A    -11.235287     8A    -11.232277     9A    -11.231640
      10A    -11.230329    11A    -11.229510    12A    -11.229247
      13A    -11.229091    14A    -11.223192    15A     -1.159133
      16A     -1.139423    17A     -1.071360    18A     -1.024382
      19A     -1.008583    20A     -1.003639    21A     -0.958730
      22A     -0.899409    23A     -0.828391    24A     -0.816913
      25A     -0.810320    26A     -0.776320    27A     -0.702235
      28A     -0.670240    29A     -0.649599    30A     -0.641010
      31A     -0.628688    32A     -0.614549    33A     -0.586109
      34A     -0.578953    35A     -0.574481    36A     -0.569964
      37A     -0.560177    38A     -0.548349    39A     -0.531512
      40A     -0.510730    41A     -0.489772    42A     -0.480130
      43A     -0.476221    44A     -0.472149    45A     -0.463406
      46A     -0.338344    47A     -0.334642    48A     -0.325492
      49A     -0.303349

  @DF-RHF Final Energy:  -538.46445206735200

   => Energetics <=

    Nuclear Repulsion Energy =            783.6190209008583452
    One-Electron Energy =               -2282.5051563893111961
    Two-Electron Energy =                 960.4216834211009655
    Total Energy =                       -538.4644520673519992
  Basis Set: (AUG-CC-PVTZ AUX)
    Blend: AUG-CC-PVTZ-RI
    Molecular point group: c1

    Geometry (in Angstrom), charge = 0, multiplicity = 1:

       Center              X                  Y                   Z               Mass
    ------------   -----------------  -----------------  -----------------  -----------------
         C           -0.548737701268     1.602257512894    -0.226847329387    12.000000000000
         C            0.785451298732     0.895108512894    -0.163959329387    12.000000000000
         C           -1.705641701268     0.646467512894    -0.042691329387    12.000000000000
         C            1.757497298732     1.249634512894     0.776554670613    12.000000000000
         C            1.075001298732    -0.143416487106    -1.060376329387    12.000000000000
         C            3.279537298732    -0.447341487106    -0.073944329387    12.000000000000
         C            2.985479298732     0.585074512894     0.822728670613    12.000000000000
         C            2.301424298732    -0.801844487106    -1.014685329387    12.000000000000
         C           -1.792446701268    -0.131042487106     1.121193670613    12.000000000000
         C           -2.699954701268     0.511252512894    -1.017547329387    12.000000000000
         C            4.587481298732    -1.191998487106    -0.003246329387    12.000000000000
         C           -2.852892701268    -1.016484487106     1.307290670613    12.000000000000
         C           -3.762785701268    -0.378220487106    -0.836296329387    12.000000000000
         C           -3.905409201268    -1.242516687106     0.414883570613    12.000000000000
         H           -0.655056701268     2.117287512894    -1.190680329387     1.007825032230
         H           -0.581553701268     2.381419512894     0.546045670613     1.007825032230
         H            1.555239298732     2.056511512894     1.479881670613     1.007825032230
         H            0.325874298732    -0.442199487106    -1.792485329387     1.007825032230
         H            3.727969298732     0.880714512894     1.562791670613     1.007825032230
         H            2.507390298732    -1.602043487106    -1.724593329387     1.007825032230
         H           -1.014491701268    -0.045589487106     1.878447670613     1.007825032230
         H           -2.643910701268     1.108875512894    -1.926303329387     1.007825032230
         H            4.928206298732    -1.484762487106    -1.000754329387     1.007825032230
         H            5.366731298732    -0.575645487106     0.454005670613     1.007825032230
         H            4.491920298732    -2.105232487106     0.594439670613     1.007825032230
         H           -2.907541701268    -1.611518487106     2.216187670613     1.007825032230
         H           -4.526732701268    -0.472305487106    -1.604819329387     1.007825032230
         H           -4.668300701268    -1.835913487106     0.471433670613     1.007825032230

  Basis Set: AUG-CC-PVTZ
    Blend: AUG-CC-PVTZ
  Basis Set: (AUG-CC-PVTZ AUX)
    Blend: AUG-CC-PVTZ-JKFIT
	 Reference Energy          =    -538.4644520673519992 [Eh]
	 Singles Energy            =      -0.0000000000000000 [Eh]
	 Same-Spin Energy          =      -0.6084312534765621 [Eh]
	 Opposite-Spin Energy      =      -1.9369126470967797 [Eh]
	 Correlation Energy        =      -2.5453439005733420 [Eh]
	 Total Energy              =    -541.0097959679253563 [Eh]

	 ================> DF-SCS-MP2 Energies <==================
	-----------------------------------------------------------
	 SCS Same-Spin Scale       =       0.3333333333333333 [-]
	 SCS Opposite-Spin Scale   =       1.2000000000000000 [-]
	 SCS Same-Spin Energy      =      -0.2028104178255207 [Eh]
	 SCS Opposite-Spin Energy  =      -2.3242951765161357 [Eh]
	 SCS Correlation Energy    =      -2.5271055943416565 [Eh]
	 SCS Total Energy          =    -540.9915576616936050 [Eh]
	-----------------------------------------------------------

  Dipole Moment: [D]
     X:     0.3867      Y:    -0.1217      Z:    -0.0062     Total:     0.4055

*** Psi4 exiting successfully. Buy a developer a beer!
