                               Psi4 1.4a3.dev225

  ==> Input File <==

--------------------------------------------------------------------------
#psi4
#
memory 32 gb

molecule  {
0 1
  C       -0.5824800     1.6044310    -0.2213210
  C        0.7517090     0.8972820    -0.1584330
  C       -1.7393840     0.6486410    -0.0371650
  C        1.7237550     1.2518080     0.7820810
  C        1.0412590    -0.1412430    -1.0548500
  C        3.2457950    -0.4451680    -0.0684180
  C        2.9517370     0.5872480     0.8282550
  C        2.2676820    -0.7996710    -1.0091590
  C       -1.8261890    -0.1288690     1.1267200
  C       -2.7336970     0.5134260    -1.0120210
  C        4.5537390    -1.1898250     0.0022800
  C       -2.8866350    -1.0143110     1.3128170
  C       -3.7965280    -0.3760470    -0.8307700
  C       -3.8763200    -1.1410390     0.3331560
  H       -0.6887990     2.1194610    -1.1851540
  H       -0.6152960     2.3835930     0.5515720
  H        1.5214970     2.0586850     1.4854080
  H        0.2921320    -0.4400260    -1.7869590
  H        3.6942270     0.8828880     1.5683180
  H        2.4736480    -1.5998700    -1.7190670
  H       -1.0482340    -0.0434160     1.8839740
  H       -2.6776530     1.1110490    -1.9207770
  H        4.8942782    -1.4642372    -1.0004949
  H        5.3329890    -0.5734720     0.4595320
  H        4.4581780    -2.1030590     0.5999660
  H       -2.9412840    -1.6093450     2.2217140
  H       -4.5604750    -0.4701320    -1.5992930
  H       -4.7020430    -1.8337400     0.4769600
units angstrom
no_reorient  #important for SAPT in psi4, default
symmetry c1  #important for SAPT in psi4, default
}

set PROPERTIES_ORIGIN ["COM"]
properties('MP2/aug-cc-pvtz', properties = ['dipole'])
--------------------------------------------------------------------------

    Molecular point group: c1
  Charge       = 0
  Multiplicity = 1
  Basis Set: AUG-CC-PVTZ
    Blend: AUG-CC-PVTZ
  Basis Set: (AUG-CC-PVTZ AUX)
    Blend: AUG-CC-PVTZ-JKFIT

    Orbital Energies [Eh]
    ---------------------

    Doubly Occupied:

       1A    -11.241071     2A    -11.238239     3A    -11.236923
       4A    -11.235276     5A    -11.235023     6A    -11.234537
       7A    -11.231511     8A    -11.231262     9A    -11.231144
      10A    -11.229883    11A    -11.229428    12A    -11.229083
      13A    -11.228656    14A    -11.222976    15A     -1.160644
      16A     -1.145247    17A     -1.073821    18A     -1.024029
      19A     -1.010170    20A     -1.008102    21A     -0.957290
      22A     -0.896167    23A     -0.828082    24A     -0.822827
      25A     -0.802893    26A     -0.774537    27A     -0.693369
      28A     -0.667751    29A     -0.648306    30A     -0.635083
      31A     -0.628438    32A     -0.617644    33A     -0.582822
      34A     -0.578748    35A     -0.576432    36A     -0.569637
      37A     -0.559898    38A     -0.547874    39A     -0.527508
      40A     -0.502892    41A     -0.491317    42A     -0.490192
      43A     -0.477456    44A     -0.473521    45A     -0.471387
      46A     -0.337089    47A     -0.333697    48A     -0.329288
      49A     -0.307336

  @DF-RHF Final Energy:  -538.49379506641230

   => Energetics <=

    Nuclear Repulsion Energy =            785.9792324416761176
    One-Electron Energy =               -2287.3330430340492967
    Two-Electron Energy =                 962.8600155259607618
    Total Energy =                       -538.4937950664123036
  Basis Set: (AUG-CC-PVTZ AUX)
    Blend: AUG-CC-PVTZ-RI
    Molecular point group: c1

    Geometry (in Angstrom), charge = 0, multiplicity = 1:

       Center              X                  Y                   Z               Mass
    ------------   -----------------  -----------------  -----------------  -----------------
         C           -0.552876917164     1.595612360016    -0.221068637874    12.000000000000
         C            0.781312082836     0.888463360016    -0.158180637874    12.000000000000
         C           -1.709780917164     0.639822360016    -0.036912637874    12.000000000000
         C            1.753358082836     1.242989360016     0.782333362126    12.000000000000
         C            1.070862082836    -0.150061639984    -1.054597637874    12.000000000000
         C            3.275398082836    -0.453986639984    -0.068165637874    12.000000000000
         C            2.981340082836     0.578429360016     0.828507362126    12.000000000000
         C            2.297285082836    -0.808489639984    -1.008906637874    12.000000000000
         C           -1.796585917164    -0.137687639984     1.126972362126    12.000000000000
         C           -2.704093917164     0.504607360016    -1.011768637874    12.000000000000
         C            4.583342082836    -1.198643639984     0.002532362126    12.000000000000
         C           -2.857031917164    -1.023129639984     1.313069362126    12.000000000000
         C           -3.766924917164    -0.384865639984    -0.830517637874    12.000000000000
         C           -3.846716917164    -1.149857639984     0.333408362126    12.000000000000
         H           -0.659195917164     2.110642360016    -1.184901637874     1.007825032230
         H           -0.585692917164     2.374774360016     0.551824362126     1.007825032230
         H            1.551100082836     2.049866360016     1.485660362126     1.007825032230
         H            0.321735082836    -0.448844639984    -1.786706637874     1.007825032230
         H            3.723830082836     0.874069360016     1.568570362126     1.007825032230
         H            2.503251082836    -1.608688639984    -1.718814637874     1.007825032230
         H           -1.018630917164    -0.052234639984     1.884226362126     1.007825032230
         H           -2.648049917164     1.102230360016    -1.920524637874     1.007825032230
         H            4.923881282836    -1.473055839984    -1.000242537874     1.007825032230
         H            5.362592082836    -0.582290639984     0.459784362126     1.007825032230
         H            4.487781082836    -2.111877639984     0.600218362126     1.007825032230
         H           -2.911680917164    -1.618163639984     2.221966362126     1.007825032230
         H           -4.530871917164    -0.478950639984    -1.599040637874     1.007825032230
         H           -4.672439917164    -1.842558639984     0.477212362126     1.007825032230

  Basis Set: AUG-CC-PVTZ
    Blend: AUG-CC-PVTZ
  Basis Set: (AUG-CC-PVTZ AUX)
    Blend: AUG-CC-PVTZ-JKFIT
	 Reference Energy          =    -538.4937950664123036 [Eh]
	 Singles Energy            =      -0.0000000000000000 [Eh]
	 Same-Spin Energy          =      -0.6081973188379072 [Eh]
	 Opposite-Spin Energy      =      -1.9347551267906660 [Eh]
	 Correlation Energy        =      -2.5429524456285733 [Eh]
	 Total Energy              =    -541.0367475120408471 [Eh]

	 ================> DF-SCS-MP2 Energies <==================
	-----------------------------------------------------------
	 SCS Same-Spin Scale       =       0.3333333333333333 [-]
	 SCS Opposite-Spin Scale   =       1.2000000000000000 [-]
	 SCS Same-Spin Energy      =      -0.2027324396126357 [Eh]
	 SCS Opposite-Spin Energy  =      -2.3217061521487992 [Eh]
	 SCS Correlation Energy    =      -2.5244385917614349 [Eh]
	 SCS Total Energy          =    -541.0182336581736990 [Eh]
	-----------------------------------------------------------

  Dipole Moment: [D]
     X:     0.3641      Y:    -0.1237      Z:     0.0102     Total:     0.3846

*** Psi4 exiting successfully. Buy a developer a beer!
