                               Psi4 1.4a3.dev225

  ==> Input File <==

--------------------------------------------------------------------------
#psi4
#
memory 32 gb

molecule  {
0 1
  C       -0.5824800     1.6044310    -0.2213210
  C        0.7517090     0.8972820    -0.1584330
  C       -1.7393840     0.6486410    -0.0371650
  C        1.7237550     1.2518080     0.7820810
  C        1.0453892    -0.1560567    -1.0676366
  C        3.2457950    -0.4451680    -0.0684180
  C        2.9517370     0.5872480     0.8282550
  C        2.2676820    -0.7996710    -1.0091590
  C       -1.8261890    -0.1288690     1.1267200
  C       -2.7336970     0.5134260    -1.0120210
  C        4.5537390    -1.1898250     0.0022800
  C       -2.8866350    -1.0143110     1.3128170
  C       -3.7965280    -0.3760470    -0.8307700
  C       -3.8763200    -1.1410390     0.3331560
  H       -0.6887990     2.1194610    -1.1851540
  H       -0.6152960     2.3835930     0.5515720
  H        1.5214970     2.0586850     1.4854080
  H        0.2921320    -0.4400260    -1.7869590
  H        3.6942270     0.8828880     1.5683180
  H        2.4736480    -1.5998700    -1.7190670
  H       -1.0482340    -0.0434160     1.8839740
  H       -2.6776530     1.1110490    -1.9207770
  H        4.8944640    -1.4825890    -0.9952280
  H        5.3329890    -0.5734720     0.4595320
  H        4.4581780    -2.1030590     0.5999660
  H       -2.9412840    -1.6093450     2.2217140
  H       -4.5604750    -0.4701320    -1.5992930
  H       -4.7020430    -1.8337400     0.4769600
units angstrom
no_reorient  #important for SAPT in psi4, default
symmetry c1  #important for SAPT in psi4, default
}

set PROPERTIES_ORIGIN ["COM"]
properties('MP2/aug-cc-pvtz', properties = ['dipole'])
--------------------------------------------------------------------------

    Molecular point group: c1
  Charge       = 0
  Multiplicity = 1
  Basis Set: AUG-CC-PVTZ
    Blend: AUG-CC-PVTZ
  Basis Set: (AUG-CC-PVTZ AUX)
    Blend: AUG-CC-PVTZ-JKFIT

    Orbital Energies [Eh]
    ---------------------

    Doubly Occupied:

       1A    -11.241166     2A    -11.238972     3A    -11.238341
       4A    -11.235484     5A    -11.235115     6A    -11.234607
       7A    -11.231624     8A    -11.231361     9A    -11.230898
      10A    -11.229887    11A    -11.229494    12A    -11.229092
      13A    -11.228151    14A    -11.222980    15A     -1.159945
      16A     -1.144992    17A     -1.073153    18A     -1.023415
      19A     -1.010350    20A     -1.009525    21A     -0.957416
      22A     -0.895388    23A     -0.827587    24A     -0.822569
      25A     -0.803136    26A     -0.774927    27A     -0.693404
      28A     -0.668130    29A     -0.648239    30A     -0.635149
      31A     -0.629011    32A     -0.618161    33A     -0.582876
      34A     -0.579974    35A     -0.575248    36A     -0.569489
      37A     -0.559489    38A     -0.547758    39A     -0.527805
      40A     -0.503397    41A     -0.491156    42A     -0.490815
      43A     -0.475718    44A     -0.473959    45A     -0.471507
      46A     -0.337250    47A     -0.334202    48A     -0.329928
      49A     -0.305742

  @DF-RHF Final Energy:  -538.49328753175598

   => Energetics <=

    Nuclear Repulsion Energy =            785.7052251220651442
    One-Electron Energy =               -2286.7810606323969296
    Two-Electron Energy =                 962.5825479785756897
    Total Energy =                       -538.4932875317559819
  Basis Set: (AUG-CC-PVTZ AUX)
    Blend: AUG-CC-PVTZ-RI
    Molecular point group: c1

    Geometry (in Angstrom), charge = 0, multiplicity = 1:

       Center              X                  Y                   Z               Mass
    ------------   -----------------  -----------------  -----------------  -----------------
         C           -0.553150102474     1.596690061888    -0.220255220423    12.000000000000
         C            0.781038897526     0.889541061888    -0.157367220423    12.000000000000
         C           -1.710054102474     0.640900061888    -0.036099220423    12.000000000000
         C            1.753084897526     1.244067061888     0.783146779577    12.000000000000
         C            1.074719097526    -0.163797638112    -1.066570820423    12.000000000000
         C            3.275124897526    -0.452908938112    -0.067352220423    12.000000000000
         C            2.981066897526     0.579507061888     0.829320779577    12.000000000000
         C            2.297011897526    -0.807411938112    -1.008093220423    12.000000000000
         C           -1.796859102474    -0.136609938112     1.127785779577    12.000000000000
         C           -2.704367102474     0.505685061888    -1.010955220423    12.000000000000
         C            4.583068897526    -1.197565938112     0.003345779577    12.000000000000
         C           -2.857305102474    -1.022051938112     1.313882779577    12.000000000000
         C           -3.767198102474    -0.383787938112    -0.829704220423    12.000000000000
         C           -3.846990102474    -1.148779938112     0.334221779577    12.000000000000
         H           -0.659469102474     2.111720061888    -1.184088220423     1.007825032230
         H           -0.585966102474     2.375852061888     0.552637779577     1.007825032230
         H            1.550826897526     2.050944061888     1.486473779577     1.007825032230
         H            0.321461897526    -0.447766938112    -1.785893220423     1.007825032230
         H            3.723556897526     0.875147061888     1.569383779577     1.007825032230
         H            2.502977897526    -1.607610938112    -1.718001220423     1.007825032230
         H           -1.018904102474    -0.051156938112     1.885039779577     1.007825032230
         H           -2.648323102474     1.103308061888    -1.919711220423     1.007825032230
         H            4.923793897526    -1.490329938112    -0.994162220423     1.007825032230
         H            5.362318897526    -0.581212938112     0.460597779577     1.007825032230
         H            4.487507897526    -2.110799938112     0.601031779577     1.007825032230
         H           -2.911954102474    -1.617085938112     2.222779779577     1.007825032230
         H           -4.531145102474    -0.477872938112    -1.598227220423     1.007825032230
         H           -4.672713102474    -1.841480938112     0.478025779577     1.007825032230

  Basis Set: AUG-CC-PVTZ
    Blend: AUG-CC-PVTZ
  Basis Set: (AUG-CC-PVTZ AUX)
    Blend: AUG-CC-PVTZ-JKFIT
	 Reference Energy          =    -538.4932875317559819 [Eh]
	 Singles Energy            =      -0.0000000000000000 [Eh]
	 Same-Spin Energy          =      -0.6081375821484128 [Eh]
	 Opposite-Spin Energy      =      -1.9347807372142560 [Eh]
	 Correlation Energy        =      -2.5429183193626690 [Eh]
	 Total Energy              =    -541.0362058511186660 [Eh]

	 ================> DF-SCS-MP2 Energies <==================
	-----------------------------------------------------------
	 SCS Same-Spin Scale       =       0.3333333333333333 [-]
	 SCS Opposite-Spin Scale   =       1.2000000000000000 [-]
	 SCS Same-Spin Energy      =      -0.2027125273828043 [Eh]
	 SCS Opposite-Spin Energy  =      -2.3217368846571071 [Eh]
	 SCS Correlation Energy    =      -2.5244494120399112 [Eh]
	 SCS Total Energy          =    -541.0177369437958532 [Eh]
	-----------------------------------------------------------

  Dipole Moment: [D]
     X:     0.3530      Y:    -0.1263      Z:     0.0103     Total:     0.3751

*** Psi4 exiting successfully. Buy a developer a beer!
