                               Psi4 1.4a3.dev225

  ==> Input File <==

--------------------------------------------------------------------------
#psi4
#
memory 32 gb

molecule  {
0 1
  C       -0.5824800     1.6044310    -0.2213210
  C        0.7517090     0.8972820    -0.1584330
  C       -1.7393840     0.6486410    -0.0371650
  C        1.7237550     1.2518080     0.7820810
  C        1.0412590    -0.1412430    -1.0548500
  C        3.2457950    -0.4451680    -0.0684180
  C        2.9517370     0.5872480     0.8282550
  C        2.2676820    -0.7996710    -1.0091590
  C       -1.8261890    -0.1288690     1.1267200
  C       -2.7336970     0.5134260    -1.0120210
  C        4.5537390    -1.1898250     0.0022800
  C       -2.8866350    -1.0143110     1.3128170
  C       -3.7965280    -0.3760470    -0.8307700
  C       -3.8763200    -1.1410390     0.3331560
  H       -0.6887990     2.1194610    -1.1851540
  H       -0.6152960     2.3835930     0.5515720
  H        1.5214970     2.0586850     1.4854080
  H        0.2921320    -0.4400260    -1.7869590
  H        3.6942270     0.8828880     1.5683180
  H        2.4736480    -1.5998700    -1.7190670
  H       -1.0482340    -0.0434160     1.8839740
  H       -2.6776530     1.1110490    -1.9207770
  H        4.8788915    -1.4692085    -0.9496379
  H        5.3329890    -0.5734720     0.4595320
  H        4.4581780    -2.1030590     0.5999660
  H       -2.9412840    -1.6093450     2.2217140
  H       -4.5604750    -0.4701320    -1.5992930
  H       -4.7020430    -1.8337400     0.4769600
units angstrom
no_reorient  #important for SAPT in psi4, default
symmetry c1  #important for SAPT in psi4, default
}

set PROPERTIES_ORIGIN ["COM"]
properties('MP2/aug-cc-pvtz', properties = ['dipole'])
--------------------------------------------------------------------------

    Molecular point group: c1
  Charge       = 0
  Multiplicity = 1
  Basis Set: AUG-CC-PVTZ
    Blend: AUG-CC-PVTZ
  Basis Set: (AUG-CC-PVTZ AUX)
    Blend: AUG-CC-PVTZ-JKFIT

    Orbital Energies [Eh]
    ---------------------

    Doubly Occupied:

       1A    -11.241005     2A    -11.237982     3A    -11.236775
       4A    -11.235186     5A    -11.234971     6A    -11.234482
       7A    -11.231453     8A    -11.231207     9A    -11.230999
      10A    -11.229813    11A    -11.229365    12A    -11.228825
      13A    -11.228584    14A    -11.216833    15A     -1.160567
      16A     -1.145200    17A     -1.074087    18A     -1.024775
      19A     -1.010120    20A     -1.007971    21A     -0.959189
      22A     -0.898110    23A     -0.827978    24A     -0.822803
      25A     -0.803276    26A     -0.774766    27A     -0.693358
      28A     -0.668214    29A     -0.648821    30A     -0.635116
      31A     -0.628842    32A     -0.617793    33A     -0.582757
      34A     -0.578645    35A     -0.578089    36A     -0.569394
      37A     -0.559889    38A     -0.551385    39A     -0.529842
      40A     -0.502697    41A     -0.491629    42A     -0.490114
      43A     -0.477740    44A     -0.473461    45A     -0.471238
      46A     -0.336977    47A     -0.333630    48A     -0.329241
      49A     -0.307213

  @DF-RHF Final Energy:  -538.49287646070138

   => Energetics <=

    Nuclear Repulsion Energy =            786.1904115213770865
    One-Electron Energy =               -2287.7417627110230569
    Two-Electron Energy =                 963.0584747289447023
    Total Energy =                       -538.4928764607013818
  Basis Set: (AUG-CC-PVTZ AUX)
    Blend: AUG-CC-PVTZ-RI
    Molecular point group: c1

    Geometry (in Angstrom), charge = 0, multiplicity = 1:

       Center              X                  Y                   Z               Mass
    ------------   -----------------  -----------------  -----------------  -----------------
         C           -0.552791764566     1.595639872030    -0.221350089107    12.000000000000
         C            0.781397235434     0.888490872030    -0.158462089107    12.000000000000
         C           -1.709695764566     0.639849872030    -0.037194089107    12.000000000000
         C            1.753443235434     1.243016872030     0.782051910893    12.000000000000
         C            1.070947235434    -0.150034127970    -1.054879089107    12.000000000000
         C            3.275483235434    -0.453959127970    -0.068447089107    12.000000000000
         C            2.981425235434     0.578456872030     0.828225910893    12.000000000000
         C            2.297370235434    -0.808462127970    -1.009188089107    12.000000000000
         C           -1.796500764566    -0.137660127970     1.126690910893    12.000000000000
         C           -2.704008764566     0.504634872030    -1.012050089107    12.000000000000
         C            4.583427235434    -1.198616127970     0.002250910893    12.000000000000
         C           -2.856946764566    -1.023102127970     1.312787910893    12.000000000000
         C           -3.766839764566    -0.384838127970    -0.830799089107    12.000000000000
         C           -3.846631764566    -1.149830127970     0.333126910893    12.000000000000
         H           -0.659110764566     2.110669872030    -1.185183089107     1.007825032230
         H           -0.585607764566     2.374801872030     0.551542910893     1.007825032230
         H            1.551185235434     2.049893872030     1.485378910893     1.007825032230
         H            0.321820235434    -0.448817127970    -1.786988089107     1.007825032230
         H            3.723915235434     0.874096872030     1.568288910893     1.007825032230
         H            2.503336235434    -1.608661127970    -1.719096089107     1.007825032230
         H           -1.018545764566    -0.052207127970     1.883944910893     1.007825032230
         H           -2.647964764566     1.102257872030    -1.920806089107     1.007825032230
         H            4.908579735434    -1.477999627970    -0.949666989107     1.007825032230
         H            5.362677235434    -0.582263127970     0.459502910893     1.007825032230
         H            4.487866235434    -2.111850127970     0.599936910893     1.007825032230
         H           -2.911595764566    -1.618136127970     2.221684910893     1.007825032230
         H           -4.530786764566    -0.478923127970    -1.599322089107     1.007825032230
         H           -4.672354764566    -1.842531127970     0.476930910893     1.007825032230

  Basis Set: AUG-CC-PVTZ
    Blend: AUG-CC-PVTZ
  Basis Set: (AUG-CC-PVTZ AUX)
    Blend: AUG-CC-PVTZ-JKFIT
	 Reference Energy          =    -538.4928764607013818 [Eh]
	 Singles Energy            =      -0.0000000000000000 [Eh]
	 Same-Spin Energy          =      -0.6081960992804470 [Eh]
	 Opposite-Spin Energy      =      -1.9344516251640029 [Eh]
	 Correlation Energy        =      -2.5426477244444499 [Eh]
	 Total Energy              =    -541.0355241851458459 [Eh]

	 ================> DF-SCS-MP2 Energies <==================
	-----------------------------------------------------------
	 SCS Same-Spin Scale       =       0.3333333333333333 [-]
	 SCS Opposite-Spin Scale   =       1.2000000000000000 [-]
	 SCS Same-Spin Energy      =      -0.2027320330934823 [Eh]
	 SCS Opposite-Spin Energy  =      -2.3213419501968033 [Eh]
	 SCS Correlation Energy    =      -2.5240739832902856 [Eh]
	 SCS Total Energy          =    -541.0169504439916182 [Eh]
	-----------------------------------------------------------

  Dipole Moment: [D]
     X:     0.3831      Y:    -0.1417      Z:    -0.0065     Total:     0.4085

*** Psi4 exiting successfully. Buy a developer a beer!
