                               Psi4 1.4a3.dev225

  ==> Input File <==

--------------------------------------------------------------------------
#psi4
#
memory 32 gb

molecule  {
0 1
  C       -0.5824800     1.6044310    -0.2213210
  C        0.7517090     0.8972820    -0.1584330
  C       -1.7393840     0.6486410    -0.0371650
  C        1.7237550     1.2518080     0.7820810
  C        1.0412590    -0.1412430    -1.0548500
  C        3.2457950    -0.4451680    -0.0684180
  C        2.9517370     0.5872480     0.8282550
  C        2.2676820    -0.7996710    -1.0091590
  C       -1.8261890    -0.1288690     1.1267200
  C       -2.7194827     0.5153590    -0.9980848
  C        4.5537390    -1.1898250     0.0022800
  C       -2.8866350    -1.0143110     1.3128170
  C       -3.7965280    -0.3760470    -0.8307700
  C       -3.8763200    -1.1410390     0.3331560
  H       -0.6887990     2.1194610    -1.1851540
  H       -0.6152960     2.3835930     0.5515720
  H        1.5214970     2.0586850     1.4854080
  H        0.2921320    -0.4400260    -1.7869590
  H        3.6942270     0.8828880     1.5683180
  H        2.4736480    -1.5998700    -1.7190670
  H       -1.0482340    -0.0434160     1.8839740
  H       -2.6776530     1.1110490    -1.9207770
  H        4.8944640    -1.4825890    -0.9952280
  H        5.3329890    -0.5734720     0.4595320
  H        4.4581780    -2.1030590     0.5999660
  H       -2.9412840    -1.6093450     2.2217140
  H       -4.5604750    -0.4701320    -1.5992930
  H       -4.7020430    -1.8337400     0.4769600
units angstrom
no_reorient  #important for SAPT in psi4, default
symmetry c1  #important for SAPT in psi4, default
}

set PROPERTIES_ORIGIN ["COM"]
properties('MP2/aug-cc-pvtz', properties = ['dipole'])
--------------------------------------------------------------------------

    Molecular point group: c1
  Charge       = 0
  Multiplicity = 1
  Basis Set: AUG-CC-PVTZ
    Blend: AUG-CC-PVTZ
  Basis Set: (AUG-CC-PVTZ AUX)
    Blend: AUG-CC-PVTZ-JKFIT

    Orbital Energies [Eh]
    ---------------------

    Doubly Occupied:

       1A    -11.238790     2A    -11.238369     3A    -11.236850
       4A    -11.235908     5A    -11.235055     6A    -11.234375
       7A    -11.231470     8A    -11.231164     9A    -11.231140
      10A    -11.229882    11A    -11.229701    12A    -11.229140
      13A    -11.228654    14A    -11.222972    15A     -1.161368
      16A     -1.145849    17A     -1.073844    18A     -1.025197
      19A     -1.008735    20A     -1.008030    21A     -0.957899
      22A     -0.896077    23A     -0.828565    24A     -0.823331
      25A     -0.802467    26A     -0.774885    27A     -0.692985
      28A     -0.667702    29A     -0.648360    30A     -0.634249
      31A     -0.628631    32A     -0.618870    33A     -0.581603
      34A     -0.578777    35A     -0.575118    36A     -0.569805
      37A     -0.559901    38A     -0.548059    39A     -0.527990
      40A     -0.502845    41A     -0.491456    42A     -0.490086
      43A     -0.477574    44A     -0.474267    45A     -0.470671
      46A     -0.336872    47A     -0.333686    48A     -0.330032
      49A     -0.307778

  @DF-RHF Final Energy:  -538.49350278115980

   => Energetics <=

    Nuclear Repulsion Energy =            786.2717742074808029
    One-Electron Energy =               -2287.9164838815536314
    Two-Electron Energy =                 963.1512068929130237
    Total Energy =                       -538.4935027811598047
  Basis Set: (AUG-CC-PVTZ AUX)
    Blend: AUG-CC-PVTZ-RI
    Molecular point group: c1

    Geometry (in Angstrom), charge = 0, multiplicity = 1:

       Center              X                  Y                   Z               Mass
    ------------   -----------------  -----------------  -----------------  -----------------
         C           -0.553814588217     1.595586548099    -0.222016103359    12.000000000000
         C            0.780374411783     0.888437548099    -0.159128103359    12.000000000000
         C           -1.710718588217     0.639796548099    -0.037860103359    12.000000000000
         C            1.752420411783     1.242963548099     0.781385896641    12.000000000000
         C            1.069924411783    -0.150087451901    -1.055545103359    12.000000000000
         C            3.274460411783    -0.454012451901    -0.069113103359    12.000000000000
         C            2.980402411783     0.578403548099     0.827559896641    12.000000000000
         C            2.296347411783    -0.808515451901    -1.009854103359    12.000000000000
         C           -1.797523588217    -0.137713451901     1.126024896641    12.000000000000
         C           -2.690817288217     0.506514548099    -0.998779903359    12.000000000000
         C            4.582404411783    -1.198669451901     0.001584896641    12.000000000000
         C           -2.857969588217    -1.023155451901     1.312121896641    12.000000000000
         C           -3.767862588217    -0.384891451901    -0.831465103359    12.000000000000
         C           -3.847654588217    -1.149883451901     0.332460896641    12.000000000000
         H           -0.660133588217     2.110616548099    -1.185849103359     1.007825032230
         H           -0.586630588217     2.374748548099     0.550876896641     1.007825032230
         H            1.550162411783     2.049840548099     1.484712896641     1.007825032230
         H            0.320797411783    -0.448870451901    -1.787654103359     1.007825032230
         H            3.722892411783     0.874043548099     1.567622896641     1.007825032230
         H            2.502313411783    -1.608714451901    -1.719762103359     1.007825032230
         H           -1.019568588217    -0.052260451901     1.883278896641     1.007825032230
         H           -2.648987588217     1.102204548099    -1.921472103359     1.007825032230
         H            4.923129411783    -1.491433451901    -0.995923103359     1.007825032230
         H            5.361654411783    -0.582316451901     0.458836896641     1.007825032230
         H            4.486843411783    -2.111903451901     0.599270896641     1.007825032230
         H           -2.912618588217    -1.618189451901     2.221018896641     1.007825032230
         H           -4.531809588217    -0.478976451901    -1.599988103359     1.007825032230
         H           -4.673377588217    -1.842584451901     0.476264896641     1.007825032230

  Basis Set: AUG-CC-PVTZ
    Blend: AUG-CC-PVTZ
  Basis Set: (AUG-CC-PVTZ AUX)
    Blend: AUG-CC-PVTZ-JKFIT
	 Reference Energy          =    -538.4935027811598047 [Eh]
	 Singles Energy            =      -0.0000000000000000 [Eh]
	 Same-Spin Energy          =      -0.6081559517332555 [Eh]
	 Opposite-Spin Energy      =      -1.9347234120800325 [Eh]
	 Correlation Energy        =      -2.5428793638132881 [Eh]
	 Total Energy              =    -541.0363821449731176 [Eh]

	 ================> DF-SCS-MP2 Energies <==================
	-----------------------------------------------------------
	 SCS Same-Spin Scale       =       0.3333333333333333 [-]
	 SCS Opposite-Spin Scale   =       1.2000000000000000 [-]
	 SCS Same-Spin Energy      =      -0.2027186505777518 [Eh]
	 SCS Opposite-Spin Energy  =      -2.3216680944960388 [Eh]
	 SCS Correlation Energy    =      -2.5243867450737905 [Eh]
	 SCS Total Energy          =    -541.0178895262336027 [Eh]
	-----------------------------------------------------------

  Dipole Moment: [D]
     X:     0.3565      Y:    -0.1370      Z:     0.0126     Total:     0.3821

*** Psi4 exiting successfully. Buy a developer a beer!
