                               Psi4 1.4a3.dev225

  ==> Input File <==

--------------------------------------------------------------------------
#psi4
#
memory 32 gb

molecule  {
0 1
  C       -0.5824800     1.6044310    -0.2213210
  C        0.7517090     0.8972820    -0.1584330
  C       -1.7393840     0.6486410    -0.0371650
  C        1.7237550     1.2518080     0.7820810
  C        1.0412590    -0.1412430    -1.0548500
  C        3.2457950    -0.4451680    -0.0684180
  C        2.9517370     0.5872480     0.8282550
  C        2.2676820    -0.7996710    -1.0091590
  C       -1.8261890    -0.1288690     1.1267200
  C       -2.7336970     0.5134260    -1.0120210
  C        4.5537390    -1.1898250     0.0022800
  C       -2.8714204    -1.0016072     1.3101470
  C       -3.7965280    -0.3760470    -0.8307700
  C       -3.8763200    -1.1410390     0.3331560
  H       -0.6887990     2.1194610    -1.1851540
  H       -0.6152960     2.3835930     0.5515720
  H        1.5214970     2.0586850     1.4854080
  H        0.2921320    -0.4400260    -1.7869590
  H        3.6942270     0.8828880     1.5683180
  H        2.4736480    -1.5998700    -1.7190670
  H       -1.0482340    -0.0434160     1.8839740
  H       -2.6776530     1.1110490    -1.9207770
  H        4.8944640    -1.4825890    -0.9952280
  H        5.3329890    -0.5734720     0.4595320
  H        4.4581780    -2.1030590     0.5999660
  H       -2.9412840    -1.6093450     2.2217140
  H       -4.5604750    -0.4701320    -1.5992930
  H       -4.7020430    -1.8337400     0.4769600
units angstrom
no_reorient  #important for SAPT in psi4, default
symmetry c1  #important for SAPT in psi4, default
}

set PROPERTIES_ORIGIN ["COM"]
properties('MP2/aug-cc-pvtz', properties = ['dipole'])
--------------------------------------------------------------------------

    Molecular point group: c1
  Charge       = 0
  Multiplicity = 1
  Basis Set: AUG-CC-PVTZ
    Blend: AUG-CC-PVTZ
  Basis Set: (AUG-CC-PVTZ AUX)
    Blend: AUG-CC-PVTZ-JKFIT

    Orbital Energies [Eh]
    ---------------------

    Doubly Occupied:

       1A    -11.241245     2A    -11.238446     3A    -11.236990
       4A    -11.235325     5A    -11.234933     6A    -11.234217
       7A    -11.232050     8A    -11.231260     9A    -11.231068
      10A    -11.229951    11A    -11.229215    12A    -11.228724
      13A    -11.227273    14A    -11.223022    15A     -1.161127
      16A     -1.145823    17A     -1.073592    18A     -1.023293
      19A     -1.012415    20A     -1.008198    21A     -0.957132
      22A     -0.896387    23A     -0.827763    24A     -0.821496
      25A     -0.803841    26A     -0.774817    27A     -0.693539
      28A     -0.667992    29A     -0.648494    30A     -0.635420
      31A     -0.628026    32A     -0.616803    33A     -0.583228
      34A     -0.578818    35A     -0.575062    36A     -0.568974
      37A     -0.559964    38A     -0.548641    39A     -0.528283
      40A     -0.504115    41A     -0.491885    42A     -0.488335
      43A     -0.477710    44A     -0.472763    45A     -0.471867
      46A     -0.338496    47A     -0.334218    48A     -0.328508
      49A     -0.307272

  @DF-RHF Final Energy:  -538.49346752569886

   => Energetics <=

    Nuclear Repulsion Energy =            786.2415977837358696
    One-Electron Energy =               -2287.8540990591077389
    Two-Electron Energy =                 963.1190337496730081
    Total Energy =                       -538.4934675256988612
  Basis Set: (AUG-CC-PVTZ AUX)
    Blend: AUG-CC-PVTZ-RI
    Molecular point group: c1

    Geometry (in Angstrom), charge = 0, multiplicity = 1:

       Center              X                  Y                   Z               Mass
    ------------   -----------------  -----------------  -----------------  -----------------
         C           -0.553880502388     1.594876812669    -0.220921847734    12.000000000000
         C            0.780308497612     0.887727812669    -0.158033847734    12.000000000000
         C           -1.710784502388     0.639086812669    -0.036765847734    12.000000000000
         C            1.752354497612     1.242253812669     0.782480152266    12.000000000000
         C            1.069858497612    -0.150797187331    -1.054450847734    12.000000000000
         C            3.274394497612    -0.454722187331    -0.068018847734    12.000000000000
         C            2.980336497612     0.577693812669     0.828654152266    12.000000000000
         C            2.296281497612    -0.809225187331    -1.008759847734    12.000000000000
         C           -1.797589502388    -0.138423187331     1.127119152266    12.000000000000
         C           -2.705097502388     0.503871812669    -1.011621847734    12.000000000000
         C            4.582338497612    -1.199379187331     0.002679152266    12.000000000000
         C           -2.842820902388    -1.011161387331     1.310546152266    12.000000000000
         C           -3.767928502388    -0.385601187331    -0.830370847734    12.000000000000
         C           -3.847720502388    -1.150593187331     0.333555152266    12.000000000000
         H           -0.660199502388     2.109906812669    -1.184754847734     1.007825032230
         H           -0.586696502388     2.374038812669     0.551971152266     1.007825032230
         H            1.550096497612     2.049130812669     1.485807152266     1.007825032230
         H            0.320731497612    -0.449580187331    -1.786559847734     1.007825032230
         H            3.722826497612     0.873333812669     1.568717152266     1.007825032230
         H            2.502247497612    -1.609424187331    -1.718667847734     1.007825032230
         H           -1.019634502388    -0.052970187331     1.884373152266     1.007825032230
         H           -2.649053502388     1.101494812669    -1.920377847734     1.007825032230
         H            4.923063497612    -1.492143187331    -0.994828847734     1.007825032230
         H            5.361588497612    -0.583026187331     0.459931152266     1.007825032230
         H            4.486777497612    -2.112613187331     0.600365152266     1.007825032230
         H           -2.912684502388    -1.618899187331     2.222113152266     1.007825032230
         H           -4.531875502388    -0.479686187331    -1.598893847734     1.007825032230
         H           -4.673443502388    -1.843294187331     0.477359152266     1.007825032230

  Basis Set: AUG-CC-PVTZ
    Blend: AUG-CC-PVTZ
  Basis Set: (AUG-CC-PVTZ AUX)
    Blend: AUG-CC-PVTZ-JKFIT
	 Reference Energy          =    -538.4934675256988612 [Eh]
	 Singles Energy            =      -0.0000000000000000 [Eh]
	 Same-Spin Energy          =      -0.6081608783406213 [Eh]
	 Opposite-Spin Energy      =      -1.9346870206005138 [Eh]
	 Correlation Energy        =      -2.5428478989411349 [Eh]
	 Total Energy              =    -541.0363154246399517 [Eh]

	 ================> DF-SCS-MP2 Energies <==================
	-----------------------------------------------------------
	 SCS Same-Spin Scale       =       0.3333333333333333 [-]
	 SCS Opposite-Spin Scale   =       1.2000000000000000 [-]
	 SCS Same-Spin Energy      =      -0.2027202927802071 [Eh]
	 SCS Opposite-Spin Energy  =      -2.3216244247206164 [Eh]
	 SCS Correlation Energy    =      -2.5243447175008233 [Eh]
	 SCS Total Energy          =    -541.0178122431997281 [Eh]
	-----------------------------------------------------------

  Dipole Moment: [D]
     X:     0.3621      Y:    -0.1282      Z:     0.0047     Total:     0.3841

*** Psi4 exiting successfully. Buy a developer a beer!
