                               Psi4 1.4a3.dev225

  ==> Input File <==

--------------------------------------------------------------------------
#psi4
#
memory 32 gb

molecule  {
0 1
  C       -0.5824800     1.6044310    -0.2213210
  C        0.7517090     0.8972820    -0.1584330
  C       -1.7393840     0.6486410    -0.0371650
  C        1.7237550     1.2518080     0.7820810
  C        1.0412590    -0.1412430    -1.0548500
  C        3.2457950    -0.4451680    -0.0684180
  C        2.9517370     0.5872480     0.8282550
  C        2.2676820    -0.7996710    -1.0091590
  C       -1.8261890    -0.1288690     1.1267200
  C       -2.7247463     0.5068203    -0.9903106
  C        4.5537390    -1.1898250     0.0022800
  C       -2.8866350    -1.0143110     1.3128170
  C       -3.7965280    -0.3760470    -0.8307700
  C       -3.8763200    -1.1410390     0.3331560
  H       -0.6887990     2.1194610    -1.1851540
  H       -0.6152960     2.3835930     0.5515720
  H        1.5214970     2.0586850     1.4854080
  H        0.2921320    -0.4400260    -1.7869590
  H        3.6942270     0.8828880     1.5683180
  H        2.4736480    -1.5998700    -1.7190670
  H       -1.0482340    -0.0434160     1.8839740
  H       -2.6776530     1.1110490    -1.9207770
  H        4.8944640    -1.4825890    -0.9952280
  H        5.3329890    -0.5734720     0.4595320
  H        4.4581780    -2.1030590     0.5999660
  H       -2.9412840    -1.6093450     2.2217140
  H       -4.5604750    -0.4701320    -1.5992930
  H       -4.7020430    -1.8337400     0.4769600
units angstrom
no_reorient  #important for SAPT in psi4, default
symmetry c1  #important for SAPT in psi4, default
}

set PROPERTIES_ORIGIN ["COM"]
properties('MP2/aug-cc-pvtz', properties = ['dipole'])
--------------------------------------------------------------------------

    Molecular point group: c1
  Charge       = 0
  Multiplicity = 1
  Basis Set: AUG-CC-PVTZ
    Blend: AUG-CC-PVTZ
  Basis Set: (AUG-CC-PVTZ AUX)
    Blend: AUG-CC-PVTZ-JKFIT

    Orbital Energies [Eh]
    ---------------------

    Doubly Occupied:

       1A    -11.238565     2A    -11.238438     3A    -11.236980
       4A    -11.235375     5A    -11.234804     6A    -11.234063
       7A    -11.231423     8A    -11.231254     9A    -11.230938
      10A    -11.229954    11A    -11.229642    12A    -11.229206
      13A    -11.228727    14A    -11.223017    15A     -1.161806
      16A     -1.146443    17A     -1.074032    18A     -1.025113
      19A     -1.009550    20A     -1.008173    21A     -0.958031
      22A     -0.896272    23A     -0.828434    24A     -0.822749
      25A     -0.802938    26A     -0.775167    27A     -0.692892
      28A     -0.667639    29A     -0.648366    30A     -0.634254
      31A     -0.628194    32A     -0.619037    33A     -0.581491
      34A     -0.578855    35A     -0.574935    36A     -0.569495
      37A     -0.559969    38A     -0.548172    39A     -0.528035
      40A     -0.503382    41A     -0.491848    42A     -0.488676
      43A     -0.477772    44A     -0.474476    45A     -0.471041
      46A     -0.336960    47A     -0.334416    48A     -0.330015
      49A     -0.307784

  @DF-RHF Final Energy:  -538.49329427203577

   => Energetics <=

    Nuclear Repulsion Energy =            786.4102969620362273
    One-Electron Energy =               -2288.1895922649600834
    Two-Electron Energy =                 963.2860010308880874
    Total Energy =                       -538.4932942720357687
  Basis Set: (AUG-CC-PVTZ AUX)
    Blend: AUG-CC-PVTZ-RI
    Molecular point group: c1

    Geometry (in Angstrom), charge = 0, multiplicity = 1:

       Center              X                  Y                   Z               Mass
    ------------   -----------------  -----------------  -----------------  -----------------
         C           -0.553467746440     1.596149200633    -0.222528379622    12.000000000000
         C            0.780721253560     0.889000200633    -0.159640379622    12.000000000000
         C           -1.710371746440     0.640359200633    -0.038372379622    12.000000000000
         C            1.752767253560     1.243526200633     0.780873620378    12.000000000000
         C            1.070271253560    -0.149524799367    -1.056057379622    12.000000000000
         C            3.274807253560    -0.453449799367    -0.069625379622    12.000000000000
         C            2.980749253560     0.578966200633     0.827047620378    12.000000000000
         C            2.296694253560    -0.807952799367    -1.010366379622    12.000000000000
         C           -1.797176746440    -0.137150799367     1.125512620378    12.000000000000
         C           -2.695734046440     0.498538500633    -0.991517979622    12.000000000000
         C            4.582751253560    -1.198106799367     0.001072620378    12.000000000000
         C           -2.857622746440    -1.022592799367     1.311609620378    12.000000000000
         C           -3.767515746440    -0.384328799367    -0.831977379622    12.000000000000
         C           -3.847307746440    -1.149320799367     0.331948620378    12.000000000000
         H           -0.659786746440     2.111179200633    -1.186361379622     1.007825032230
         H           -0.586283746440     2.375311200633     0.550364620378     1.007825032230
         H            1.550509253560     2.050403200633     1.484200620378     1.007825032230
         H            0.321144253560    -0.448307799367    -1.788166379622     1.007825032230
         H            3.723239253560     0.874606200633     1.567110620378     1.007825032230
         H            2.502660253560    -1.608151799367    -1.720274379622     1.007825032230
         H           -1.019221746440    -0.051697799367     1.882766620378     1.007825032230
         H           -2.648640746440     1.102767200633    -1.921984379622     1.007825032230
         H            4.923476253560    -1.490870799367    -0.996435379622     1.007825032230
         H            5.362001253560    -0.581753799367     0.458324620378     1.007825032230
         H            4.487190253560    -2.111340799367     0.598758620378     1.007825032230
         H           -2.912271746440    -1.617626799367     2.220506620378     1.007825032230
         H           -4.531462746440    -0.478413799367    -1.600500379622     1.007825032230
         H           -4.673030746440    -1.842021799367     0.475752620378     1.007825032230

  Basis Set: AUG-CC-PVTZ
    Blend: AUG-CC-PVTZ
  Basis Set: (AUG-CC-PVTZ AUX)
    Blend: AUG-CC-PVTZ-JKFIT
	 Reference Energy          =    -538.4932942720357687 [Eh]
	 Singles Energy            =      -0.0000000000000000 [Eh]
	 Same-Spin Energy          =      -0.6081963129050586 [Eh]
	 Opposite-Spin Energy      =      -1.9347022605553328 [Eh]
	 Correlation Energy        =      -2.5428985734603913 [Eh]
	 Total Energy              =    -541.0361928454962026 [Eh]

	 ================> DF-SCS-MP2 Energies <==================
	-----------------------------------------------------------
	 SCS Same-Spin Scale       =       0.3333333333333333 [-]
	 SCS Opposite-Spin Scale   =       1.2000000000000000 [-]
	 SCS Same-Spin Energy      =      -0.2027321043016862 [Eh]
	 SCS Opposite-Spin Energy  =      -2.3216427126663994 [Eh]
	 SCS Correlation Energy    =      -2.5243748169680855 [Eh]
	 SCS Total Energy          =    -541.0176690890039026 [Eh]
	-----------------------------------------------------------

  Dipole Moment: [D]
     X:     0.3633      Y:    -0.1392      Z:     0.0165     Total:     0.3894

*** Psi4 exiting successfully. Buy a developer a beer!
