                               Psi4 1.4a3.dev225

  ==> Input File <==

--------------------------------------------------------------------------
#psi4
#
memory 32 gb

molecule  {
0 1
  C       -0.5824800     1.6044310    -0.2213210
  C        0.7517090     0.8972820    -0.1584330
  C       -1.7393840     0.6486410    -0.0371650
  C        1.7237550     1.2518080     0.7820810
  C        0.9999572     0.0068935    -0.9269839
  C        3.2457950    -0.4451680    -0.0684180
  C        2.9517370     0.5872480     0.8282550
  C        2.2676820    -0.7996710    -1.0091590
  C       -1.8261890    -0.1288690     1.1267200
  C       -2.7336970     0.5134260    -1.0120210
  C        4.5537390    -1.1898250     0.0022800
  C       -2.8866350    -1.0143110     1.3128170
  C       -3.7965280    -0.3760470    -0.8307700
  C       -3.8763200    -1.1410390     0.3331560
  H       -0.6887990     2.1194610    -1.1851540
  H       -0.6152960     2.3835930     0.5515720
  H        1.5214970     2.0586850     1.4854080
  H        0.2921320    -0.4400260    -1.7869590
  H        3.6942270     0.8828880     1.5683180
  H        2.4736480    -1.5998700    -1.7190670
  H       -1.0482340    -0.0434160     1.8839740
  H       -2.6776530     1.1110490    -1.9207770
  H        4.8944640    -1.4825890    -0.9952280
  H        5.3329890    -0.5734720     0.4595320
  H        4.4581780    -2.1030590     0.5999660
  H       -2.9412840    -1.6093450     2.2217140
  H       -4.5604750    -0.4701320    -1.5992930
  H       -4.7020430    -1.8337400     0.4769600
units angstrom
no_reorient  #important for SAPT in psi4, default
symmetry c1  #important for SAPT in psi4, default
}

set PROPERTIES_ORIGIN ["COM"]
properties('MP2/aug-cc-pvtz', properties = ['dipole'])
--------------------------------------------------------------------------

    Molecular point group: c1
  Charge       = 0
  Multiplicity = 1
  Basis Set: AUG-CC-PVTZ
    Blend: AUG-CC-PVTZ
  Basis Set: (AUG-CC-PVTZ AUX)
    Blend: AUG-CC-PVTZ-JKFIT

    Orbital Energies [Eh]
    ---------------------

    Doubly Occupied:

       1A    -11.240272     2A    -11.239162     3A    -11.237052
       4A    -11.235044     5A    -11.234233     6A    -11.234162
       7A    -11.233983     8A    -11.230667     9A    -11.230604
      10A    -11.230382    11A    -11.229011    12A    -11.223038
      13A    -11.222985    14A    -11.209335    15A     -1.176624
      16A     -1.147417    17A     -1.083649    18A     -1.030847
      19A     -1.009462    20A     -0.997518    21A     -0.953743
      22A     -0.906556    23A     -0.840075    24A     -0.823327
      25A     -0.799909    26A     -0.763713    27A     -0.693382
      28A     -0.669501    29A     -0.651934    30A     -0.634961
      31A     -0.625233    32A     -0.614607    33A     -0.582673
      34A     -0.579434    35A     -0.575047    36A     -0.569653
      37A     -0.554879    38A     -0.550354    39A     -0.530904
      40A     -0.505670    41A     -0.497193    42A     -0.486609
      43A     -0.484504    44A     -0.476367    45A     -0.439882
      46A     -0.351942    47A     -0.333125    48A     -0.319479
      49A     -0.315467

  @DF-RHF Final Energy:  -538.43273296622090

   => Energetics <=

    Nuclear Repulsion Energy =            788.9131052345810531
    One-Electron Energy =               -2293.0805437889689529
    Two-Electron Energy =                 965.7347055881670030
    Total Energy =                       -538.4327329662208967
  Basis Set: (AUG-CC-PVTZ AUX)
    Blend: AUG-CC-PVTZ-RI
    Molecular point group: c1

    Geometry (in Angstrom), charge = 0, multiplicity = 1:

       Center              X                  Y                   Z               Mass
    ------------   -----------------  -----------------  -----------------  -----------------
         C           -0.550156387983     1.585952555836    -0.229523446036    12.000000000000
         C            0.784032612017     0.878803555836    -0.166635446036    12.000000000000
         C           -1.707060387983     0.630162555836    -0.045367446036    12.000000000000
         C            1.756078612017     1.233329555836     0.773878553964    12.000000000000
         C            1.032280812017    -0.011584944164    -0.935186346036    12.000000000000
         C            3.278118612017    -0.463646444164    -0.076620446036    12.000000000000
         C            2.984060612017     0.568769555836     0.820052553964    12.000000000000
         C            2.300005612017    -0.818149444164    -1.017361446036    12.000000000000
         C           -1.793865387983    -0.147347444164     1.118517553964    12.000000000000
         C           -2.701373387983     0.494947555836    -1.020223446036    12.000000000000
         C            4.586062612017    -1.208303444164    -0.005922446036    12.000000000000
         C           -2.854311387983    -1.032789444164     1.304614553964    12.000000000000
         C           -3.764204387983    -0.394525444164    -0.838972446036    12.000000000000
         C           -3.843996387983    -1.159517444164     0.324953553964    12.000000000000
         H           -0.656475387983     2.100982555836    -1.193356446036     1.007825032230
         H           -0.582972387983     2.365114555836     0.543369553964     1.007825032230
         H            1.553820612017     2.040206555836     1.477205553964     1.007825032230
         H            0.324455612017    -0.458504444164    -1.795161446036     1.007825032230
         H            3.726550612017     0.864409555836     1.560115553964     1.007825032230
         H            2.505971612017    -1.618348444164    -1.727269446036     1.007825032230
         H           -1.015910387983    -0.061894444164     1.875771553964     1.007825032230
         H           -2.645329387983     1.092570555836    -1.928979446036     1.007825032230
         H            4.926787612017    -1.501067444164    -1.003430446036     1.007825032230
         H            5.365312612017    -0.591950444164     0.451329553964     1.007825032230
         H            4.490501612017    -2.121537444164     0.591763553964     1.007825032230
         H           -2.908960387983    -1.627823444164     2.213511553964     1.007825032230
         H           -4.528151387983    -0.488610444164    -1.607495446036     1.007825032230
         H           -4.669719387983    -1.852218444164     0.468757553964     1.007825032230

  Basis Set: AUG-CC-PVTZ
    Blend: AUG-CC-PVTZ
  Basis Set: (AUG-CC-PVTZ AUX)
    Blend: AUG-CC-PVTZ-JKFIT
	 Reference Energy          =    -538.4327329662208967 [Eh]
	 Singles Energy            =      -0.0000000000000000 [Eh]
	 Same-Spin Energy          =      -0.6079980856041119 [Eh]
	 Opposite-Spin Energy      =      -1.9364341558926554 [Eh]
	 Correlation Energy        =      -2.5444322414967675 [Eh]
	 Total Energy              =    -540.9771652077176896 [Eh]

	 ================> DF-SCS-MP2 Energies <==================
	-----------------------------------------------------------
	 SCS Same-Spin Scale       =       0.3333333333333333 [-]
	 SCS Opposite-Spin Scale   =       1.2000000000000000 [-]
	 SCS Same-Spin Energy      =      -0.2026660285347040 [Eh]
	 SCS Opposite-Spin Energy  =      -2.3237209870711864 [Eh]
	 SCS Correlation Energy    =      -2.5263870156058905 [Eh]
	 SCS Total Energy          =    -540.9591199818268024 [Eh]
	-----------------------------------------------------------

  Dipole Moment: [D]
     X:     0.4958      Y:    -0.1535      Z:     0.0362     Total:     0.5203

*** Psi4 exiting successfully. Buy a developer a beer!
