                               Psi4 1.4a3.dev225

  ==> Input File <==

--------------------------------------------------------------------------
#psi4
#
memory 32 gb

molecule  {
0 1
  C       -0.5824800     1.6044310    -0.2213210
  C        0.7517090     0.8972820    -0.1584330
  C       -1.7393840     0.6486410    -0.0371650
  C        1.7237550     1.2518080     0.7820810
  C        1.0412590    -0.1412430    -1.0548500
  C        3.2457950    -0.4451680    -0.0684180
  C        2.9517370     0.5872480     0.8282550
  C        2.2676820    -0.7996710    -1.0091590
  C       -1.8261890    -0.1288690     1.1267200
  C       -2.7336970     0.5134260    -1.0120210
  C        4.5537390    -1.1898250     0.0022800
  C       -2.8866350    -1.0143110     1.3128170
  C       -3.7965280    -0.3760470    -0.8307700
  C       -3.8774639    -1.1520058     0.3498419
  H       -0.6887990     2.1194610    -1.1851540
  H       -0.6152960     2.3835930     0.5515720
  H        1.5214970     2.0586850     1.4854080
  H        0.2921320    -0.4400260    -1.7869590
  H        3.6942270     0.8828880     1.5683180
  H        2.4736480    -1.5998700    -1.7190670
  H       -1.0482340    -0.0434160     1.8839740
  H       -2.6776530     1.1110490    -1.9207770
  H        4.8944640    -1.4825890    -0.9952280
  H        5.3329890    -0.5734720     0.4595320
  H        4.4581780    -2.1030590     0.5999660
  H       -2.9412840    -1.6093450     2.2217140
  H       -4.5604750    -0.4701320    -1.5992930
  H       -4.7020430    -1.8337400     0.4769600
units angstrom
no_reorient  #important for SAPT in psi4, default
symmetry c1  #important for SAPT in psi4, default
}

set PROPERTIES_ORIGIN ["COM"]
properties('MP2/aug-cc-pvtz', properties = ['dipole'])
--------------------------------------------------------------------------

    Molecular point group: c1
  Charge       = 0
  Multiplicity = 1
  Basis Set: AUG-CC-PVTZ
    Blend: AUG-CC-PVTZ
  Basis Set: (AUG-CC-PVTZ AUX)
    Blend: AUG-CC-PVTZ-JKFIT

    Orbital Energies [Eh]
    ---------------------

    Doubly Occupied:

       1A    -11.241285     2A    -11.238375     3A    -11.237173
       4A    -11.236985     5A    -11.235348     6A    -11.233716
       7A    -11.231645     8A    -11.231521     9A    -11.231193
      10A    -11.229913    11A    -11.229322    12A    -11.229159
      13A    -11.228685    14A    -11.222979    15A     -1.160404
      16A     -1.144730    17A     -1.073566    18A     -1.024145
      19A     -1.009409    20A     -1.008156    21A     -0.957322
      22A     -0.896493    23A     -0.828140    24A     -0.822194
      25A     -0.803313    26A     -0.774740    27A     -0.693864
      28A     -0.668002    29A     -0.648317    30A     -0.635694
      31A     -0.628523    32A     -0.617405    33A     -0.581767
      34A     -0.578743    35A     -0.575562    36A     -0.570143
      37A     -0.559861    38A     -0.548573    39A     -0.528497
      40A     -0.503706    41A     -0.490982    42A     -0.489084
      43A     -0.477354    44A     -0.473644    45A     -0.471489
      46A     -0.336121    47A     -0.334869    48A     -0.329034
      49A     -0.306730

  @DF-RHF Final Energy:  -538.49320564967059

   => Energetics <=

    Nuclear Repulsion Energy =            785.7756788402888333
    One-Electron Energy =               -2286.9220189901984668
    Two-Electron Energy =                 962.6531345002389344
    Total Energy =                       -538.4932056496705854
  Basis Set: (AUG-CC-PVTZ AUX)
    Blend: AUG-CC-PVTZ-RI
    Molecular point group: c1

    Geometry (in Angstrom), charge = 0, multiplicity = 1:

       Center              X                  Y                   Z               Mass
    ------------   -----------------  -----------------  -----------------  -----------------
         C           -0.552802568806     1.596436572711    -0.222197293198    12.000000000000
         C            0.781386431194     0.889287572711    -0.159309293198    12.000000000000
         C           -1.709706568806     0.640646572711    -0.038041293198    12.000000000000
         C            1.753432431194     1.243813572711     0.781204706802    12.000000000000
         C            1.070936431194    -0.149237427289    -1.055726293198    12.000000000000
         C            3.275472431194    -0.453162427289    -0.069294293198    12.000000000000
         C            2.981414431194     0.579253572711     0.827378706802    12.000000000000
         C            2.297359431194    -0.807665427289    -1.010035293198    12.000000000000
         C           -1.796511568806    -0.136863427289     1.125843706802    12.000000000000
         C           -2.704019568806     0.505431572711    -1.012897293198    12.000000000000
         C            4.583416431194    -1.197819427289     0.001403706802    12.000000000000
         C           -2.856957568806    -1.022305427289     1.311940706802    12.000000000000
         C           -3.766850568806    -0.384041427289    -0.831646293198    12.000000000000
         C           -3.847786468806    -1.160000227289     0.348965606802    12.000000000000
         H           -0.659121568806     2.111466572711    -1.186030293198     1.007825032230
         H           -0.585618568806     2.375598572711     0.550695706802     1.007825032230
         H            1.551174431194     2.050690572711     1.484531706802     1.007825032230
         H            0.321809431194    -0.448020427289    -1.787835293198     1.007825032230
         H            3.723904431194     0.874893572711     1.567441706802     1.007825032230
         H            2.503325431194    -1.607864427289    -1.719943293198     1.007825032230
         H           -1.018556568806    -0.051410427289     1.883097706802     1.007825032230
         H           -2.647975568806     1.103054572711    -1.921653293198     1.007825032230
         H            4.924141431194    -1.490583427289    -0.996104293198     1.007825032230
         H            5.362666431194    -0.581466427289     0.458655706802     1.007825032230
         H            4.487855431194    -2.111053427289     0.599089706802     1.007825032230
         H           -2.911606568806    -1.617339427289     2.220837706802     1.007825032230
         H           -4.530797568806    -0.478126427289    -1.600169293198     1.007825032230
         H           -4.672365568806    -1.841734427289     0.476083706802     1.007825032230

  Basis Set: AUG-CC-PVTZ
    Blend: AUG-CC-PVTZ
  Basis Set: (AUG-CC-PVTZ AUX)
    Blend: AUG-CC-PVTZ-JKFIT
	 Reference Energy          =    -538.4932056496705854 [Eh]
	 Singles Energy            =      -0.0000000000000000 [Eh]
	 Same-Spin Energy          =      -0.6082110582585467 [Eh]
	 Opposite-Spin Energy      =      -1.9348299612347004 [Eh]
	 Correlation Energy        =      -2.5430410194932471 [Eh]
	 Total Energy              =    -541.0362466691638019 [Eh]

	 ================> DF-SCS-MP2 Energies <==================
	-----------------------------------------------------------
	 SCS Same-Spin Scale       =       0.3333333333333333 [-]
	 SCS Opposite-Spin Scale   =       1.2000000000000000 [-]
	 SCS Same-Spin Energy      =      -0.2027370194195156 [Eh]
	 SCS Opposite-Spin Energy  =      -2.3217959534816406 [Eh]
	 SCS Correlation Energy    =      -2.5245329729011563 [Eh]
	 SCS Total Energy          =    -541.0177386225717555 [Eh]
	-----------------------------------------------------------

  Dipole Moment: [D]
     X:     0.3600      Y:    -0.1301      Z:     0.0067     Total:     0.3828

*** Psi4 exiting successfully. Buy a developer a beer!
