                               Psi4 1.4a3.dev225

  ==> Input File <==

--------------------------------------------------------------------------
#psi4
#
memory 32 gb

molecule  {
0 1
  C       -0.5824800     1.6044310    -0.2213210
  C        0.7517090     0.8972820    -0.1584330
  C       -1.7393840     0.6486410    -0.0371650
  C        1.7237550     1.2518080     0.7820810
  C        1.0412590    -0.1412430    -1.0548500
  C        3.2457950    -0.4451680    -0.0684180
  C        2.9517370     0.5872480     0.8282550
  C        2.2676820    -0.7996710    -1.0091590
  C       -1.8261890    -0.1288690     1.1267200
  C       -2.7336970     0.5134260    -1.0120210
  C        4.5537390    -1.1898250     0.0022800
  C       -2.8866350    -1.0143110     1.3128170
  C       -3.7965280    -0.3760470    -0.8307700
  C       -3.8763200    -1.1410390     0.3331560
  H       -0.6887990     2.1194610    -1.1851540
  H       -0.6152960     2.3835930     0.5515720
  H        1.5214970     2.0586850     1.4854080
  H        0.2921320    -0.4400260    -1.7869590
  H        3.6942270     0.8828880     1.5683180
  H        2.4736480    -1.5998700    -1.7190670
  H       -1.0482340    -0.0434160     1.8839740
  H       -2.6776530     1.1110490    -1.9207770
  H        4.8930989    -1.4087026    -1.0144569
  H        5.3329890    -0.5734720     0.4595320
  H        4.4581780    -2.1030590     0.5999660
  H       -2.9412840    -1.6093450     2.2217140
  H       -4.5604750    -0.4701320    -1.5992930
  H       -4.7020430    -1.8337400     0.4769600
units angstrom
no_reorient  #important for SAPT in psi4, default
symmetry c1  #important for SAPT in psi4, default
}

set PROPERTIES_ORIGIN ["COM"]
properties('MP2/aug-cc-pvtz', properties = ['dipole'])
--------------------------------------------------------------------------

    Molecular point group: c1
  Charge       = 0
  Multiplicity = 1
  Basis Set: AUG-CC-PVTZ
    Blend: AUG-CC-PVTZ
  Basis Set: (AUG-CC-PVTZ AUX)
    Blend: AUG-CC-PVTZ-JKFIT

    Orbital Energies [Eh]
    ---------------------

    Doubly Occupied:

       1A    -11.241048     2A    -11.237842     3A    -11.236861
       4A    -11.235240     5A    -11.235006     6A    -11.234520
       7A    -11.231492     8A    -11.231244     9A    -11.231003
      10A    -11.229832    11A    -11.229409    12A    -11.228855
      13A    -11.228602    14A    -11.222969    15A     -1.160601
      16A     -1.145215    17A     -1.073858    18A     -1.024111
      19A     -1.010152    20A     -1.008015    21A     -0.957312
      22A     -0.895967    23A     -0.828022    24A     -0.822778
      25A     -0.802740    26A     -0.774362    27A     -0.693324
      28A     -0.667415    29A     -0.648112    30A     -0.635006
      31A     -0.628100    32A     -0.617514    33A     -0.582998
      34A     -0.580631    35A     -0.578497    36A     -0.569947
      37A     -0.559905    38A     -0.546248    39A     -0.525793
      40A     -0.502821    41A     -0.491094    42A     -0.490088
      43A     -0.476900    44A     -0.473554    45A     -0.471572
      46A     -0.337056    47A     -0.333666    48A     -0.329293
      49A     -0.307393

  @DF-RHF Final Energy:  -538.49325852373079

   => Energetics <=

    Nuclear Repulsion Energy =            786.0234275568109297
    One-Electron Energy =               -2287.4254078037952240
    Two-Electron Energy =                 962.9087217232535068
    Total Energy =                       -538.4932585237307876
  Basis Set: (AUG-CC-PVTZ AUX)
    Blend: AUG-CC-PVTZ-RI
    Molecular point group: c1

    Geometry (in Angstrom), charge = 0, multiplicity = 1:

       Center              X                  Y                   Z               Mass
    ------------   -----------------  -----------------  -----------------  -----------------
         C           -0.552870390719     1.595305022153    -0.220991369806    12.000000000000
         C            0.781318609281     0.888156022153    -0.158103369806    12.000000000000
         C           -1.709774390719     0.639515022153    -0.036835369806    12.000000000000
         C            1.753364609281     1.242682022153     0.782410630194    12.000000000000
         C            1.070868609281    -0.150368977847    -1.054520369806    12.000000000000
         C            3.275404609281    -0.454293977847    -0.068088369806    12.000000000000
         C            2.981346609281     0.578122022153     0.828584630194    12.000000000000
         C            2.297291609281    -0.808796977847    -1.008829369806    12.000000000000
         C           -1.796579390719    -0.137994977847     1.127049630194    12.000000000000
         C           -2.704087390719     0.504300022153    -1.011691369806    12.000000000000
         C            4.583348609281    -1.198950977847     0.002609630194    12.000000000000
         C           -2.857025390719    -1.023436977847     1.313146630194    12.000000000000
         C           -3.766918390719    -0.385172977847    -0.830440369806    12.000000000000
         C           -3.846710390719    -1.150164977847     0.333485630194    12.000000000000
         H           -0.659189390719     2.110335022153    -1.184824369806     1.007825032230
         H           -0.585686390719     2.374467022153     0.551901630194     1.007825032230
         H            1.551106609281     2.049559022153     1.485737630194     1.007825032230
         H            0.321741609281    -0.449151977847    -1.786629369806     1.007825032230
         H            3.723836609281     0.873762022153     1.568647630194     1.007825032230
         H            2.503257609281    -1.608995977847    -1.718737369806     1.007825032230
         H           -1.018624390719    -0.052541977847     1.884303630194     1.007825032230
         H           -2.648043390719     1.101923022153    -1.920447369806     1.007825032230
         H            4.922708509281    -1.417828577847    -1.014127269806     1.007825032230
         H            5.362598609281    -0.582597977847     0.459861630194     1.007825032230
         H            4.487787609281    -2.112184977847     0.600295630194     1.007825032230
         H           -2.911674390719    -1.618470977847     2.222043630194     1.007825032230
         H           -4.530865390719    -0.479257977847    -1.598963369806     1.007825032230
         H           -4.672433390719    -1.842865977847     0.477289630194     1.007825032230

  Basis Set: AUG-CC-PVTZ
    Blend: AUG-CC-PVTZ
  Basis Set: (AUG-CC-PVTZ AUX)
    Blend: AUG-CC-PVTZ-JKFIT
	 Reference Energy          =    -538.4932585237307876 [Eh]
	 Singles Energy            =      -0.0000000000000000 [Eh]
	 Same-Spin Energy          =      -0.6082275847020667 [Eh]
	 Opposite-Spin Energy      =      -1.9348297179133609 [Eh]
	 Correlation Energy        =      -2.5430573026154275 [Eh]
	 Total Energy              =    -541.0363158263462537 [Eh]

	 ================> DF-SCS-MP2 Energies <==================
	-----------------------------------------------------------
	 SCS Same-Spin Scale       =       0.3333333333333333 [-]
	 SCS Opposite-Spin Scale   =       1.2000000000000000 [-]
	 SCS Same-Spin Energy      =      -0.2027425282340222 [Eh]
	 SCS Opposite-Spin Energy  =      -2.3217956614960329 [Eh]
	 SCS Correlation Energy    =      -2.5245381897300549 [Eh]
	 SCS Total Energy          =    -541.0177967134608252 [Eh]
	-----------------------------------------------------------

  Dipole Moment: [D]
     X:     0.3679      Y:    -0.1064      Z:     0.0117     Total:     0.3832

*** Psi4 exiting successfully. Buy a developer a beer!
