                               Psi4 1.4a3.dev225

  ==> Input File <==

--------------------------------------------------------------------------
#psi4
#
memory 32 gb

molecule  {
0 1
  C       -0.5463691     1.5730173    -0.1272692
  C        0.7517090     0.8972820    -0.1584330
  C       -1.7393840     0.6486410    -0.0371650
  C        1.7237550     1.2518080     0.7820810
  C        1.0412590    -0.1412430    -1.0548500
  C        3.2457950    -0.4451680    -0.0684180
  C        2.9517370     0.5872480     0.8282550
  C        2.2676820    -0.7996710    -1.0091590
  C       -1.8261890    -0.1288690     1.1267200
  C       -2.7336970     0.5134260    -1.0120210
  C        4.5537390    -1.1898250     0.0022800
  C       -2.8866350    -1.0143110     1.3128170
  C       -3.7965280    -0.3760470    -0.8307700
  C       -3.8763200    -1.1410390     0.3331560
  H       -0.6887990     2.1194610    -1.1851540
  H       -0.6152960     2.3835930     0.5515720
  H        1.5214970     2.0586850     1.4854080
  H        0.2921320    -0.4400260    -1.7869590
  H        3.6942270     0.8828880     1.5683180
  H        2.4736480    -1.5998700    -1.7190670
  H       -1.0482340    -0.0434160     1.8839740
  H       -2.6776530     1.1110490    -1.9207770
  H        4.8944640    -1.4825890    -0.9952280
  H        5.3329890    -0.5734720     0.4595320
  H        4.4581780    -2.1030590     0.5999660
  H       -2.9412840    -1.6093450     2.2217140
  H       -4.5604750    -0.4701320    -1.5992930
  H       -4.7020430    -1.8337400     0.4769600
units angstrom
no_reorient  #important for SAPT in psi4, default
symmetry c1  #important for SAPT in psi4, default
}

set PROPERTIES_ORIGIN ["COM"]
properties('MP2/aug-cc-pvtz', properties = ['dipole'])
--------------------------------------------------------------------------

    Molecular point group: c1
  Charge       = 0
  Multiplicity = 1
  Basis Set: AUG-CC-PVTZ
    Blend: AUG-CC-PVTZ
  Basis Set: (AUG-CC-PVTZ AUX)
    Blend: AUG-CC-PVTZ-JKFIT

    Orbital Energies [Eh]
    ---------------------

    Doubly Occupied:

       1A    -11.241411     2A    -11.238418     3A    -11.238248
       4A    -11.235815     5A    -11.235475     6A    -11.234187
       7A    -11.233392     8A    -11.232022     9A    -11.230842
      10A    -11.230492    11A    -11.229585    12A    -11.228993
      13A    -11.228676    14A    -11.223075    15A     -1.162972
      16A     -1.145780    17A     -1.077679    18A     -1.024057
      19A     -1.010619    20A     -1.008658    21A     -0.959836
      22A     -0.894600    23A     -0.829469    24A     -0.823287
      25A     -0.804444    26A     -0.774154    27A     -0.694837
      28A     -0.670888    29A     -0.650407    30A     -0.632716
      31A     -0.629917    32A     -0.618989    33A     -0.582866
      34A     -0.579482    35A     -0.576635    36A     -0.571689
      37A     -0.565238    38A     -0.541950    39A     -0.520987
      40A     -0.503789    41A     -0.493167    42A     -0.490498
      43A     -0.482664    44A     -0.473876    45A     -0.461230
      46A     -0.337381    47A     -0.334182    48A     -0.329546
      49A     -0.306194

  @DF-RHF Final Energy:  -538.48199445286468

   => Energetics <=

    Nuclear Repulsion Energy =            786.7825143186105379
    One-Electron Energy =               -2288.8783945928685171
    Two-Electron Energy =                 963.6138858213932963
    Total Energy =                       -538.4819944528646829
  Basis Set: (AUG-CC-PVTZ AUX)
    Blend: AUG-CC-PVTZ-RI
    Molecular point group: c1

    Geometry (in Angstrom), charge = 0, multiplicity = 1:

       Center              X                  Y                   Z               Mass
    ------------   -----------------  -----------------  -----------------  -----------------
         C           -0.519146551589     1.566370208968    -0.133243472945    12.000000000000
         C            0.778931548411     0.890634908968    -0.164407272945    12.000000000000
         C           -1.712161451589     0.641993908968    -0.043139272945    12.000000000000
         C            1.750977548411     1.245160908968     0.776106727055    12.000000000000
         C            1.068481548411    -0.147890091032    -1.060824272945    12.000000000000
         C            3.273017548411    -0.451815091032    -0.074392272945    12.000000000000
         C            2.978959548411     0.580600908968     0.822280727055    12.000000000000
         C            2.294904548411    -0.806318091032    -1.015133272945    12.000000000000
         C           -1.798966451589    -0.135516091032     1.120745727055    12.000000000000
         C           -2.706474451589     0.506778908968    -1.017995272945    12.000000000000
         C            4.580961548411    -1.196472091032    -0.003694272945    12.000000000000
         C           -2.859412451589    -1.020958091032     1.306842727055    12.000000000000
         C           -3.769305451589    -0.382694091032    -0.836744272945    12.000000000000
         C           -3.849097451589    -1.147686091032     0.327181727055    12.000000000000
         H           -0.661576451589     2.112813908968    -1.191128272945     1.007825032230
         H           -0.588073451589     2.376945908968     0.545597727055     1.007825032230
         H            1.548719548411     2.052037908968     1.479433727055     1.007825032230
         H            0.319354548411    -0.446673091032    -1.792933272945     1.007825032230
         H            3.721449548411     0.876240908968     1.562343727055     1.007825032230
         H            2.500870548411    -1.606517091032    -1.725041272945     1.007825032230
         H           -1.021011451589    -0.050063091032     1.877999727055     1.007825032230
         H           -2.650430451589     1.104401908968    -1.926751272945     1.007825032230
         H            4.921686548411    -1.489236091032    -1.001202272945     1.007825032230
         H            5.360211548411    -0.580119091032     0.453557727055     1.007825032230
         H            4.485400548411    -2.109706091032     0.593991727055     1.007825032230
         H           -2.914061451589    -1.615992091032     2.215739727055     1.007825032230
         H           -4.533252451589    -0.476779091032    -1.605267272945     1.007825032230
         H           -4.674820451589    -1.840387091032     0.470985727055     1.007825032230

  Basis Set: AUG-CC-PVTZ
    Blend: AUG-CC-PVTZ
  Basis Set: (AUG-CC-PVTZ AUX)
    Blend: AUG-CC-PVTZ-JKFIT
	 Reference Energy          =    -538.4819944528646829 [Eh]
	 Singles Energy            =      -0.0000000000000000 [Eh]
	 Same-Spin Energy          =      -0.6089375250801720 [Eh]
	 Opposite-Spin Energy      =      -1.9359501039245437 [Eh]
	 Correlation Energy        =      -2.5448876290047155 [Eh]
	 Total Energy              =    -541.0268820818694167 [Eh]

	 ================> DF-SCS-MP2 Energies <==================
	-----------------------------------------------------------
	 SCS Same-Spin Scale       =       0.3333333333333333 [-]
	 SCS Opposite-Spin Scale   =       1.2000000000000000 [-]
	 SCS Same-Spin Energy      =      -0.2029791750267240 [Eh]
	 SCS Opposite-Spin Energy  =      -2.3231401247094525 [Eh]
	 SCS Correlation Energy    =      -2.5261192997361763 [Eh]
	 SCS Total Energy          =    -541.0081137526008206 [Eh]
	-----------------------------------------------------------

  Dipole Moment: [D]
     X:     0.3255      Y:    -0.1794      Z:     0.0855     Total:     0.3814

*** Psi4 exiting successfully. Buy a developer a beer!
