                               Psi4 1.4a3.dev225

  ==> Input File <==

--------------------------------------------------------------------------
#psi4
#
memory 32 gb

molecule  {
0 1
  C       -0.5824800     1.6044310    -0.2213210
  C        0.7517090     0.8972820    -0.1584330
  C       -1.7393840     0.6486410    -0.0371650
  C        1.7237550     1.2518080     0.7820810
  C        1.0412590    -0.1412430    -1.0548500
  C        3.2457950    -0.4451680    -0.0684180
  C        2.9517370     0.5872480     0.8282550
  C        2.2676820    -0.7996710    -1.0091590
  C       -1.8261890    -0.1288690     1.1267200
  C       -2.7336970     0.5134260    -1.0120210
  C        4.5537390    -1.1898250     0.0022800
  C       -2.8866350    -1.0143110     1.3128170
  C       -3.7965280    -0.3760470    -0.8307700
  C       -3.8763200    -1.1410390     0.3331560
  H       -0.6887990     2.1194610    -1.1851540
  H       -0.6152960     2.3835930     0.5515720
  H        1.5586316     1.9105424     1.3562771
  H        0.2921320    -0.4400260    -1.7869590
  H        3.6942270     0.8828880     1.5683180
  H        2.4736480    -1.5998700    -1.7190670
  H       -1.0482340    -0.0434160     1.8839740
  H       -2.6776530     1.1110490    -1.9207770
  H        4.8944640    -1.4825890    -0.9952280
  H        5.3329890    -0.5734720     0.4595320
  H        4.4581780    -2.1030590     0.5999660
  H       -2.9412840    -1.6093450     2.2217140
  H       -4.5604750    -0.4701320    -1.5992930
  H       -4.7020430    -1.8337400     0.4769600
units angstrom
no_reorient  #important for SAPT in psi4, default
symmetry c1  #important for SAPT in psi4, default
}

set PROPERTIES_ORIGIN ["COM"]
properties('MP2/aug-cc-pvtz', properties = ['dipole'])
--------------------------------------------------------------------------

    Molecular point group: c1
  Charge       = 0
  Multiplicity = 1
  Basis Set: AUG-CC-PVTZ
    Blend: AUG-CC-PVTZ
  Basis Set: (AUG-CC-PVTZ AUX)
    Blend: AUG-CC-PVTZ-JKFIT

    Orbital Energies [Eh]
    ---------------------

    Doubly Occupied:

       1A    -11.241241     2A    -11.237162     3A    -11.235840
       4A    -11.235136     5A    -11.235108     6A    -11.234645
       7A    -11.231591     8A    -11.231336     9A    -11.229592
      10A    -11.229075    11A    -11.227952    12A    -11.227595
      13A    -11.222255    14A    -11.206630    15A     -1.161336
      16A     -1.145628    17A     -1.073930    18A     -1.027175
      19A     -1.013700    20A     -1.010233    21A     -0.957035
      22A     -0.897583    23A     -0.840140    24A     -0.824591
      25A     -0.806095    26A     -0.777610    27A     -0.694032
      28A     -0.678864    29A     -0.647857    30A     -0.644132
      31A     -0.634414    32A     -0.618157    33A     -0.585655
      34A     -0.582874    35A     -0.574916    36A     -0.569597
      37A     -0.561424    38A     -0.547995    39A     -0.527558
      40A     -0.503058    41A     -0.493937    42A     -0.490422
      43A     -0.480443    44A     -0.472756    45A     -0.470630
      46A     -0.336722    47A     -0.333576    48A     -0.328956
      49A     -0.306613

  @DF-RHF Final Energy:  -538.45979630553677

   => Energetics <=

    Nuclear Repulsion Energy =            787.1549692955043156
    One-Electron Energy =               -2289.5399255079310024
    Two-Electron Energy =                 963.9251599068899168
    Total Energy =                       -538.4597963055367700
  Basis Set: (AUG-CC-PVTZ AUX)
    Blend: AUG-CC-PVTZ-RI
    Molecular point group: c1

    Geometry (in Angstrom), charge = 0, multiplicity = 1:

       Center              X                  Y                   Z               Mass
    ------------   -----------------  -----------------  -----------------  -----------------
         C           -0.553083454566     1.596533768166    -0.220383153562    12.000000000000
         C            0.781105545434     0.889384768166    -0.157495153562    12.000000000000
         C           -1.709987454566     0.640743768166    -0.036227153562    12.000000000000
         C            1.753151545434     1.243910768166     0.783018846438    12.000000000000
         C            1.070655545434    -0.149140231834    -1.053912153562    12.000000000000
         C            3.275191545434    -0.453065231834    -0.067480153562    12.000000000000
         C            2.981133545434     0.579350768166     0.829192846438    12.000000000000
         C            2.297078545434    -0.807568231834    -1.008221153562    12.000000000000
         C           -1.796792454566    -0.136766231834     1.127657846438    12.000000000000
         C           -2.704300454566     0.505528768166    -1.011083153562    12.000000000000
         C            4.583135545434    -1.197722231834     0.003217846438    12.000000000000
         C           -2.857238454566    -1.022208231834     1.313754846438    12.000000000000
         C           -3.767131454566    -0.383944231834    -0.829832153562    12.000000000000
         C           -3.846923454566    -1.148936231834     0.334093846438    12.000000000000
         H           -0.659402454566     2.111563768166    -1.184216153562     1.007825032230
         H           -0.585899454566     2.375695768166     0.552509846438     1.007825032230
         H            1.588028145434     1.902645168166     1.357214946438     1.007825032230
         H            0.321528545434    -0.447923231834    -1.786021153562     1.007825032230
         H            3.723623545434     0.874990768166     1.569255846438     1.007825032230
         H            2.503044545434    -1.607767231834    -1.718129153562     1.007825032230
         H           -1.018837454566    -0.051313231834     1.884911846438     1.007825032230
         H           -2.648256454566     1.103151768166    -1.919839153562     1.007825032230
         H            4.923860545434    -1.490486231834    -0.994290153562     1.007825032230
         H            5.362385545434    -0.581369231834     0.460469846438     1.007825032230
         H            4.487574545434    -2.110956231834     0.600903846438     1.007825032230
         H           -2.911887454566    -1.617242231834     2.222651846438     1.007825032230
         H           -4.531078454566    -0.478029231834    -1.598355153562     1.007825032230
         H           -4.672646454566    -1.841637231834     0.477897846438     1.007825032230

  Basis Set: AUG-CC-PVTZ
    Blend: AUG-CC-PVTZ
  Basis Set: (AUG-CC-PVTZ AUX)
    Blend: AUG-CC-PVTZ-JKFIT
	 Reference Energy          =    -538.4597963055367700 [Eh]
	 Singles Energy            =      -0.0000000000000000 [Eh]
	 Same-Spin Energy          =      -0.6079127337186933 [Eh]
	 Opposite-Spin Energy      =      -1.9340114254654055 [Eh]
	 Correlation Energy        =      -2.5419241591840986 [Eh]
	 Total Energy              =    -541.0017204647208473 [Eh]

	 ================> DF-SCS-MP2 Energies <==================
	-----------------------------------------------------------
	 SCS Same-Spin Scale       =       0.3333333333333333 [-]
	 SCS Opposite-Spin Scale   =       1.2000000000000000 [-]
	 SCS Same-Spin Energy      =      -0.2026375779062311 [Eh]
	 SCS Opposite-Spin Energy  =      -2.3208137105584865 [Eh]
	 SCS Correlation Energy    =      -2.5234512884647176 [Eh]
	 SCS Total Energy          =    -540.9832475940014547 [Eh]
	-----------------------------------------------------------

  Dipole Moment: [D]
     X:     0.3360      Y:    -0.0838      Z:     0.0409     Total:     0.3487

*** Psi4 exiting successfully. Buy a developer a beer!
