                               Psi4 1.4a3.dev225

  ==> Input File <==

--------------------------------------------------------------------------
#psi4
#
memory 32 gb

molecule  {
0 1
  C       -0.5824800     1.6044310    -0.2213210
  C        0.7517090     0.8972820    -0.1584330
  C       -1.7393840     0.6486410    -0.0371650
  C        1.7237550     1.2518080     0.7820810
  C        1.0412590    -0.1412430    -1.0548500
  C        3.2457950    -0.4451680    -0.0684180
  C        2.9517370     0.5872480     0.8282550
  C        2.2676820    -0.7996710    -1.0091590
  C       -1.8261890    -0.1288690     1.1267200
  C       -2.7336970     0.5134260    -1.0120210
  C        4.5537390    -1.1898250     0.0022800
  C       -2.8866350    -1.0143110     1.3128170
  C       -3.7965280    -0.3760470    -0.8307700
  C       -3.8763200    -1.1410390     0.3331560
  H       -0.6887990     2.1194610    -1.1851540
  H       -0.6152960     2.3835930     0.5515720
  H        1.5122134     2.0957207     1.5176907
  H        0.2921320    -0.4400260    -1.7869590
  H        3.6942270     0.8828880     1.5683180
  H        2.4736480    -1.5998700    -1.7190670
  H       -1.0482340    -0.0434160     1.8839740
  H       -2.6776530     1.1110490    -1.9207770
  H        4.8944640    -1.4825890    -0.9952280
  H        5.3329890    -0.5734720     0.4595320
  H        4.4581780    -2.1030590     0.5999660
  H       -2.9412840    -1.6093450     2.2217140
  H       -4.5604750    -0.4701320    -1.5992930
  H       -4.7020430    -1.8337400     0.4769600
units angstrom
no_reorient  #important for SAPT in psi4, default
symmetry c1  #important for SAPT in psi4, default
}

set PROPERTIES_ORIGIN ["COM"]
properties('MP2/aug-cc-pvtz', properties = ['dipole'])
--------------------------------------------------------------------------

    Molecular point group: c1
  Charge       = 0
  Multiplicity = 1
  Basis Set: AUG-CC-PVTZ
    Blend: AUG-CC-PVTZ
  Basis Set: (AUG-CC-PVTZ AUX)
    Blend: AUG-CC-PVTZ-JKFIT

    Orbital Energies [Eh]
    ---------------------

    Doubly Occupied:

       1A    -11.241049     2A    -11.238788     3A    -11.237831
       4A    -11.236567     5A    -11.235244     6A    -11.235017
       7A    -11.234522     8A    -11.231508     9A    -11.231259
      10A    -11.230261    11A    -11.229841    12A    -11.229400
      13A    -11.229015    14A    -11.223234    15A     -1.160685
      16A     -1.145318    17A     -1.073899    18A     -1.023860
      19A     -1.010155    20A     -1.007240    21A     -0.957420
      22A     -0.896197    23A     -0.827223    24A     -0.822059
      25A     -0.802172    26A     -0.773920    27A     -0.693324
      28A     -0.666589    29A     -0.648597    30A     -0.634909
      31A     -0.625418    32A     -0.617250    33A     -0.582795
      34A     -0.576804    35A     -0.575081    36A     -0.569253
      37A     -0.558889    38A     -0.548559    39A     -0.528175
      40A     -0.502924    41A     -0.491084    42A     -0.489787
      43A     -0.476221    44A     -0.473781    45A     -0.471554
      46A     -0.337272    47A     -0.333776    48A     -0.329456
      49A     -0.307560

  @DF-RHF Final Energy:  -538.49135261255390

   => Energetics <=

    Nuclear Repulsion Energy =            785.7089583844600611
    One-Electron Energy =               -2286.7951288585968541
    Two-Electron Energy =                 962.5948178615830102
    Total Energy =                       -538.4913526125538965
  Basis Set: (AUG-CC-PVTZ AUX)
    Blend: AUG-CC-PVTZ-RI
    Molecular point group: c1

    Geometry (in Angstrom), charge = 0, multiplicity = 1:

       Center              X                  Y                   Z               Mass
    ------------   -----------------  -----------------  -----------------  -----------------
         C           -0.552826568401     1.595508960155    -0.221276443707    12.000000000000
         C            0.781362431599     0.888359960155    -0.158388443707    12.000000000000
         C           -1.709730568401     0.639718960155    -0.037120443707    12.000000000000
         C            1.753408431599     1.242885960155     0.782125556293    12.000000000000
         C            1.070912431599    -0.150165039845    -1.054805443707    12.000000000000
         C            3.275448431599    -0.454090039845    -0.068373443707    12.000000000000
         C            2.981390431599     0.578325960155     0.828299556293    12.000000000000
         C            2.297335431599    -0.808593039845    -1.009114443707    12.000000000000
         C           -1.796535568401    -0.137791039845     1.126764556293    12.000000000000
         C           -2.704043568401     0.504503960155    -1.011976443707    12.000000000000
         C            4.583392431599    -1.198747039845     0.002324556293    12.000000000000
         C           -2.856981568401    -1.023233039845     1.312861556293    12.000000000000
         C           -3.766874568401    -0.384969039845    -0.830725443707    12.000000000000
         C           -3.846666568401    -1.149961039845     0.333200556293    12.000000000000
         H           -0.659145568401     2.110538960155    -1.185109443707     1.007825032230
         H           -0.585642568401     2.374670960155     0.551616556293     1.007825032230
         H            1.541866831599     2.086798660155     1.517735256293     1.007825032230
         H            0.321785431599    -0.448948039845    -1.786914443707     1.007825032230
         H            3.723880431599     0.873965960155     1.568362556293     1.007825032230
         H            2.503301431599    -1.608792039845    -1.719022443707     1.007825032230
         H           -1.018580568401    -0.052338039845     1.884018556293     1.007825032230
         H           -2.647999568401     1.102126960155    -1.920732443707     1.007825032230
         H            4.924117431599    -1.491511039845    -0.995183443707     1.007825032230
         H            5.362642431599    -0.582394039845     0.459576556293     1.007825032230
         H            4.487831431599    -2.111981039845     0.600010556293     1.007825032230
         H           -2.911630568401    -1.618267039845     2.221758556293     1.007825032230
         H           -4.530821568401    -0.479054039845    -1.599248443707     1.007825032230
         H           -4.672389568401    -1.842662039845     0.477004556293     1.007825032230

  Basis Set: AUG-CC-PVTZ
    Blend: AUG-CC-PVTZ
  Basis Set: (AUG-CC-PVTZ AUX)
    Blend: AUG-CC-PVTZ-JKFIT
	 Reference Energy          =    -538.4913526125538965 [Eh]
	 Singles Energy            =      -0.0000000000000000 [Eh]
	 Same-Spin Energy          =      -0.6083225541126233 [Eh]
	 Opposite-Spin Energy      =      -1.9352079935370341 [Eh]
	 Correlation Energy        =      -2.5435305476496572 [Eh]
	 Total Energy              =    -541.0348831602035489 [Eh]

	 ================> DF-SCS-MP2 Energies <==================
	-----------------------------------------------------------
	 SCS Same-Spin Scale       =       0.3333333333333333 [-]
	 SCS Opposite-Spin Scale   =       1.2000000000000000 [-]
	 SCS Same-Spin Energy      =      -0.2027741847042077 [Eh]
	 SCS Opposite-Spin Energy  =      -2.3222495922444408 [Eh]
	 SCS Correlation Energy    =      -2.5250237769486485 [Eh]
	 SCS Total Energy          =    -541.0163763895025113 [Eh]
	-----------------------------------------------------------

  Dipole Moment: [D]
     X:     0.3715      Y:    -0.1490      Z:    -0.0040     Total:     0.4003

*** Psi4 exiting successfully. Buy a developer a beer!
