                               Psi4 1.4a3.dev225

  ==> Input File <==

--------------------------------------------------------------------------
#psi4
#
memory 32 gb

molecule  {
0 1
  C       -0.5824800     1.6044310    -0.2213210
  C        0.7517090     0.8972820    -0.1584330
  C       -1.7393840     0.6486410    -0.0371650
  C        1.7237550     1.2518080     0.7820810
  C        1.0412590    -0.1412430    -1.0548500
  C        3.2037349    -0.5207966    -0.0086552
  C        2.9517370     0.5872480     0.8282550
  C        2.2676820    -0.7996710    -1.0091590
  C       -1.8261890    -0.1288690     1.1267200
  C       -2.7336970     0.5134260    -1.0120210
  C        4.5537390    -1.1898250     0.0022800
  C       -2.8866350    -1.0143110     1.3128170
  C       -3.7965280    -0.3760470    -0.8307700
  C       -3.8763200    -1.1410390     0.3331560
  H       -0.6887990     2.1194610    -1.1851540
  H       -0.6152960     2.3835930     0.5515720
  H        1.5214970     2.0586850     1.4854080
  H        0.2921320    -0.4400260    -1.7869590
  H        3.6942270     0.8828880     1.5683180
  H        2.4736480    -1.5998700    -1.7190670
  H       -1.0482340    -0.0434160     1.8839740
  H       -2.6776530     1.1110490    -1.9207770
  H        4.8944640    -1.4825890    -0.9952280
  H        5.3329890    -0.5734720     0.4595320
  H        4.4581780    -2.1030590     0.5999660
  H       -2.9412840    -1.6093450     2.2217140
  H       -4.5604750    -0.4701320    -1.5992930
  H       -4.7020430    -1.8337400     0.4769600
units angstrom
no_reorient  #important for SAPT in psi4, default
symmetry c1  #important for SAPT in psi4, default
}

set PROPERTIES_ORIGIN ["COM"]
properties('MP2/aug-cc-pvtz', properties = ['dipole'])
--------------------------------------------------------------------------

    Molecular point group: c1
  Charge       = 0
  Multiplicity = 1
  Basis Set: AUG-CC-PVTZ
    Blend: AUG-CC-PVTZ
  Basis Set: (AUG-CC-PVTZ AUX)
    Blend: AUG-CC-PVTZ-JKFIT

    Orbital Energies [Eh]
    ---------------------

    Doubly Occupied:

       1A    -11.241049     2A    -11.239547     3A    -11.236884
       4A    -11.235217     5A    -11.234991     6A    -11.234506
       7A    -11.231506     8A    -11.231463     9A    -11.231216
      10A    -11.230298    11A    -11.229669    12A    -11.229406
      13A    -11.228445    14A    -11.223058    15A     -1.160419
      16A     -1.144972    17A     -1.073589    18A     -1.024084
      19A     -1.010124    20A     -1.007801    21A     -0.957293
      22A     -0.895980    23A     -0.827823    24A     -0.822505
      25A     -0.802555    26A     -0.774584    27A     -0.693313
      28A     -0.667690    29A     -0.647786    30A     -0.635036
      31A     -0.628934    32A     -0.617544    33A     -0.582755
      34A     -0.578424    35A     -0.575753    36A     -0.569902
      37A     -0.559077    38A     -0.548839    39A     -0.528359
      40A     -0.500658    41A     -0.492200    42A     -0.490543
      43A     -0.477360    44A     -0.474960    45A     -0.468720
      46A     -0.336401    47A     -0.333427    48A     -0.329741
      49A     -0.306439

  @DF-RHF Final Energy:  -538.49005022006236

   => Energetics <=

    Nuclear Repulsion Energy =            785.9969201182950655
    One-Electron Energy =               -2287.3682496315454955
    Two-Electron Energy =                 962.8812792931880722
    Total Energy =                       -538.4900502200623578
  Basis Set: (AUG-CC-PVTZ AUX)
    Blend: AUG-CC-PVTZ-RI
    Molecular point group: c1

    Geometry (in Angstrom), charge = 0, multiplicity = 1:

       Center              X                  Y                   Z               Mass
    ------------   -----------------  -----------------  -----------------  -----------------
         C           -0.550106420258     1.600697423381    -0.225035819781    12.000000000000
         C            0.784082579742     0.893548423381    -0.162147819781    12.000000000000
         C           -1.707010420258     0.644907423381    -0.040879819781    12.000000000000
         C            1.756128579742     1.248074423381     0.778366180219    12.000000000000
         C            1.073632579742    -0.144976576619    -1.058564819781    12.000000000000
         C            3.236108479742    -0.524530176619    -0.012370019781    12.000000000000
         C            2.984110579742     0.583514423381     0.824540180219    12.000000000000
         C            2.300055579742    -0.803404576619    -1.012873819781    12.000000000000
         C           -1.793815420258    -0.132602576619     1.123005180219    12.000000000000
         C           -2.701323420258     0.509692423381    -1.015735819781    12.000000000000
         C            4.586112579742    -1.193558576619    -0.001434819781    12.000000000000
         C           -2.854261420258    -1.018044576619     1.309102180219    12.000000000000
         C           -3.764154420258    -0.379780576619    -0.834484819781    12.000000000000
         C           -3.843946420258    -1.144772576619     0.329441180219    12.000000000000
         H           -0.656425420258     2.115727423381    -1.188868819781     1.007825032230
         H           -0.582922420258     2.379859423381     0.547857180219     1.007825032230
         H            1.553870579742     2.054951423381     1.481693180219     1.007825032230
         H            0.324505579742    -0.443759576619    -1.790673819781     1.007825032230
         H            3.726600579742     0.879154423381     1.564603180219     1.007825032230
         H            2.506021579742    -1.603603576619    -1.722781819781     1.007825032230
         H           -1.015860420258    -0.047149576619     1.880259180219     1.007825032230
         H           -2.645279420258     1.107315423381    -1.924491819781     1.007825032230
         H            4.926837579742    -1.486322576619    -0.998942819781     1.007825032230
         H            5.365362579742    -0.577205576619     0.455817180219     1.007825032230
         H            4.490551579742    -2.106792576619     0.596251180219     1.007825032230
         H           -2.908910420258    -1.613078576619     2.217999180219     1.007825032230
         H           -4.528101420258    -0.473865576619    -1.603007819781     1.007825032230
         H           -4.669669420258    -1.837473576619     0.473245180219     1.007825032230

  Basis Set: AUG-CC-PVTZ
    Blend: AUG-CC-PVTZ
  Basis Set: (AUG-CC-PVTZ AUX)
    Blend: AUG-CC-PVTZ-JKFIT
	 Reference Energy          =    -538.4900502200623578 [Eh]
	 Singles Energy            =      -0.0000000000000000 [Eh]
	 Same-Spin Energy          =      -0.6083867281039835 [Eh]
	 Opposite-Spin Energy      =      -1.9352476228998117 [Eh]
	 Correlation Energy        =      -2.5436343510037953 [Eh]
	 Total Energy              =    -541.0336845710661464 [Eh]

	 ================> DF-SCS-MP2 Energies <==================
	-----------------------------------------------------------
	 SCS Same-Spin Scale       =       0.3333333333333333 [-]
	 SCS Opposite-Spin Scale   =       1.2000000000000000 [-]
	 SCS Same-Spin Energy      =      -0.2027955760346612 [Eh]
	 SCS Opposite-Spin Energy  =      -2.3222971474797740 [Eh]
	 SCS Correlation Energy    =      -2.5250927235144354 [Eh]
	 SCS Total Energy          =    -541.0151429435768478 [Eh]
	-----------------------------------------------------------

  Dipole Moment: [D]
     X:     0.3943      Y:    -0.1011      Z:    -0.0169     Total:     0.4074

*** Psi4 exiting successfully. Buy a developer a beer!
