                               Psi4 1.4a3.dev225

  ==> Input File <==

--------------------------------------------------------------------------
#psi4
#
memory 32 gb

molecule  {
0 1
  C       -0.5824800     1.6044310    -0.2213210
  C        0.7517090     0.8972820    -0.1584330
  C       -1.7393840     0.6486410    -0.0371650
  C        1.7237550     1.2518080     0.7820810
  C        1.0412590    -0.1412430    -1.0548500
  C        3.2457950    -0.4451680    -0.0684180
  C        2.9517370     0.5872480     0.8282550
  C        2.2676820    -0.7996710    -1.0091590
  C       -1.8261890    -0.1288690     1.1267200
  C       -2.7336970     0.5134260    -1.0120210
  C        4.5537390    -1.1898250     0.0022800
  C       -2.8866350    -1.0143110     1.3128170
  C       -3.7965280    -0.3760470    -0.8307700
  C       -3.8763200    -1.1410390     0.3331560
  H       -0.6887990     2.1194610    -1.1851540
  H       -0.6152960     2.3835930     0.5515720
  H        1.5214970     2.0586850     1.4854080
  H        0.2921320    -0.4400260    -1.7869590
  H        3.6942270     0.8828880     1.5683180
  H        2.4736480    -1.5998700    -1.7190670
  H       -1.0482340    -0.0434160     1.8839740
  H       -2.6776530     1.1110490    -1.9207770
  H        4.8944640    -1.4825890    -0.9952280
  H        5.3329890    -0.5734720     0.4595320
  H        4.4581780    -2.1030590     0.5999660
  H       -2.9463082    -1.6640495     2.3052734
  H       -4.5604750    -0.4701320    -1.5992930
  H       -4.7020430    -1.8337400     0.4769600
units angstrom
no_reorient  #important for SAPT in psi4, default
symmetry c1  #important for SAPT in psi4, default
}

set PROPERTIES_ORIGIN ["COM"]
properties('MP2/aug-cc-pvtz', properties = ['dipole'])
--------------------------------------------------------------------------

    Molecular point group: c1
  Charge       = 0
  Multiplicity = 1
  Basis Set: AUG-CC-PVTZ
    Blend: AUG-CC-PVTZ
  Basis Set: (AUG-CC-PVTZ AUX)
    Blend: AUG-CC-PVTZ-JKFIT

    Orbital Energies [Eh]
    ---------------------

    Doubly Occupied:

       1A    -11.245798     2A    -11.241843     3A    -11.238520
       4A    -11.237147     5A    -11.235797     6A    -11.235711
       7A    -11.232496     8A    -11.231919     9A    -11.231357
      10A    -11.230543    11A    -11.230055    12A    -11.229290
      13A    -11.228827    14A    -11.223065    15A     -1.160935
      16A     -1.145459    17A     -1.073910    18A     -1.023992
      19A     -1.008810    20A     -1.007973    21A     -0.957559
      22A     -0.896538    23A     -0.827831    24A     -0.820038
      25A     -0.801160    26A     -0.774081    27A     -0.691402
      28A     -0.668092    29A     -0.648610    30A     -0.632630
      31A     -0.626014    32A     -0.615124    33A     -0.578973
      34A     -0.578821    35A     -0.573866    36A     -0.568749
      37A     -0.560130    38A     -0.548745    39A     -0.528295
      40A     -0.503113    41A     -0.491197    42A     -0.486833
      43A     -0.477749    44A     -0.473022    45A     -0.470854
      46A     -0.337523    47A     -0.334204    48A     -0.329639
      49A     -0.307639

  @DF-RHF Final Energy:  -538.48648774975788

   => Energetics <=

    Nuclear Repulsion Energy =            785.4729283277512195
    One-Electron Energy =               -2286.3150741124613887
    Two-Electron Energy =                 962.3556580349523983
    Total Energy =                       -538.4864877497578846
  Basis Set: (AUG-CC-PVTZ AUX)
    Blend: AUG-CC-PVTZ-RI
    Molecular point group: c1

    Geometry (in Angstrom), charge = 0, multiplicity = 1:

       Center              X                  Y                   Z               Mass
    ------------   -----------------  -----------------  -----------------  -----------------
         C           -0.552850140641     1.596016665928    -0.221560217631    12.000000000000
         C            0.781338859359     0.888867665928    -0.158672217631    12.000000000000
         C           -1.709754140641     0.640226665928    -0.037404217631    12.000000000000
         C            1.753384859359     1.243393665928     0.781841782369    12.000000000000
         C            1.070888859359    -0.149657334072    -1.055089217631    12.000000000000
         C            3.275424859359    -0.453582334072    -0.068657217631    12.000000000000
         C            2.981366859359     0.578833665928     0.828015782369    12.000000000000
         C            2.297311859359    -0.808085334072    -1.009398217631    12.000000000000
         C           -1.796559140641    -0.137283334072     1.126480782369    12.000000000000
         C           -2.704067140641     0.505011665928    -1.012260217631    12.000000000000
         C            4.583368859359    -1.198239334072     0.002040782369    12.000000000000
         C           -2.857005140641    -1.022725334072     1.312577782369    12.000000000000
         C           -3.766898140641    -0.384461334072    -0.831009217631    12.000000000000
         C           -3.846690140641    -1.149453334072     0.332916782369    12.000000000000
         H           -0.659169140641     2.111046665928    -1.185393217631     1.007825032230
         H           -0.585666140641     2.375178665928     0.551332782369     1.007825032230
         H            1.551126859359     2.050270665928     1.485168782369     1.007825032230
         H            0.321761859359    -0.448440334072    -1.787198217631     1.007825032230
         H            3.723856859359     0.874473665928     1.568078782369     1.007825032230
         H            2.503277859359    -1.608284334072    -1.719306217631     1.007825032230
         H           -1.018604140641    -0.051830334072     1.883734782369     1.007825032230
         H           -2.648023140641     1.102634665928    -1.921016217631     1.007825032230
         H            4.924093859359    -1.491003334072    -0.995467217631     1.007825032230
         H            5.362618859359    -0.581886334072     0.459292782369     1.007825032230
         H            4.487807859359    -2.111473334072     0.599726782369     1.007825032230
         H           -2.916678340641    -1.672463834072     2.305034182369     1.007825032230
         H           -4.530845140641    -0.478546334072    -1.599532217631     1.007825032230
         H           -4.672413140641    -1.842154334072     0.476720782369     1.007825032230

  Basis Set: AUG-CC-PVTZ
    Blend: AUG-CC-PVTZ
  Basis Set: (AUG-CC-PVTZ AUX)
    Blend: AUG-CC-PVTZ-JKFIT
	 Reference Energy          =    -538.4864877497578846 [Eh]
	 Singles Energy            =      -0.0000000000000000 [Eh]
	 Same-Spin Energy          =      -0.6084038099723859 [Eh]
	 Opposite-Spin Energy      =      -1.9357002980477080 [Eh]
	 Correlation Energy        =      -2.5441041080200941 [Eh]
	 Total Energy              =    -541.0305918577779494 [Eh]

	 ================> DF-SCS-MP2 Energies <==================
	-----------------------------------------------------------
	 SCS Same-Spin Scale       =       0.3333333333333333 [-]
	 SCS Opposite-Spin Scale   =       1.2000000000000000 [-]
	 SCS Same-Spin Energy      =      -0.2028012699907953 [Eh]
	 SCS Opposite-Spin Energy  =      -2.3228403576572494 [Eh]
	 SCS Correlation Energy    =      -2.5256416276480445 [Eh]
	 SCS Total Energy          =    -541.0121293774059268 [Eh]
	-----------------------------------------------------------

  Dipole Moment: [D]
     X:     0.3772      Y:    -0.1016      Z:    -0.0326     Total:     0.3920

*** Psi4 exiting successfully. Buy a developer a beer!
