                               Psi4 1.4a3.dev225

  ==> Input File <==

--------------------------------------------------------------------------
#psi4
#
memory 32 gb

molecule  {
0 1
  C       -0.5637084     1.5892972    -0.1743787
  C        0.7517090     0.8972820    -0.1584330
  C       -1.7393840     0.6486410    -0.0371650
  C        1.7237550     1.2518080     0.7820810
  C        1.0412590    -0.1412430    -1.0548500
  C        3.2457950    -0.4451680    -0.0684180
  C        2.9517370     0.5872480     0.8282550
  C        2.2676820    -0.7996710    -1.0091590
  C       -1.8261890    -0.1288690     1.1267200
  C       -2.7336970     0.5134260    -1.0120210
  C        4.5537390    -1.1898250     0.0022800
  C       -2.8866350    -1.0143110     1.3128170
  C       -3.7965280    -0.3760470    -0.8307700
  C       -3.8763200    -1.1410390     0.3331560
  H       -0.6887990     2.1194610    -1.1851540
  H       -0.6152960     2.3835930     0.5515720
  H        1.5214970     2.0586850     1.4854080
  H        0.2921320    -0.4400260    -1.7869590
  H        3.6942270     0.8828880     1.5683180
  H        2.4736480    -1.5998700    -1.7190670
  H       -1.0482340    -0.0434160     1.8839740
  H       -2.6776530     1.1110490    -1.9207770
  H        4.8944640    -1.4825890    -0.9952280
  H        5.3329890    -0.5734720     0.4595320
  H        4.4581780    -2.1030590     0.5999660
  H       -2.9412840    -1.6093450     2.2217140
  H       -4.5604750    -0.4701320    -1.5992930
  H       -4.7020430    -1.8337400     0.4769600
units angstrom
no_reorient  #important for SAPT in psi4, default
symmetry c1  #important for SAPT in psi4, default
}

set PROPERTIES_ORIGIN ["COM"]
properties('MP2/aug-cc-pvtz', properties = ['dipole'])
--------------------------------------------------------------------------

    Molecular point group: c1
  Charge       = 0
  Multiplicity = 1
  Basis Set: AUG-CC-PVTZ
    Blend: AUG-CC-PVTZ
  Basis Set: (AUG-CC-PVTZ AUX)
    Blend: AUG-CC-PVTZ-JKFIT

    Orbital Energies [Eh]
    ---------------------

    Doubly Occupied:

       1A    -11.241073     2A    -11.238389     3A    -11.236621
       4A    -11.235830     5A    -11.235386     6A    -11.234317
       7A    -11.232417     8A    -11.231638     9A    -11.230820
      10A    -11.230333    11A    -11.229129    12A    -11.229043
      13A    -11.228989    14A    -11.223020    15A     -1.161722
      16A     -1.145474    17A     -1.075673    18A     -1.023937
      19A     -1.010363    20A     -1.008368    21A     -0.958524
      22A     -0.895255    23A     -0.828750    24A     -0.823003
      25A     -0.803635    26A     -0.774230    27A     -0.694030
      28A     -0.668926    29A     -0.649398    30A     -0.633596
      31A     -0.629209    32A     -0.618321    33A     -0.582750
      34A     -0.579004    35A     -0.575532    36A     -0.570158
      37A     -0.562872    38A     -0.544743    39A     -0.525247
      40A     -0.503302    41A     -0.491931    42A     -0.490719
      43A     -0.480181    44A     -0.473237    45A     -0.467903
      46A     -0.337207    47A     -0.333919    48A     -0.329426
      49A     -0.306941

  @DF-RHF Final Energy:  -538.49051515825442

   => Energetics <=

    Nuclear Repulsion Energy =            786.3766976954307211
    One-Electron Energy =               -2288.1054553432945795
    Two-Electron Energy =                 963.2382424896094335
    Total Energy =                       -538.4905151582544249
  Basis Set: (AUG-CC-PVTZ AUX)
    Blend: AUG-CC-PVTZ-RI
    Molecular point group: c1

    Geometry (in Angstrom), charge = 0, multiplicity = 1:

       Center              X                  Y                   Z               Mass
    ------------   -----------------  -----------------  -----------------  -----------------
         C           -0.535343288777     1.581577354686    -0.177248720595    12.000000000000
         C            0.780074111223     0.889562154686    -0.161303020595    12.000000000000
         C           -1.711018888777     0.640921154686    -0.040035020595    12.000000000000
         C            1.752120111223     1.244088154686     0.779210979405    12.000000000000
         C            1.069624111223    -0.148962845314    -1.057720020595    12.000000000000
         C            3.274160111223    -0.452887845314    -0.071288020595    12.000000000000
         C            2.980102111223     0.579528154686     0.825384979405    12.000000000000
         C            2.296047111223    -0.807390845314    -1.012029020595    12.000000000000
         C           -1.797823888777    -0.136588845314     1.123849979405    12.000000000000
         C           -2.705331888777     0.505706154686    -1.014891020595    12.000000000000
         C            4.582104111223    -1.197544845314    -0.000590020595    12.000000000000
         C           -2.858269888777    -1.022030845314     1.309946979405    12.000000000000
         C           -3.768162888777    -0.383766845314    -0.833640020595    12.000000000000
         C           -3.847954888777    -1.148758845314     0.330285979405    12.000000000000
         H           -0.660433888777     2.111741154686    -1.188024020595     1.007825032230
         H           -0.586930888777     2.375873154686     0.548701979405     1.007825032230
         H            1.549862111223     2.050965154686     1.482537979405     1.007825032230
         H            0.320497111223    -0.447745845314    -1.789829020595     1.007825032230
         H            3.722592111223     0.875168154686     1.565447979405     1.007825032230
         H            2.502013111223    -1.607589845314    -1.721937020595     1.007825032230
         H           -1.019868888777    -0.051135845314     1.881103979405     1.007825032230
         H           -2.649287888777     1.103329154686    -1.923647020595     1.007825032230
         H            4.922829111223    -1.490308845314    -0.998098020595     1.007825032230
         H            5.361354111223    -0.581191845314     0.456661979405     1.007825032230
         H            4.486543111223    -2.110778845314     0.597095979405     1.007825032230
         H           -2.912918888777    -1.617064845314     2.218843979405     1.007825032230
         H           -4.532109888777    -0.477851845314    -1.602163020595     1.007825032230
         H           -4.673677888777    -1.841459845314     0.474089979405     1.007825032230

  Basis Set: AUG-CC-PVTZ
    Blend: AUG-CC-PVTZ
  Basis Set: (AUG-CC-PVTZ AUX)
    Blend: AUG-CC-PVTZ-JKFIT
	 Reference Energy          =    -538.4905151582544249 [Eh]
	 Singles Energy            =      -0.0000000000000000 [Eh]
	 Same-Spin Energy          =      -0.6084905589037805 [Eh]
	 Opposite-Spin Energy      =      -1.9351671366766670 [Eh]
	 Correlation Energy        =      -2.5436576955804475 [Eh]
	 Total Energy              =    -541.0341728538348889 [Eh]

	 ================> DF-SCS-MP2 Energies <==================
	-----------------------------------------------------------
	 SCS Same-Spin Scale       =       0.3333333333333333 [-]
	 SCS Opposite-Spin Scale   =       1.2000000000000000 [-]
	 SCS Same-Spin Energy      =      -0.2028301863012602 [Eh]
	 SCS Opposite-Spin Energy  =      -2.3222005640120003 [Eh]
	 SCS Correlation Energy    =      -2.5250307503132605 [Eh]
	 SCS Total Energy          =    -541.0155459085676739 [Eh]
	-----------------------------------------------------------

  Dipole Moment: [D]
     X:     0.3445      Y:    -0.1503      Z:     0.0456     Total:     0.3786

*** Psi4 exiting successfully. Buy a developer a beer!
