                               Psi4 1.4a3.dev225

  ==> Input File <==

--------------------------------------------------------------------------
#psi4
#
memory 32 gb

molecule  {
0 1
  C       -0.5824800     1.6044310    -0.2213210
  C        0.7517090     0.8972820    -0.1584330
  C       -1.7393840     0.6486410    -0.0371650
  C        1.7237550     1.2518080     0.7820810
  C        1.0412590    -0.1412430    -1.0548500
  C        3.2457950    -0.4451680    -0.0684180
  C        2.9517370     0.5872480     0.8282550
  C        2.2676820    -0.7996710    -1.0091590
  C       -1.8261890    -0.1288690     1.1267200
  C       -2.7336970     0.5134260    -1.0120210
  C        4.5537390    -1.1898250     0.0022800
  C       -3.0387813    -1.1413488     1.3395171
  C       -3.7965280    -0.3760470    -0.8307700
  C       -3.8763200    -1.1410390     0.3331560
  H       -0.6887990     2.1194610    -1.1851540
  H       -0.6152960     2.3835930     0.5515720
  H        1.5214970     2.0586850     1.4854080
  H        0.2921320    -0.4400260    -1.7869590
  H        3.6942270     0.8828880     1.5683180
  H        2.4736480    -1.5998700    -1.7190670
  H       -1.0482340    -0.0434160     1.8839740
  H       -2.6776530     1.1110490    -1.9207770
  H        4.8944640    -1.4825890    -0.9952280
  H        5.3329890    -0.5734720     0.4595320
  H        4.4581780    -2.1030590     0.5999660
  H       -2.9412840    -1.6093450     2.2217140
  H       -4.5604750    -0.4701320    -1.5992930
  H       -4.7020430    -1.8337400     0.4769600
units angstrom
no_reorient  #important for SAPT in psi4, default
symmetry c1  #important for SAPT in psi4, default
}

set PROPERTIES_ORIGIN ["COM"]
properties('MP2/aug-cc-pvtz', properties = ['dipole'])
--------------------------------------------------------------------------

    Molecular point group: c1
  Charge       = 0
  Multiplicity = 1
  Basis Set: AUG-CC-PVTZ
    Blend: AUG-CC-PVTZ
  Basis Set: (AUG-CC-PVTZ AUX)
    Blend: AUG-CC-PVTZ-JKFIT

    Orbital Energies [Eh]
    ---------------------

    Doubly Occupied:

       1A    -11.244524     2A    -11.239243     3A    -11.237761
       4A    -11.236776     5A    -11.236607     6A    -11.236456
       7A    -11.235405     8A    -11.234867     9A    -11.230522
      10A    -11.229426    11A    -11.228613    12A    -11.228199
      13A    -11.224880    14A    -11.222616    15A     -1.158154
      16A     -1.141739    17A     -1.076963    18A     -1.031940
      19A     -1.007693    20A     -0.997581    21A     -0.955389
      22A     -0.894245    23A     -0.838855    24A     -0.825567
      25A     -0.797891    26A     -0.773806    27A     -0.692297
      28A     -0.667431    29A     -0.657033    30A     -0.642504
      31A     -0.629114    32A     -0.621801    33A     -0.582192
      34A     -0.577890    35A     -0.575797    36A     -0.568231
      37A     -0.559069    38A     -0.545396    39A     -0.526823
      40A     -0.507201    41A     -0.494135    42A     -0.481138
      43A     -0.477245    44A     -0.474959    45A     -0.449289
      46A     -0.348428    47A     -0.332562    48A     -0.321267
      49A     -0.302679

  @DF-RHF Final Energy:  -538.45167604853100

   => Energetics <=

    Nuclear Repulsion Energy =            783.4563760352986037
    One-Electron Energy =               -2282.2157071090564386
    Two-Electron Energy =                 960.3076550252269499
    Total Energy =                       -538.4516760485309987
  Basis Set: (AUG-CC-PVTZ AUX)
    Blend: AUG-CC-PVTZ-RI
    Molecular point group: c1

    Geometry (in Angstrom), charge = 0, multiplicity = 1:

       Center              X                  Y                   Z               Mass
    ------------   -----------------  -----------------  -----------------  -----------------
         C           -0.542852355896     1.604085001893    -0.222857172922    12.000000000000
         C            0.791336644104     0.896936001893    -0.159969172922    12.000000000000
         C           -1.699756355896     0.648295001893    -0.038701172922    12.000000000000
         C            1.763382644104     1.251462001893     0.780544827078    12.000000000000
         C            1.080886644104    -0.141588998107    -1.056386172922    12.000000000000
         C            3.285422644104    -0.445513998107    -0.069954172922    12.000000000000
         C            2.991364644104     0.586902001893     0.826718827078    12.000000000000
         C            2.307309644104    -0.800016998107    -1.010695172922    12.000000000000
         C           -1.786561355896    -0.129214998107     1.125183827078    12.000000000000
         C           -2.694069355896     0.513080001893    -1.013557172922    12.000000000000
         C            4.593366644104    -1.190170998107     0.000743827078    12.000000000000
         C           -2.999153655896    -1.141694798107     1.337980927078    12.000000000000
         C           -3.756900355896    -0.376392998107    -0.832306172922    12.000000000000
         C           -3.836692355896    -1.141384998107     0.331619827078    12.000000000000
         H           -0.649171355896     2.119115001893    -1.186690172922     1.007825032230
         H           -0.575668355896     2.383247001893     0.550035827078     1.007825032230
         H            1.561124644104     2.058339001893     1.483871827078     1.007825032230
         H            0.331759644104    -0.440371998107    -1.788495172922     1.007825032230
         H            3.733854644104     0.882542001893     1.566781827078     1.007825032230
         H            2.513275644104    -1.600215998107    -1.720603172922     1.007825032230
         H           -1.008606355896    -0.043761998107     1.882437827078     1.007825032230
         H           -2.638025355896     1.110703001893    -1.922313172922     1.007825032230
         H            4.934091644104    -1.482934998107    -0.996764172922     1.007825032230
         H            5.372616644104    -0.573817998107     0.457995827078     1.007825032230
         H            4.497805644104    -2.103404998107     0.598429827078     1.007825032230
         H           -2.901656355896    -1.609690998107     2.220177827078     1.007825032230
         H           -4.520847355896    -0.470477998107    -1.600829172922     1.007825032230
         H           -4.662415355896    -1.834085998107     0.475423827078     1.007825032230

  Basis Set: AUG-CC-PVTZ
    Blend: AUG-CC-PVTZ
  Basis Set: (AUG-CC-PVTZ AUX)
    Blend: AUG-CC-PVTZ-JKFIT
	 Reference Energy          =    -538.4516760485309987 [Eh]
	 Singles Energy            =      -0.0000000000000000 [Eh]
	 Same-Spin Energy          =      -0.6081109777727425 [Eh]
	 Opposite-Spin Energy      =      -1.9375398460680842 [Eh]
	 Correlation Energy        =      -2.5456508238408269 [Eh]
	 Total Energy              =    -540.9973268723717865 [Eh]

	 ================> DF-SCS-MP2 Energies <==================
	-----------------------------------------------------------
	 SCS Same-Spin Scale       =       0.3333333333333333 [-]
	 SCS Opposite-Spin Scale   =       1.2000000000000000 [-]
	 SCS Same-Spin Energy      =      -0.2027036592575808 [Eh]
	 SCS Opposite-Spin Energy  =      -2.3250478152817009 [Eh]
	 SCS Correlation Energy    =      -2.5277514745392815 [Eh]
	 SCS Total Energy          =    -540.9794275230702851 [Eh]
	-----------------------------------------------------------

  Dipole Moment: [D]
     X:     0.3576      Y:    -0.1385      Z:     0.0401     Total:     0.3856

*** Psi4 exiting successfully. Buy a developer a beer!
