                               Psi4 1.4a3.dev225

  ==> Input File <==

--------------------------------------------------------------------------
#psi4
#
memory 32 gb

molecule  {
0 1
  C       -0.5923959     1.6115623    -0.2447116
  C        0.7517090     0.8972820    -0.1584330
  C       -1.7393840     0.6486410    -0.0371650
  C        1.7237550     1.2518080     0.7820810
  C        1.0412590    -0.1412430    -1.0548500
  C        3.2457950    -0.4451680    -0.0684180
  C        2.9517370     0.5872480     0.8282550
  C        2.2676820    -0.7996710    -1.0091590
  C       -1.8261890    -0.1288690     1.1267200
  C       -2.7336970     0.5134260    -1.0120210
  C        4.5537390    -1.1898250     0.0022800
  C       -2.8866350    -1.0143110     1.3128170
  C       -3.7965280    -0.3760470    -0.8307700
  C       -3.8763200    -1.1410390     0.3331560
  H       -0.6887990     2.1194610    -1.1851540
  H       -0.6152960     2.3835930     0.5515720
  H        1.5214970     2.0586850     1.4854080
  H        0.2921320    -0.4400260    -1.7869590
  H        3.6942270     0.8828880     1.5683180
  H        2.4736480    -1.5998700    -1.7190670
  H       -1.0482340    -0.0434160     1.8839740
  H       -2.6776530     1.1110490    -1.9207770
  H        4.8944640    -1.4825890    -0.9952280
  H        5.3329890    -0.5734720     0.4595320
  H        4.4581780    -2.1030590     0.5999660
  H       -2.9412840    -1.6093450     2.2217140
  H       -4.5604750    -0.4701320    -1.5992930
  H       -4.7020430    -1.8337400     0.4769600
units angstrom
no_reorient  #important for SAPT in psi4, default
symmetry c1  #important for SAPT in psi4, default
}

set PROPERTIES_ORIGIN ["COM"]
properties('MP2/aug-cc-pvtz', properties = ['dipole'])
--------------------------------------------------------------------------

    Molecular point group: c1
  Charge       = 0
  Multiplicity = 1
  Basis Set: AUG-CC-PVTZ
    Blend: AUG-CC-PVTZ
  Basis Set: (AUG-CC-PVTZ AUX)
    Blend: AUG-CC-PVTZ-JKFIT

    Orbital Energies [Eh]
    ---------------------

    Doubly Occupied:

       1A    -11.241215     2A    -11.238381     3A    -11.237426
       4A    -11.235072     5A    -11.234897     6A    -11.234668
       7A    -11.231403     8A    -11.231222     9A    -11.230968
      10A    -11.229705    11A    -11.229698    12A    -11.229214
      13A    -11.228468    14A    -11.222970    15A     -1.160197
      16A     -1.145185    17A     -1.072952    18A     -1.024111
      19A     -1.010110    20A     -1.008031    21A     -0.956732
      22A     -0.896879    23A     -0.827804    24A     -0.822804
      25A     -0.802672    26A     -0.774900    27A     -0.693151
      28A     -0.667746    29A     -0.647878    30A     -0.636041
      31A     -0.628278    32A     -0.617393    33A     -0.582951
      34A     -0.578686    35A     -0.575386    36A     -0.569891
      37A     -0.558421    38A     -0.549697    39A     -0.528750
      40A     -0.502743    41A     -0.491518    42A     -0.489560
      43A     -0.476478    44A     -0.475153    45A     -0.470441
      46A     -0.337068    47A     -0.333620    48A     -0.329203
      49A     -0.307385

  @DF-RHF Final Energy:  -538.49325625384859

   => Energetics <=

    Nuclear Repulsion Energy =            785.7591156441153544
    One-Electron Energy =               -2286.8944984959525755
    Two-Electron Energy =                 962.6421265979886357
    Total Energy =                       -538.4932562538485854
  Basis Set: (AUG-CC-PVTZ AUX)
    Blend: AUG-CC-PVTZ-RI
    Molecular point group: c1

    Geometry (in Angstrom), charge = 0, multiplicity = 1:

       Center              X                  Y                   Z               Mass
    ------------   -----------------  -----------------  -----------------  -----------------
         C           -0.562140443108     1.602375309227    -0.242947076179    12.000000000000
         C            0.781964456892     0.888095009227    -0.156668476179    12.000000000000
         C           -1.709128543108     0.639454009227    -0.035400476179    12.000000000000
         C            1.754010456892     1.242621009227     0.783845523821    12.000000000000
         C            1.071514456892    -0.150429990773    -1.053085476179    12.000000000000
         C            3.276050456892    -0.454354990773    -0.066653476179    12.000000000000
         C            2.981992456892     0.578061009227     0.830019523821    12.000000000000
         C            2.297937456892    -0.808857990773    -1.007394476179    12.000000000000
         C           -1.795933543108    -0.138055990773     1.128484523821    12.000000000000
         C           -2.703441543108     0.504239009227    -1.010256476179    12.000000000000
         C            4.583994456892    -1.199011990773     0.004044523821    12.000000000000
         C           -2.856379543108    -1.023497990773     1.314581523821    12.000000000000
         C           -3.766272543108    -0.385233990773    -0.829005476179    12.000000000000
         C           -3.846064543108    -1.150225990773     0.334920523821    12.000000000000
         H           -0.658543543108     2.110274009227    -1.183389476179     1.007825032230
         H           -0.585040543108     2.374406009227     0.553336523821     1.007825032230
         H            1.551752456892     2.049498009227     1.487172523821     1.007825032230
         H            0.322387456892    -0.449212990773    -1.785194476179     1.007825032230
         H            3.724482456892     0.873701009227     1.570082523821     1.007825032230
         H            2.503903456892    -1.609056990773    -1.717302476179     1.007825032230
         H           -1.017978543108    -0.052602990773     1.885738523821     1.007825032230
         H           -2.647397543108     1.101862009227    -1.919012476179     1.007825032230
         H            4.924719456892    -1.491775990773    -0.993463476179     1.007825032230
         H            5.363244456892    -0.582658990773     0.461296523821     1.007825032230
         H            4.488433456892    -2.112245990773     0.601730523821     1.007825032230
         H           -2.911028543108    -1.618531990773     2.223478523821     1.007825032230
         H           -4.530219543108    -0.479318990773    -1.597528476179     1.007825032230
         H           -4.671787543108    -1.842926990773     0.478724523821     1.007825032230

  Basis Set: AUG-CC-PVTZ
    Blend: AUG-CC-PVTZ
  Basis Set: (AUG-CC-PVTZ AUX)
    Blend: AUG-CC-PVTZ-JKFIT
	 Reference Energy          =    -538.4932562538485854 [Eh]
	 Singles Energy            =      -0.0000000000000000 [Eh]
	 Same-Spin Energy          =      -0.6081043089761872 [Eh]
	 Opposite-Spin Energy      =      -1.9346650645491896 [Eh]
	 Correlation Energy        =      -2.5427693735253767 [Eh]
	 Total Energy              =    -541.0360256273739878 [Eh]

	 ================> DF-SCS-MP2 Energies <==================
	-----------------------------------------------------------
	 SCS Same-Spin Scale       =       0.3333333333333333 [-]
	 SCS Opposite-Spin Scale   =       1.2000000000000000 [-]
	 SCS Same-Spin Energy      =      -0.2027014363253957 [Eh]
	 SCS Opposite-Spin Energy  =      -2.3215980774590275 [Eh]
	 SCS Correlation Energy    =      -2.5242995137844231 [Eh]
	 SCS Total Energy          =    -541.0175557676329845 [Eh]
	-----------------------------------------------------------

  Dipole Moment: [D]
     X:     0.3717      Y:    -0.1228      Z:    -0.0059     Total:     0.3915

*** Psi4 exiting successfully. Buy a developer a beer!
