                               Psi4 1.4a3.dev225

  ==> Input File <==

--------------------------------------------------------------------------
#psi4
#
memory 32 gb

molecule  {
0 1
  C       -0.6471519     1.6427789    -0.3605744
  C        0.7517090     0.8972820    -0.1584330
  C       -1.7393840     0.6486410    -0.0371650
  C        1.7237550     1.2518080     0.7820810
  C        1.0412590    -0.1412430    -1.0548500
  C        3.2457950    -0.4451680    -0.0684180
  C        2.9517370     0.5872480     0.8282550
  C        2.2676820    -0.7996710    -1.0091590
  C       -1.8261890    -0.1288690     1.1267200
  C       -2.7336970     0.5134260    -1.0120210
  C        4.5537390    -1.1898250     0.0022800
  C       -2.8866350    -1.0143110     1.3128170
  C       -3.7965280    -0.3760470    -0.8307700
  C       -3.8763200    -1.1410390     0.3331560
  H       -0.6887990     2.1194610    -1.1851540
  H       -0.6152960     2.3835930     0.5515720
  H        1.5214970     2.0586850     1.4854080
  H        0.2921320    -0.4400260    -1.7869590
  H        3.6942270     0.8828880     1.5683180
  H        2.4736480    -1.5998700    -1.7190670
  H       -1.0482340    -0.0434160     1.8839740
  H       -2.6776530     1.1110490    -1.9207770
  H        4.8944640    -1.4825890    -0.9952280
  H        5.3329890    -0.5734720     0.4595320
  H        4.4581780    -2.1030590     0.5999660
  H       -2.9412840    -1.6093450     2.2217140
  H       -4.5604750    -0.4701320    -1.5992930
  H       -4.7020430    -1.8337400     0.4769600
units angstrom
no_reorient  #important for SAPT in psi4, default
symmetry c1  #important for SAPT in psi4, default
}

set PROPERTIES_ORIGIN ["COM"]
properties('MP2/aug-cc-pvtz', properties = ['dipole'])
--------------------------------------------------------------------------

    Molecular point group: c1
  Charge       = 0
  Multiplicity = 1
  Basis Set: AUG-CC-PVTZ
    Blend: AUG-CC-PVTZ
  Basis Set: (AUG-CC-PVTZ AUX)
    Blend: AUG-CC-PVTZ-JKFIT

    Orbital Energies [Eh]
    ---------------------

    Doubly Occupied:

       1A    -11.243347     2A    -11.240744     3A    -11.238471
       4A    -11.236661     5A    -11.235836     6A    -11.234294
       7A    -11.232624     8A    -11.231539     9A    -11.230650
      10A    -11.229599    11A    -11.229045    12A    -11.228879
      13A    -11.227631    14A    -11.222974    15A     -1.158625
      16A     -1.145117    17A     -1.069618    18A     -1.025263
      19A     -1.010083    20A     -1.007705    21A     -0.955040
      22A     -0.901714    23A     -0.826611    24A     -0.822899
      25A     -0.802692    26A     -0.777690    27A     -0.693934
      28A     -0.671399    29A     -0.647136    30A     -0.640007
      31A     -0.627516    32A     -0.616337    33A     -0.588498
      34A     -0.580581    35A     -0.578445    36A     -0.573284
      37A     -0.553023    38A     -0.545456    39A     -0.528631
      40A     -0.502368    41A     -0.492752    42A     -0.486272
      43A     -0.481170    44A     -0.470071    45A     -0.460318
      46A     -0.337138    47A     -0.333349    48A     -0.328650
      49A     -0.306900

  @DF-RHF Final Energy:  -538.46340030216197

   => Energetics <=

    Nuclear Repulsion Energy =            784.7511218447841657
    One-Electron Energy =               -2284.8118677740581006
    Two-Electron Energy =                 961.5973456271119630
    Total Energy =                       -538.4634003021619719
  Basis Set: (AUG-CC-PVTZ AUX)
    Blend: AUG-CC-PVTZ-RI
    Molecular point group: c1

    Geometry (in Angstrom), charge = 0, multiplicity = 1:

       Center              X                  Y                   Z               Mass
    ------------   -----------------  -----------------  -----------------  -----------------
         C           -0.613288329210     1.631534910025    -0.351175166212    12.000000000000
         C            0.785572570790     0.886038010025    -0.149033766212    12.000000000000
         C           -1.705520429210     0.637397010025    -0.027765766212    12.000000000000
         C            1.757618570790     1.240564010025     0.791480233788    12.000000000000
         C            1.075122570790    -0.152486989975    -1.045450766212    12.000000000000
         C            3.279658570790    -0.456411989975    -0.059018766212    12.000000000000
         C            2.985600570790     0.576004010025     0.837654233788    12.000000000000
         C            2.301545570790    -0.810914989975    -0.999759766212    12.000000000000
         C           -1.792325429210    -0.140112989975     1.136119233788    12.000000000000
         C           -2.699833429210     0.502182010025    -1.002621766212    12.000000000000
         C            4.587602570790    -1.201068989975     0.011679233788    12.000000000000
         C           -2.852771429210    -1.025554989975     1.322216233788    12.000000000000
         C           -3.762664429210    -0.387290989975    -0.821370766212    12.000000000000
         C           -3.842456429210    -1.152282989975     0.342555233788    12.000000000000
         H           -0.654935429210     2.108217010025    -1.175754766212     1.007825032230
         H           -0.581432429210     2.372349010025     0.560971233788     1.007825032230
         H            1.555360570790     2.047441010025     1.494807233788     1.007825032230
         H            0.325995570790    -0.451269989975    -1.777559766212     1.007825032230
         H            3.728090570790     0.871644010025     1.577717233788     1.007825032230
         H            2.507511570790    -1.611113989975    -1.709667766212     1.007825032230
         H           -1.014370429210    -0.054659989975     1.893373233788     1.007825032230
         H           -2.643789429210     1.099805010025    -1.911377766212     1.007825032230
         H            4.928327570790    -1.493832989975    -0.985828766212     1.007825032230
         H            5.366852570790    -0.584715989975     0.468931233788     1.007825032230
         H            4.492041570790    -2.114302989975     0.609365233788     1.007825032230
         H           -2.907420429210    -1.620588989975     2.231113233788     1.007825032230
         H           -4.526611429210    -0.481375989975    -1.589893766212     1.007825032230
         H           -4.668179429210    -1.844983989975     0.486359233788     1.007825032230

  Basis Set: AUG-CC-PVTZ
    Blend: AUG-CC-PVTZ
  Basis Set: (AUG-CC-PVTZ AUX)
    Blend: AUG-CC-PVTZ-JKFIT
	 Reference Energy          =    -538.4634003021619719 [Eh]
	 Singles Energy            =      -0.0000000000000000 [Eh]
	 Same-Spin Energy          =      -0.6082820929901637 [Eh]
	 Opposite-Spin Energy      =      -1.9358037704172251 [Eh]
	 Correlation Energy        =      -2.5440858634073886 [Eh]
	 Total Energy              =    -541.0074861655693894 [Eh]

	 ================> DF-SCS-MP2 Energies <==================
	-----------------------------------------------------------
	 SCS Same-Spin Scale       =       0.3333333333333333 [-]
	 SCS Opposite-Spin Scale   =       1.2000000000000000 [-]
	 SCS Same-Spin Energy      =      -0.2027606976633879 [Eh]
	 SCS Opposite-Spin Energy  =      -2.3229645245006698 [Eh]
	 SCS Correlation Energy    =      -2.5257252221640578 [Eh]
	 SCS Total Energy          =    -540.9891255243260275 [Eh]
	-----------------------------------------------------------

  Dipole Moment: [D]
     X:     0.4121      Y:    -0.1250      Z:    -0.0676     Total:     0.4359

*** Psi4 exiting successfully. Buy a developer a beer!
