                               Psi4 1.4a3.dev225

  ==> Input File <==

--------------------------------------------------------------------------
#psi4
#
memory 32 gb

molecule  {
0 1
  C       -0.5824800     1.6044310    -0.2213210
  C        0.7517090     0.8972820    -0.1584330
  C       -1.7393840     0.6486410    -0.0371650
  C        1.7237550     1.2518080     0.7820810
  C        1.0412590    -0.1412430    -1.0548500
  C        3.2457950    -0.4451680    -0.0684180
  C        2.9517370     0.5872480     0.8282550
  C        2.2676820    -0.7996710    -1.0091590
  C       -1.8261890    -0.1288690     1.1267200
  C       -2.7336970     0.5134260    -1.0120210
  C        4.5537390    -1.1898250     0.0022800
  C       -2.8105618    -0.9507921     1.2994670
  C       -3.7965280    -0.3760470    -0.8307700
  C       -3.8763200    -1.1410390     0.3331560
  H       -0.6887990     2.1194610    -1.1851540
  H       -0.6152960     2.3835930     0.5515720
  H        1.5214970     2.0586850     1.4854080
  H        0.2921320    -0.4400260    -1.7869590
  H        3.6942270     0.8828880     1.5683180
  H        2.4736480    -1.5998700    -1.7190670
  H       -1.0482340    -0.0434160     1.8839740
  H       -2.6776530     1.1110490    -1.9207770
  H        4.8944640    -1.4825890    -0.9952280
  H        5.3329890    -0.5734720     0.4595320
  H        4.4581780    -2.1030590     0.5999660
  H       -2.9412840    -1.6093450     2.2217140
  H       -4.5604750    -0.4701320    -1.5992930
  H       -4.7020430    -1.8337400     0.4769600
units angstrom
no_reorient  #important for SAPT in psi4, default
symmetry c1  #important for SAPT in psi4, default
}

set PROPERTIES_ORIGIN ["COM"]
properties('MP2/aug-cc-pvtz', properties = ['dipole'])
--------------------------------------------------------------------------

    Molecular point group: c1
  Charge       = 0
  Multiplicity = 1
  Basis Set: AUG-CC-PVTZ
    Blend: AUG-CC-PVTZ
  Basis Set: (AUG-CC-PVTZ AUX)
    Blend: AUG-CC-PVTZ-JKFIT

    Orbital Energies [Eh]
    ---------------------

    Doubly Occupied:

       1A    -11.241992     2A    -11.238736     3A    -11.237211
       4A    -11.235794     5A    -11.235513     6A    -11.234029
       7A    -11.231964     8A    -11.231562     9A    -11.230189
      10A    -11.229711    11A    -11.229469    12A    -11.228962
      13A    -11.223199    14A    -11.217427    15A     -1.163974
      16A     -1.148379    17A     -1.072952    18A     -1.023923
      19A     -1.019902    20A     -1.008431    21A     -0.955887
      22A     -0.896815    23A     -0.827463    24A     -0.814467
      25A     -0.807885    26A     -0.775794    27A     -0.694331
      28A     -0.668518    29A     -0.649438    30A     -0.637128
      31A     -0.626805    32A     -0.613401    33A     -0.585872
      34A     -0.579009    35A     -0.574769    36A     -0.565580
      37A     -0.560289    38A     -0.549302    39A     -0.529557
      40A     -0.508522    41A     -0.495126    42A     -0.481981
      43A     -0.478099    44A     -0.473415    45A     -0.464413
      46A     -0.348824    47A     -0.334326    48A     -0.325225
      49A     -0.306277

  @DF-RHF Final Energy:  -538.48054977964568

   => Energetics <=

    Nuclear Repulsion Energy =            787.4135026884857780
    One-Electron Energy =               -2290.1644331665638674
    Two-Electron Energy =                 964.2703806984324046
    Total Energy =                       -538.4805497796456848
  Basis Set: (AUG-CC-PVTZ AUX)
    Blend: AUG-CC-PVTZ-RI
    Molecular point group: c1

    Geometry (in Angstrom), charge = 0, multiplicity = 1:

       Center              X                  Y                   Z               Mass
    ------------   -----------------  -----------------  -----------------  -----------------
         C           -0.557890743466     1.591528382022    -0.220218095516    12.000000000000
         C            0.776298256534     0.884379382022    -0.157330095516    12.000000000000
         C           -1.714794743466     0.635738382022    -0.036062095516    12.000000000000
         C            1.748344256534     1.238905382022     0.783183904484    12.000000000000
         C            1.065848256534    -0.154145617978    -1.053747095516    12.000000000000
         C            3.270384256534    -0.458070617978    -0.067315095516    12.000000000000
         C            2.976326256534     0.574345382022     0.829357904484    12.000000000000
         C            2.292271256534    -0.812573617978    -1.008056095516    12.000000000000
         C           -1.801599743466    -0.141771617978     1.127822904484    12.000000000000
         C           -2.709107743466     0.500523382022    -1.010918095516    12.000000000000
         C            4.578328256534    -1.202727617978     0.003382904484    12.000000000000
         C           -2.785972543466    -0.963694717978     1.300569904484    12.000000000000
         C           -3.771938743466    -0.388949617978    -0.829667095516    12.000000000000
         C           -3.851730743466    -1.153941617978     0.334258904484    12.000000000000
         H           -0.664209743466     2.106558382022    -1.184051095516     1.007825032230
         H           -0.590706743466     2.370690382022     0.552674904484     1.007825032230
         H            1.546086256534     2.045782382022     1.486510904484     1.007825032230
         H            0.316721256534    -0.452928617978    -1.785856095516     1.007825032230
         H            3.718816256534     0.869985382022     1.569420904484     1.007825032230
         H            2.498237256534    -1.612772617978    -1.717964095516     1.007825032230
         H           -1.023644743466    -0.056318617978     1.885076904484     1.007825032230
         H           -2.653063743466     1.098146382022    -1.919674095516     1.007825032230
         H            4.919053256534    -1.495491617978    -0.994125095516     1.007825032230
         H            5.357578256534    -0.586374617978     0.460634904484     1.007825032230
         H            4.482767256534    -2.115961617978     0.601068904484     1.007825032230
         H           -2.916694743466    -1.622247617978     2.222816904484     1.007825032230
         H           -4.535885743466    -0.483034617978    -1.598190095516     1.007825032230
         H           -4.677453743466    -1.846642617978     0.478062904484     1.007825032230

  Basis Set: AUG-CC-PVTZ
    Blend: AUG-CC-PVTZ
  Basis Set: (AUG-CC-PVTZ AUX)
    Blend: AUG-CC-PVTZ-JKFIT
	 Reference Energy          =    -538.4805497796456848 [Eh]
	 Singles Energy            =      -0.0000000000000000 [Eh]
	 Same-Spin Energy          =      -0.6079101619064796 [Eh]
	 Opposite-Spin Energy      =      -1.9349130549479918 [Eh]
	 Correlation Energy        =      -2.5428232168544715 [Eh]
	 Total Energy              =    -541.0233729965001430 [Eh]

	 ================> DF-SCS-MP2 Energies <==================
	-----------------------------------------------------------
	 SCS Same-Spin Scale       =       0.3333333333333333 [-]
	 SCS Opposite-Spin Scale   =       1.2000000000000000 [-]
	 SCS Same-Spin Energy      =      -0.2026367206354932 [Eh]
	 SCS Opposite-Spin Energy  =      -2.3218956659375900 [Eh]
	 SCS Correlation Energy    =      -2.5245323865730831 [Eh]
	 SCS Total Energy          =    -541.0050821662188127 [Eh]
	-----------------------------------------------------------

  Dipole Moment: [D]
     X:     0.3613      Y:    -0.1175      Z:    -0.0227     Total:     0.3806

*** Psi4 exiting successfully. Buy a developer a beer!
