                               Psi4 1.4a3.dev225

  ==> Input File <==

--------------------------------------------------------------------------
#psi4
#
memory 32 gb

molecule  {
0 1
  C       -0.5824800     1.6044310    -0.2213210
  C        0.7517090     0.8972820    -0.1584330
  C       -1.7393840     0.6486410    -0.0371650
  C        1.7237550     1.2518080     0.7820810
  C        1.0412590    -0.1412430    -1.0548500
  C        3.2457950    -0.4451680    -0.0684180
  C        2.9517370     0.5872480     0.8282550
  C        2.2676820    -0.7996710    -1.0091590
  C       -1.8261890    -0.1288690     1.1267200
  C       -2.7336970     0.5134260    -1.0120210
  C        4.5537390    -1.1898250     0.0022800
  C       -2.8866350    -1.0143110     1.3128170
  C       -3.7965280    -0.3760470    -0.8307700
  C       -3.8763200    -1.1410390     0.3331560
  H       -0.6887990     2.1194610    -1.1851540
  H       -0.6152960     2.3835930     0.5515720
  H        1.5214970     2.0586850     1.4854080
  H        0.2921320    -0.4400260    -1.7869590
  H        3.6942270     0.8828880     1.5683180
  H        2.4736480    -1.5998700    -1.7190670
  H       -1.0482340    -0.0434160     1.8839740
  H       -2.6750800     1.1384856    -1.9624976
  H        4.8944640    -1.4825890    -0.9952280
  H        5.3329890    -0.5734720     0.4595320
  H        4.4581780    -2.1030590     0.5999660
  H       -2.9412840    -1.6093450     2.2217140
  H       -4.5604750    -0.4701320    -1.5992930
  H       -4.7020430    -1.8337400     0.4769600
units angstrom
no_reorient  #important for SAPT in psi4, default
symmetry c1  #important for SAPT in psi4, default
}

set PROPERTIES_ORIGIN ["COM"]
properties('MP2/aug-cc-pvtz', properties = ['dipole'])
--------------------------------------------------------------------------

    Molecular point group: c1
  Charge       = 0
  Multiplicity = 1
  Basis Set: AUG-CC-PVTZ
    Blend: AUG-CC-PVTZ
  Basis Set: (AUG-CC-PVTZ AUX)
    Blend: AUG-CC-PVTZ-JKFIT

    Orbital Energies [Eh]
    ---------------------

    Doubly Occupied:

       1A    -11.241700     2A    -11.238376     3A    -11.237542
       4A    -11.236917     5A    -11.235321     6A    -11.235241
       7A    -11.234810     8A    -11.231738     9A    -11.231187
      10A    -11.229889    11A    -11.229876    12A    -11.229150
      13A    -11.228649    14A    -11.222981    15A     -1.160669
      16A     -1.145309    17A     -1.073897    18A     -1.023979
      19A     -1.009332    20A     -1.008052    21A     -0.957167
      22A     -0.896140    23A     -0.827849    24A     -0.821205
      25A     -0.802474    26A     -0.774594    27A     -0.691250
      28A     -0.667426    29A     -0.648125    30A     -0.634282
      31A     -0.627641    32A     -0.617233    33A     -0.581511
      34A     -0.578754    35A     -0.574608    36A     -0.568476
      37A     -0.559642    38A     -0.547986    39A     -0.527925
      40A     -0.502977    41A     -0.490992    42A     -0.488786
      43A     -0.477632    44A     -0.473517    45A     -0.471287
      46A     -0.337285    47A     -0.333953    48A     -0.329434
      49A     -0.307427

  @DF-RHF Final Energy:  -538.49135353003385

   => Energetics <=

    Nuclear Repulsion Energy =            785.7152581511963945
    One-Electron Energy =               -2286.8088355188478999
    Two-Electron Energy =                 962.6022238376176574
    Total Energy =                       -538.4913535300338481
  Basis Set: (AUG-CC-PVTZ AUX)
    Blend: AUG-CC-PVTZ-RI
    Molecular point group: c1

    Geometry (in Angstrom), charge = 0, multiplicity = 1:

       Center              X                  Y                   Z               Mass
    ------------   -----------------  -----------------  -----------------  -----------------
         C           -0.552892184830     1.595562083197    -0.220866896936    12.000000000000
         C            0.781296815170     0.888413083197    -0.157978896936    12.000000000000
         C           -1.709796184830     0.639772083197    -0.036710896936    12.000000000000
         C            1.753342815170     1.242939083197     0.782535103064    12.000000000000
         C            1.070846815170    -0.150111916803    -1.054395896936    12.000000000000
         C            3.275382815170    -0.454036916803    -0.067963896936    12.000000000000
         C            2.981324815170     0.578379083197     0.828709103064    12.000000000000
         C            2.297269815170    -0.808539916803    -1.008704896936    12.000000000000
         C           -1.796601184830    -0.137737916803     1.127174103064    12.000000000000
         C           -2.704109184830     0.504557083197    -1.011566896936    12.000000000000
         C            4.583326815170    -1.198693916803     0.002734103064    12.000000000000
         C           -2.857047184830    -1.023179916803     1.313271103064    12.000000000000
         C           -3.766940184830    -0.384915916803    -0.830315896936    12.000000000000
         C           -3.846732184830    -1.149907916803     0.333610103064    12.000000000000
         H           -0.659211184830     2.110592083197    -1.184699896936     1.007825032230
         H           -0.585708184830     2.374724083197     0.552026103064     1.007825032230
         H            1.551084815170     2.049816083197     1.485862103064     1.007825032230
         H            0.321719815170    -0.448894916803    -1.786504896936     1.007825032230
         H            3.723814815170     0.874019083197     1.568772103064     1.007825032230
         H            2.503235815170    -1.608738916803    -1.718612896936     1.007825032230
         H           -1.018646184830    -0.052284916803     1.884428103064     1.007825032230
         H           -2.645492184830     1.129616683197    -1.962043496936     1.007825032230
         H            4.924051815170    -1.491457916803    -0.994773896936     1.007825032230
         H            5.362576815170    -0.582340916803     0.459986103064     1.007825032230
         H            4.487765815170    -2.111927916803     0.600420103064     1.007825032230
         H           -2.911696184830    -1.618213916803     2.222168103064     1.007825032230
         H           -4.530887184830    -0.479000916803    -1.598838896936     1.007825032230
         H           -4.672455184830    -1.842608916803     0.477414103064     1.007825032230

  Basis Set: AUG-CC-PVTZ
    Blend: AUG-CC-PVTZ
  Basis Set: (AUG-CC-PVTZ AUX)
    Blend: AUG-CC-PVTZ-JKFIT
	 Reference Energy          =    -538.4913535300338481 [Eh]
	 Singles Energy            =      -0.0000000000000000 [Eh]
	 Same-Spin Energy          =      -0.6083192038690521 [Eh]
	 Opposite-Spin Energy      =      -1.9351784531772744 [Eh]
	 Correlation Energy        =      -2.5434976570463266 [Eh]
	 Total Energy              =    -541.0348511870802213 [Eh]

	 ================> DF-SCS-MP2 Energies <==================
	-----------------------------------------------------------
	 SCS Same-Spin Scale       =       0.3333333333333333 [-]
	 SCS Opposite-Spin Scale   =       1.2000000000000000 [-]
	 SCS Same-Spin Energy      =      -0.2027730679563507 [Eh]
	 SCS Opposite-Spin Energy  =      -2.3222141438127291 [Eh]
	 SCS Correlation Energy    =      -2.5249872117690799 [Eh]
	 SCS Total Energy          =    -541.0163407418028783 [Eh]
	-----------------------------------------------------------

  Dipole Moment: [D]
     X:     0.3600      Y:    -0.1436      Z:     0.0284     Total:     0.3886

*** Psi4 exiting successfully. Buy a developer a beer!
