                               Psi4 1.4a3.dev225

  ==> Input File <==

--------------------------------------------------------------------------
#psi4
#
memory 32 gb

molecule  {
0 1
  C       -0.5824800     1.6044310    -0.2213210
  C        0.7517090     0.8972820    -0.1584330
  C       -1.7393840     0.6486410    -0.0371650
  C        1.7237550     1.2518080     0.7820810
  C        1.0412590    -0.1412430    -1.0548500
  C        3.2457950    -0.4451680    -0.0684180
  C        2.9517370     0.5872480     0.8282550
  C        2.2676820    -0.7996710    -1.0091590
  C       -1.8261890    -0.1288690     1.1267200
  C       -2.7336970     0.5134260    -1.0120210
  C        4.5537390    -1.1898250     0.0022800
  C       -2.8866350    -1.0143110     1.3128170
  C       -3.7965280    -0.3760470    -0.8307700
  C       -3.8875650    -1.1577158     0.3469774
  H       -0.6887990     2.1194610    -1.1851540
  H       -0.6152960     2.3835930     0.5515720
  H        1.5214970     2.0586850     1.4854080
  H        0.2921320    -0.4400260    -1.7869590
  H        3.6942270     0.8828880     1.5683180
  H        2.4736480    -1.5998700    -1.7190670
  H       -1.0482340    -0.0434160     1.8839740
  H       -2.6776530     1.1110490    -1.9207770
  H        4.8944640    -1.4825890    -0.9952280
  H        5.3329890    -0.5734720     0.4595320
  H        4.4581780    -2.1030590     0.5999660
  H       -2.9412840    -1.6093450     2.2217140
  H       -4.5604750    -0.4701320    -1.5992930
  H       -4.7020430    -1.8337400     0.4769600
units angstrom
no_reorient  #important for SAPT in psi4, default
symmetry c1  #important for SAPT in psi4, default
}

set PROPERTIES_ORIGIN ["COM"]
properties('MP2/aug-cc-pvtz', properties = ['dipole'])
--------------------------------------------------------------------------

    Molecular point group: c1
  Charge       = 0
  Multiplicity = 1
  Basis Set: AUG-CC-PVTZ
    Blend: AUG-CC-PVTZ
  Basis Set: (AUG-CC-PVTZ AUX)
    Blend: AUG-CC-PVTZ-JKFIT

    Orbital Energies [Eh]
    ---------------------

    Doubly Occupied:

       1A    -11.241572     2A    -11.238417     3A    -11.237457
       4A    -11.237041     5A    -11.235433     6A    -11.234823
       7A    -11.231936     8A    -11.231575     9A    -11.231243
      10A    -11.229948    11A    -11.229341    12A    -11.229196
      13A    -11.228720    14A    -11.223003    15A     -1.160162
      16A     -1.144135    17A     -1.073301    18A     -1.023810
      19A     -1.009027    20A     -1.008155    21A     -0.957459
      22A     -0.896678    23A     -0.827975    24A     -0.821662
      25A     -0.803964    26A     -0.774833    27A     -0.694425
      28A     -0.668251    29A     -0.648440    30A     -0.635671
      31A     -0.628617    32A     -0.617076    33A     -0.580885
      34A     -0.578812    35A     -0.575995    36A     -0.571134
      37A     -0.559970    38A     -0.548511    39A     -0.528542
      40A     -0.504342    41A     -0.490940    42A     -0.488444
      43A     -0.477138    44A     -0.473373    45A     -0.471755
      46A     -0.336219    47A     -0.334241    48A     -0.328884
      49A     -0.306771

  @DF-RHF Final Energy:  -538.49282755363470

   => Energetics <=

    Nuclear Repulsion Energy =            785.5491887781462310
    One-Electron Energy =               -2286.4654298153341188
    Two-Electron Energy =                 962.4234134835530767
    Total Energy =                       -538.4928275536346973
  Basis Set: (AUG-CC-PVTZ AUX)
    Blend: AUG-CC-PVTZ-RI
    Molecular point group: c1

    Geometry (in Angstrom), charge = 0, multiplicity = 1:

       Center              X                  Y                   Z               Mass
    ------------   -----------------  -----------------  -----------------  -----------------
         C           -0.552136962858     1.596812829749    -0.222008538682    12.000000000000
         C            0.782052037142     0.889663829749    -0.159120538682    12.000000000000
         C           -1.709040962858     0.641022829749    -0.037852538682    12.000000000000
         C            1.754098037142     1.244189829749     0.781393461318    12.000000000000
         C            1.071602037142    -0.148861170251    -1.055537538682    12.000000000000
         C            3.276138037142    -0.452786170251    -0.069105538682    12.000000000000
         C            2.982080037142     0.579629829749     0.827567461318    12.000000000000
         C            2.298025037142    -0.807289170251    -1.009846538682    12.000000000000
         C           -1.795845962858    -0.136487170251     1.126032461318    12.000000000000
         C           -2.703353962858     0.505807829749    -1.012708538682    12.000000000000
         C            4.584082037142    -1.197443170251     0.001592461318    12.000000000000
         C           -2.856291962858    -1.021929170251     1.312129461318    12.000000000000
         C           -3.766184962858    -0.383665170251    -0.831457538682    12.000000000000
         C           -3.857221962858    -1.165333970251     0.346289861318    12.000000000000
         H           -0.658455962858     2.111842829749    -1.185841538682     1.007825032230
         H           -0.584952962858     2.375974829749     0.550884461318     1.007825032230
         H            1.551840037142     2.051066829749     1.484720461318     1.007825032230
         H            0.322475037142    -0.447644170251    -1.787646538682     1.007825032230
         H            3.724570037142     0.875269829749     1.567630461318     1.007825032230
         H            2.503991037142    -1.607488170251    -1.719754538682     1.007825032230
         H           -1.017890962858    -0.051034170251     1.883286461318     1.007825032230
         H           -2.647309962858     1.103430829749    -1.921464538682     1.007825032230
         H            4.924807037142    -1.490207170251    -0.995915538682     1.007825032230
         H            5.363332037142    -0.581090170251     0.458844461318     1.007825032230
         H            4.488521037142    -2.110677170251     0.599278461318     1.007825032230
         H           -2.910940962858    -1.616963170251     2.221026461318     1.007825032230
         H           -4.530131962858    -0.477750170251    -1.599980538682     1.007825032230
         H           -4.671699962858    -1.841358170251     0.476272461318     1.007825032230

  Basis Set: AUG-CC-PVTZ
    Blend: AUG-CC-PVTZ
  Basis Set: (AUG-CC-PVTZ AUX)
    Blend: AUG-CC-PVTZ-JKFIT
	 Reference Energy          =    -538.4928275536346973 [Eh]
	 Singles Energy            =      -0.0000000000000000 [Eh]
	 Same-Spin Energy          =      -0.6081978233715375 [Eh]
	 Opposite-Spin Energy      =      -1.9348876735141558 [Eh]
	 Correlation Energy        =      -2.5430854968856931 [Eh]
	 Total Energy              =    -541.0359130505204348 [Eh]

	 ================> DF-SCS-MP2 Energies <==================
	-----------------------------------------------------------
	 SCS Same-Spin Scale       =       0.3333333333333333 [-]
	 SCS Opposite-Spin Scale   =       1.2000000000000000 [-]
	 SCS Same-Spin Energy      =      -0.2027326077905125 [Eh]
	 SCS Opposite-Spin Energy  =      -2.3218652082169871 [Eh]
	 SCS Correlation Energy    =      -2.5245978160074993 [Eh]
	 SCS Total Energy          =    -541.0174253696421829 [Eh]
	-----------------------------------------------------------

  Dipole Moment: [D]
     X:     0.3612      Y:    -0.1321      Z:     0.0075     Total:     0.3847

*** Psi4 exiting successfully. Buy a developer a beer!
