                               Psi4 1.4a3.dev225

  ==> Input File <==

--------------------------------------------------------------------------
#psi4
#
memory 32 gb

molecule  {
0 1
  C       -0.5824800     1.6044310    -0.2213210
  C        0.7517090     0.8972820    -0.1584330
  C       -1.7393840     0.6486410    -0.0371650
  C        1.7237550     1.2518080     0.7820810
  C        1.0412590    -0.1412430    -1.0548500
  C        3.2457950    -0.4451680    -0.0684180
  C        2.9517370     0.5872480     0.8282550
  C        2.2676820    -0.7996710    -1.0091590
  C       -1.8261890    -0.1288690     1.1267200
  C       -2.7336970     0.5134260    -1.0120210
  C        4.5537390    -1.1898250     0.0022800
  C       -2.8866350    -1.0143110     1.3128170
  C       -3.7965280    -0.3760470    -0.8307700
  C       -3.8763200    -1.1410390     0.3331560
  H       -0.6887990     2.1194610    -1.1851540
  H       -0.6152960     2.3835930     0.5515720
  H        1.5214970     2.0586850     1.4854080
  H        0.2921320    -0.4400260    -1.7869590
  H        3.6942270     0.8828880     1.5683180
  H        2.4736480    -1.5998700    -1.7190670
  H       -1.0482340    -0.0434160     1.8839740
  H       -2.6776530     1.1110490    -1.9207770
  H        4.8939887    -1.4458017    -1.0054563
  H        5.3329890    -0.5734720     0.4595320
  H        4.4581780    -2.1030590     0.5999660
  H       -2.9412840    -1.6093450     2.2217140
  H       -4.5604750    -0.4701320    -1.5992930
  H       -4.7020430    -1.8337400     0.4769600
units angstrom
no_reorient  #important for SAPT in psi4, default
symmetry c1  #important for SAPT in psi4, default
}

set PROPERTIES_ORIGIN ["COM"]
properties('MP2/aug-cc-pvtz', properties = ['dipole'])
--------------------------------------------------------------------------

    Molecular point group: c1
  Charge       = 0
  Multiplicity = 1
  Basis Set: AUG-CC-PVTZ
    Blend: AUG-CC-PVTZ
  Basis Set: (AUG-CC-PVTZ AUX)
    Blend: AUG-CC-PVTZ-JKFIT

    Orbital Energies [Eh]
    ---------------------

    Doubly Occupied:

       1A    -11.241064     2A    -11.238103     3A    -11.236904
       4A    -11.235265     5A    -11.235018     6A    -11.234532
       7A    -11.231505     8A    -11.231256     9A    -11.231097
      10A    -11.229867    11A    -11.229422    12A    -11.229008
      13A    -11.228639    14A    -11.222972    15A     -1.160629
      16A     -1.145236    17A     -1.073832    18A     -1.024054
      19A     -1.010164    20A     -1.008074    21A     -0.957293
      22A     -0.896096    23A     -0.828062    24A     -0.822811
      25A     -0.802842    26A     -0.774478    27A     -0.693354
      28A     -0.667635    29A     -0.648241    30A     -0.635057
      31A     -0.628325    32A     -0.617600    33A     -0.582842
      34A     -0.578794    35A     -0.577667    36A     -0.569779
      37A     -0.559907    38A     -0.547324    39A     -0.526973
      40A     -0.502875    41A     -0.491248    42A     -0.490161
      43A     -0.477283    44A     -0.473531    45A     -0.471459
      46A     -0.337078    47A     -0.333687    48A     -0.329291
      49A     -0.307357

  @DF-RHF Final Energy:  -538.49368572852200

   => Energetics <=

    Nuclear Repulsion Energy =            785.9936071983034935
    One-Electron Energy =               -2287.3632104710895874
    Two-Electron Energy =                 962.8759175442642118
    Total Energy =                       -538.4936857285219958
  Basis Set: (AUG-CC-PVTZ AUX)
    Blend: AUG-CC-PVTZ-RI
    Molecular point group: c1

    Geometry (in Angstrom), charge = 0, multiplicity = 1:

       Center              X                  Y                   Z               Mass
    ------------   -----------------  -----------------  -----------------  -----------------
         C           -0.552875315022     1.595510334843    -0.221041180647    12.000000000000
         C            0.781313684978     0.888361334843    -0.158153180647    12.000000000000
         C           -1.709779315022     0.639720334843    -0.036885180647    12.000000000000
         C            1.753359684978     1.242887334843     0.782360819353    12.000000000000
         C            1.070863684978    -0.150163665157    -1.054570180647    12.000000000000
         C            3.275399684978    -0.454088665157    -0.068138180647    12.000000000000
         C            2.981341684978     0.578327334843     0.828534819353    12.000000000000
         C            2.297286684978    -0.808591665157    -1.008879180647    12.000000000000
         C           -1.796584315022    -0.137789665157     1.126999819353    12.000000000000
         C           -2.704092315022     0.504505334843    -1.011741180647    12.000000000000
         C            4.583343684978    -1.198745665157     0.002559819353    12.000000000000
         C           -2.857030315022    -1.023231665157     1.313096819353    12.000000000000
         C           -3.766923315022    -0.384967665157    -0.830490180647    12.000000000000
         C           -3.846715315022    -1.149959665157     0.333435819353    12.000000000000
         H           -0.659194315022     2.110540334843    -1.184874180647     1.007825032230
         H           -0.585691315022     2.374672334843     0.551851819353     1.007825032230
         H            1.551101684978     2.049764334843     1.485687819353     1.007825032230
         H            0.321736684978    -0.448946665157    -1.786679180647     1.007825032230
         H            3.723831684978     0.873967334843     1.568597819353     1.007825032230
         H            2.503252684978    -1.608790665157    -1.718787180647     1.007825032230
         H           -1.018629315022    -0.052336665157     1.884253819353     1.007825032230
         H           -2.648048315022     1.102128334843    -1.920497180647     1.007825032230
         H            4.923593384978    -1.454722365157    -1.005176480647     1.007825032230
         H            5.362593684978    -0.582392665157     0.459811819353     1.007825032230
         H            4.487782684978    -2.111979665157     0.600245819353     1.007825032230
         H           -2.911679315022    -1.618265665157     2.221993819353     1.007825032230
         H           -4.530870315022    -0.479052665157    -1.599013180647     1.007825032230
         H           -4.672438315022    -1.842660665157     0.477239819353     1.007825032230

  Basis Set: AUG-CC-PVTZ
    Blend: AUG-CC-PVTZ
  Basis Set: (AUG-CC-PVTZ AUX)
    Blend: AUG-CC-PVTZ-JKFIT
	 Reference Energy          =    -538.4936857285219958 [Eh]
	 Singles Energy            =      -0.0000000000000000 [Eh]
	 Same-Spin Energy          =      -0.6082040737965070 [Eh]
	 Opposite-Spin Energy      =      -1.9347755971615896 [Eh]
	 Correlation Energy        =      -2.5429796709580965 [Eh]
	 Total Energy              =    -541.0366653994800572 [Eh]

	 ================> DF-SCS-MP2 Energies <==================
	-----------------------------------------------------------
	 SCS Same-Spin Scale       =       0.3333333333333333 [-]
	 SCS Opposite-Spin Scale   =       1.2000000000000000 [-]
	 SCS Same-Spin Energy      =      -0.2027346912655023 [Eh]
	 SCS Opposite-Spin Energy  =      -2.3217307165939074 [Eh]
	 SCS Correlation Energy    =      -2.5244654078594095 [Eh]
	 SCS Total Energy          =    -541.0181511363814479 [Eh]
	-----------------------------------------------------------

  Dipole Moment: [D]
     X:     0.3653      Y:    -0.1178      Z:     0.0106     Total:     0.3840

*** Psi4 exiting successfully. Buy a developer a beer!
