                               Psi4 1.4a3.dev225

  ==> Input File <==

--------------------------------------------------------------------------
#psi4
#
memory 32 gb

molecule  {
0 1
  C       -0.5824800     1.6044310    -0.2213210
  C        0.7517090     0.8972820    -0.1584330
  C       -1.7393840     0.6486410    -0.0371650
  C        1.7237550     1.2518080     0.7820810
  C        1.0412590    -0.1412430    -1.0548500
  C        3.2457950    -0.4451680    -0.0684180
  C        2.9517370     0.5872480     0.8282550
  C        2.2676820    -0.7996710    -1.0091590
  C       -1.8261890    -0.1288690     1.1267200
  C       -2.7336970     0.5134260    -1.0120210
  C        4.5537390    -1.1898250     0.0022800
  C       -2.8866350    -1.0143110     1.3128170
  C       -3.7965280    -0.3760470    -0.8307700
  C       -3.8763200    -1.1410390     0.3331560
  H       -0.6887990     2.1194610    -1.1851540
  H       -0.6152960     2.3835930     0.5515720
  H        1.4843624     2.2068276     1.6145389
  H        0.2921320    -0.4400260    -1.7869590
  H        3.6942270     0.8828880     1.5683180
  H        2.4736480    -1.5998700    -1.7190670
  H       -1.0482340    -0.0434160     1.8839740
  H       -2.6776530     1.1110490    -1.9207770
  H        4.8944640    -1.4825890    -0.9952280
  H        5.3329890    -0.5734720     0.4595320
  H        4.4581780    -2.1030590     0.5999660
  H       -2.9412840    -1.6093450     2.2217140
  H       -4.5604750    -0.4701320    -1.5992930
  H       -4.7020430    -1.8337400     0.4769600
units angstrom
no_reorient  #important for SAPT in psi4, default
symmetry c1  #important for SAPT in psi4, default
}

set PROPERTIES_ORIGIN ["COM"]
properties('MP2/aug-cc-pvtz', properties = ['dipole'])
--------------------------------------------------------------------------

    Molecular point group: c1
  Charge       = 0
  Multiplicity = 1
  Basis Set: AUG-CC-PVTZ
    Blend: AUG-CC-PVTZ
  Basis Set: (AUG-CC-PVTZ AUX)
    Blend: AUG-CC-PVTZ-JKFIT

    Orbital Energies [Eh]
    ---------------------

    Doubly Occupied:

       1A    -11.253142     2A    -11.241006     3A    -11.240276
       4A    -11.239507     5A    -11.235178     6A    -11.235012
       7A    -11.234489     8A    -11.231922     9A    -11.231681
      10A    -11.231520    11A    -11.231266    12A    -11.230240
      13A    -11.229321    14A    -11.224157    15A     -1.161132
      16A     -1.145759    17A     -1.074390    18A     -1.023975
      19A     -1.010140    20A     -1.005845    21A     -0.957961
      22A     -0.896481    23A     -0.826415    24A     -0.820439
      25A     -0.800423    26A     -0.772432    27A     -0.693250
      28A     -0.664709    29A     -0.649506    30A     -0.634754
      31A     -0.621223    32A     -0.614112    33A     -0.582787
      34A     -0.576421    35A     -0.571998    36A     -0.567828
      37A     -0.552603    38A     -0.548849    39A     -0.528806
      40A     -0.503154    41A     -0.491219    42A     -0.487994
      43A     -0.474814    44A     -0.472482    45A     -0.468601
      46A     -0.338051    47A     -0.334062    48A     -0.330150
      49A     -0.308476

  @DF-RHF Final Energy:  -538.47178036713217

   => Energetics <=

    Nuclear Repulsion Energy =            785.0116777292562347
    One-Electron Energy =               -2285.3670032256372906
    Two-Electron Energy =                 961.8835451292488870
    Total Energy =                       -538.4717803671321690
  Basis Set: (AUG-CC-PVTZ AUX)
    Blend: AUG-CC-PVTZ-RI
    Molecular point group: c1

    Geometry (in Angstrom), charge = 0, multiplicity = 1:

       Center              X                  Y                   Z               Mass
    ------------   -----------------  -----------------  -----------------  -----------------
         C           -0.552672436260     1.594894075791    -0.221812418015    12.000000000000
         C            0.781516563740     0.887745075791    -0.158924418015    12.000000000000
         C           -1.709576436260     0.639104075791    -0.037656418015    12.000000000000
         C            1.753562563740     1.242271075791     0.781589581985    12.000000000000
         C            1.071066563740    -0.150779924209    -1.055341418015    12.000000000000
         C            3.275602563740    -0.454704924209    -0.068909418015    12.000000000000
         C            2.981544563740     0.577711075791     0.827763581985    12.000000000000
         C            2.297489563740    -0.809207924209    -1.009650418015    12.000000000000
         C           -1.796381436260    -0.138405924209     1.126228581985    12.000000000000
         C           -2.703889436260     0.503889075791    -1.012512418015    12.000000000000
         C            4.583546563740    -1.199361924209     0.001788581985    12.000000000000
         C           -2.856827436260    -1.023847924209     1.312325581985    12.000000000000
         C           -3.766720436260    -0.385583924209    -0.831261418015    12.000000000000
         C           -3.846512436260    -1.150575924209     0.332664581985    12.000000000000
         H           -0.658991436260     2.109924075791    -1.185645418015     1.007825032230
         H           -0.585488436260     2.374056075791     0.551080581985     1.007825032230
         H            1.514169963740     2.197290675791     1.614047481985     1.007825032230
         H            0.321939563740    -0.449562924209    -1.787450418015     1.007825032230
         H            3.724034563740     0.873351075791     1.567826581985     1.007825032230
         H            2.503455563740    -1.609406924209    -1.719558418015     1.007825032230
         H           -1.018426436260    -0.052952924209     1.883482581985     1.007825032230
         H           -2.647845436260     1.101512075791    -1.921268418015     1.007825032230
         H            4.924271563740    -1.492125924209    -0.995719418015     1.007825032230
         H            5.362796563740    -0.583008924209     0.459040581985     1.007825032230
         H            4.487985563740    -2.112595924209     0.599474581985     1.007825032230
         H           -2.911476436260    -1.618881924209     2.221222581985     1.007825032230
         H           -4.530667436260    -0.479668924209    -1.599784418015     1.007825032230
         H           -4.672235436260    -1.843276924209     0.476468581985     1.007825032230

  Basis Set: AUG-CC-PVTZ
    Blend: AUG-CC-PVTZ
  Basis Set: (AUG-CC-PVTZ AUX)
    Blend: AUG-CC-PVTZ-JKFIT
	 Reference Energy          =    -538.4717803671321690 [Eh]
	 Singles Energy            =      -0.0000000000000000 [Eh]
	 Same-Spin Energy          =      -0.6087836290446915 [Eh]
	 Opposite-Spin Energy      =      -1.9371058022215719 [Eh]
	 Correlation Energy        =      -2.5458894312662634 [Eh]
	 Total Energy              =    -541.0176697983984013 [Eh]

	 ================> DF-SCS-MP2 Energies <==================
	-----------------------------------------------------------
	 SCS Same-Spin Scale       =       0.3333333333333333 [-]
	 SCS Opposite-Spin Scale   =       1.2000000000000000 [-]
	 SCS Same-Spin Energy      =      -0.2029278763482305 [Eh]
	 SCS Opposite-Spin Energy  =      -2.3245269626658862 [Eh]
	 SCS Correlation Energy    =      -2.5274548390141165 [Eh]
	 SCS Total Energy          =    -540.9992352061462952 [Eh]
	-----------------------------------------------------------

  Dipole Moment: [D]
     X:     0.4013      Y:    -0.2260      Z:    -0.0619     Total:     0.4647

*** Psi4 exiting successfully. Buy a developer a beer!
