                               Psi4 1.4a3.dev225

  ==> Input File <==

--------------------------------------------------------------------------
#psi4
#
memory 32 gb

molecule  {
0 1
  C       -0.5824800     1.6044310    -0.2213210
  C        0.7517090     0.8972820    -0.1584330
  C       -1.7393840     0.6486410    -0.0371650
  C        1.7376587     1.2568790     0.7955336
  C        1.0412590    -0.1412430    -1.0548500
  C        3.2457950    -0.4451680    -0.0684180
  C        2.9517370     0.5872480     0.8282550
  C        2.2676820    -0.7996710    -1.0091590
  C       -1.8261890    -0.1288690     1.1267200
  C       -2.7336970     0.5134260    -1.0120210
  C        4.5537390    -1.1898250     0.0022800
  C       -2.8866350    -1.0143110     1.3128170
  C       -3.7965280    -0.3760470    -0.8307700
  C       -3.8763200    -1.1410390     0.3331560
  H       -0.6887990     2.1194610    -1.1851540
  H       -0.6152960     2.3835930     0.5515720
  H        1.5214970     2.0586850     1.4854080
  H        0.2921320    -0.4400260    -1.7869590
  H        3.6942270     0.8828880     1.5683180
  H        2.4736480    -1.5998700    -1.7190670
  H       -1.0482340    -0.0434160     1.8839740
  H       -2.6776530     1.1110490    -1.9207770
  H        4.8944640    -1.4825890    -0.9952280
  H        5.3329890    -0.5734720     0.4595320
  H        4.4581780    -2.1030590     0.5999660
  H       -2.9412840    -1.6093450     2.2217140
  H       -4.5604750    -0.4701320    -1.5992930
  H       -4.7020430    -1.8337400     0.4769600
units angstrom
no_reorient  #important for SAPT in psi4, default
symmetry c1  #important for SAPT in psi4, default
}

set PROPERTIES_ORIGIN ["COM"]
properties('MP2/aug-cc-pvtz', properties = ['dipole'])
--------------------------------------------------------------------------

    Molecular point group: c1
  Charge       = 0
  Multiplicity = 1
  Basis Set: AUG-CC-PVTZ
    Blend: AUG-CC-PVTZ
  Basis Set: (AUG-CC-PVTZ AUX)
    Blend: AUG-CC-PVTZ-JKFIT

    Orbital Energies [Eh]
    ---------------------

    Doubly Occupied:

       1A    -11.241126     2A    -11.238964     3A    -11.238324
       4A    -11.235496     5A    -11.235018     6A    -11.234526
       7A    -11.231509     8A    -11.231497     9A    -11.231252
      10A    -11.229789    11A    -11.229428    12A    -11.228523
      13A    -11.228473    14A    -11.222976    15A     -1.159947
      16A     -1.144936    17A     -1.073202    18A     -1.023259
      19A     -1.010251    20A     -1.009509    21A     -0.957441
      22A     -0.895343    23A     -0.827470    24A     -0.822666
      25A     -0.803552    26A     -0.774514    27A     -0.693306
      28A     -0.668134    29A     -0.648265    30A     -0.635303
      31A     -0.629828    32A     -0.616795    33A     -0.582771
      34A     -0.580165    35A     -0.575200    36A     -0.569482
      37A     -0.559348    38A     -0.548151    39A     -0.527690
      40A     -0.503040    41A     -0.491763    42A     -0.489880
      43A     -0.478979    44A     -0.472581    45A     -0.470297
      46A     -0.338153    47A     -0.333917    48A     -0.328698
      49A     -0.305891

  @DF-RHF Final Energy:  -538.49312572348776

   => Energetics <=

    Nuclear Repulsion Energy =            785.6787161517224831
    One-Electron Energy =               -2286.7304299603242725
    Two-Electron Energy =                 962.5585880851140246
    Total Energy =                       -538.4931257234877648
  Basis Set: (AUG-CC-PVTZ AUX)
    Blend: AUG-CC-PVTZ-RI
    Molecular point group: c1

    Geometry (in Angstrom), charge = 0, multiplicity = 1:

       Center              X                  Y                   Z               Mass
    ------------   -----------------  -----------------  -----------------  -----------------
         C           -0.553794121416     1.595379771464    -0.221984236826    12.000000000000
         C            0.780394878584     0.888230771464    -0.159096236826    12.000000000000
         C           -1.710698121416     0.639589771464    -0.037828236826    12.000000000000
         C            1.766344578584     1.247827771464     0.794870363174    12.000000000000
         C            1.069944878584    -0.150294228536    -1.055513236826    12.000000000000
         C            3.274480878584    -0.454219228536    -0.069081236826    12.000000000000
         C            2.980422878584     0.578196771464     0.827591763174    12.000000000000
         C            2.296367878584    -0.808722228536    -1.009822236826    12.000000000000
         C           -1.797503121416    -0.137920228536     1.126056763174    12.000000000000
         C           -2.705011121416     0.504374771464    -1.012684236826    12.000000000000
         C            4.582424878584    -1.198876228536     0.001616763174    12.000000000000
         C           -2.857949121416    -1.023362228536     1.312153763174    12.000000000000
         C           -3.767842121416    -0.385098228536    -0.831433236826    12.000000000000
         C           -3.847634121416    -1.150090228536     0.332492763174    12.000000000000
         H           -0.660113121416     2.110409771464    -1.185817236826     1.007825032230
         H           -0.586610121416     2.374541771464     0.550908763174     1.007825032230
         H            1.550182878584     2.049633771464     1.484744763174     1.007825032230
         H            0.320817878584    -0.449077228536    -1.787622236826     1.007825032230
         H            3.722912878584     0.873836771464     1.567654763174     1.007825032230
         H            2.502333878584    -1.608921228536    -1.719730236826     1.007825032230
         H           -1.019548121416    -0.052467228536     1.883310763174     1.007825032230
         H           -2.648967121416     1.101997771464    -1.921440236826     1.007825032230
         H            4.923149878584    -1.491640228536    -0.995891236826     1.007825032230
         H            5.361674878584    -0.582523228536     0.458868763174     1.007825032230
         H            4.486863878584    -2.112110228536     0.599302763174     1.007825032230
         H           -2.912598121416    -1.618396228536     2.221050763174     1.007825032230
         H           -4.531789121416    -0.479183228536    -1.599956236826     1.007825032230
         H           -4.673357121416    -1.842791228536     0.476296763174     1.007825032230

  Basis Set: AUG-CC-PVTZ
    Blend: AUG-CC-PVTZ
  Basis Set: (AUG-CC-PVTZ AUX)
    Blend: AUG-CC-PVTZ-JKFIT
	 Reference Energy          =    -538.4931257234877648 [Eh]
	 Singles Energy            =      -0.0000000000000000 [Eh]
	 Same-Spin Energy          =      -0.6082420691245931 [Eh]
	 Opposite-Spin Energy      =      -1.9348363076631543 [Eh]
	 Correlation Energy        =      -2.5430783767877472 [Eh]
	 Total Energy              =    -541.0362041002755404 [Eh]

	 ================> DF-SCS-MP2 Energies <==================
	-----------------------------------------------------------
	 SCS Same-Spin Scale       =       0.3333333333333333 [-]
	 SCS Opposite-Spin Scale   =       1.2000000000000000 [-]
	 SCS Same-Spin Energy      =      -0.2027473563748644 [Eh]
	 SCS Opposite-Spin Energy  =      -2.3218035691957852 [Eh]
	 SCS Correlation Energy    =      -2.5245509255706495 [Eh]
	 SCS Total Energy          =    -541.0176766490584441 [Eh]
	-----------------------------------------------------------

  Dipole Moment: [D]
     X:     0.3581      Y:    -0.1242      Z:     0.0109     Total:     0.3792

*** Psi4 exiting successfully. Buy a developer a beer!
