                               Psi4 1.4a3.dev225

  ==> Input File <==

--------------------------------------------------------------------------
#psi4
#
memory 32 gb

molecule  {
0 1
  C       -0.5824800     1.6044310    -0.2213210
  C        0.7667102     0.8801210    -0.1671517
  C       -1.7393840     0.6486410    -0.0371650
  C        1.7237550     1.2518080     0.7820810
  C        1.0412590    -0.1412430    -1.0548500
  C        3.2457950    -0.4451680    -0.0684180
  C        2.9517370     0.5872480     0.8282550
  C        2.2676820    -0.7996710    -1.0091590
  C       -1.8261890    -0.1288690     1.1267200
  C       -2.7336970     0.5134260    -1.0120210
  C        4.5537390    -1.1898250     0.0022800
  C       -2.8866350    -1.0143110     1.3128170
  C       -3.7965280    -0.3760470    -0.8307700
  C       -3.8763200    -1.1410390     0.3331560
  H       -0.6887990     2.1194610    -1.1851540
  H       -0.6152960     2.3835930     0.5515720
  H        1.5214970     2.0586850     1.4854080
  H        0.2921320    -0.4400260    -1.7869590
  H        3.6942270     0.8828880     1.5683180
  H        2.4736480    -1.5998700    -1.7190670
  H       -1.0482340    -0.0434160     1.8839740
  H       -2.6776530     1.1110490    -1.9207770
  H        4.8944640    -1.4825890    -0.9952280
  H        5.3329890    -0.5734720     0.4595320
  H        4.4581780    -2.1030590     0.5999660
  H       -2.9412840    -1.6093450     2.2217140
  H       -4.5604750    -0.4701320    -1.5992930
  H       -4.7020430    -1.8337400     0.4769600
units angstrom
no_reorient  #important for SAPT in psi4, default
symmetry c1  #important for SAPT in psi4, default
}

set PROPERTIES_ORIGIN ["COM"]
properties('MP2/aug-cc-pvtz', properties = ['dipole'])
--------------------------------------------------------------------------

    Molecular point group: c1
  Charge       = 0
  Multiplicity = 1
  Basis Set: AUG-CC-PVTZ
    Blend: AUG-CC-PVTZ
  Basis Set: (AUG-CC-PVTZ AUX)
    Blend: AUG-CC-PVTZ-JKFIT

    Orbital Energies [Eh]
    ---------------------

    Doubly Occupied:

       1A    -11.240652     2A    -11.238129     3A    -11.236005
       4A    -11.235403     5A    -11.234795     6A    -11.234329
       7A    -11.231250     8A    -11.231203     9A    -11.230991
      10A    -11.229528    11A    -11.229360    12A    -11.229141
      13A    -11.226831    14A    -11.222941    15A     -1.161161
      16A     -1.145906    17A     -1.072157    18A     -1.024523
      19A     -1.010115    20A     -1.009240    21A     -0.955485
      22A     -0.896473    23A     -0.829072    24A     -0.822927
      25A     -0.802128    26A     -0.775084    27A     -0.692828
      28A     -0.668059    29A     -0.648127    30A     -0.634543
      31A     -0.628129    32A     -0.617734    33A     -0.582607
      34A     -0.580984    35A     -0.575137    36A     -0.568881
      37A     -0.558532    38A     -0.546765    39A     -0.528381
      40A     -0.502927    41A     -0.491457    42A     -0.489903
      43A     -0.479721    44A     -0.473819    45A     -0.468842
      46A     -0.337784    47A     -0.333580    48A     -0.328646
      49A     -0.308671

  @DF-RHF Final Energy:  -538.49365160089815

   => Energetics <=

    Nuclear Repulsion Energy =            786.0780370319603207
    One-Electron Energy =               -2287.5416075635662310
    Two-Electron Energy =                 962.9699189307077631
    Total Energy =                       -538.4936516008981471
  Basis Set: (AUG-CC-PVTZ AUX)
    Blend: AUG-CC-PVTZ-RI
    Molecular point group: c1

    Geometry (in Angstrom), charge = 0, multiplicity = 1:

       Center              X                  Y                   Z               Mass
    ------------   -----------------  -----------------  -----------------  -----------------
         C           -0.553866440522     1.596844735818    -0.220523272262    12.000000000000
         C            0.795323759478     0.872534735818    -0.166353972262    12.000000000000
         C           -1.710770440522     0.641054735818    -0.036367272262    12.000000000000
         C            1.752368559478     1.244221735818     0.782878727738    12.000000000000
         C            1.069872559478    -0.148829264182    -1.054052272262    12.000000000000
         C            3.274408559478    -0.452754264182    -0.067620272262    12.000000000000
         C            2.980350559478     0.579661735818     0.829052727738    12.000000000000
         C            2.296295559478    -0.807257264182    -1.008361272262    12.000000000000
         C           -1.797575440522    -0.136455264182     1.127517727738    12.000000000000
         C           -2.705083440522     0.505839735818    -1.011223272262    12.000000000000
         C            4.582352559478    -1.197411264182     0.003077727738    12.000000000000
         C           -2.858021440522    -1.021897264182     1.313614727738    12.000000000000
         C           -3.767914440522    -0.383633264182    -0.829972272262    12.000000000000
         C           -3.847706440522    -1.148625264182     0.333953727738    12.000000000000
         H           -0.660185440522     2.111874735818    -1.184356272262     1.007825032230
         H           -0.586682440522     2.376006735818     0.552369727738     1.007825032230
         H            1.550110559478     2.051098735818     1.486205727738     1.007825032230
         H            0.320745559478    -0.447612264182    -1.786161272262     1.007825032230
         H            3.722840559478     0.875301735818     1.569115727738     1.007825032230
         H            2.502261559478    -1.607456264182    -1.718269272262     1.007825032230
         H           -1.019620440522    -0.051002264182     1.884771727738     1.007825032230
         H           -2.649039440522     1.103462735818    -1.919979272262     1.007825032230
         H            4.923077559478    -1.490175264182    -0.994430272262     1.007825032230
         H            5.361602559478    -0.581058264182     0.460329727738     1.007825032230
         H            4.486791559478    -2.110645264182     0.600763727738     1.007825032230
         H           -2.912670440522    -1.616931264182     2.222511727738     1.007825032230
         H           -4.531861440522    -0.477718264182    -1.598495272262     1.007825032230
         H           -4.673429440522    -1.841326264182     0.477757727738     1.007825032230

  Basis Set: AUG-CC-PVTZ
    Blend: AUG-CC-PVTZ
  Basis Set: (AUG-CC-PVTZ AUX)
    Blend: AUG-CC-PVTZ-JKFIT
	 Reference Energy          =    -538.4936516008981471 [Eh]
	 Singles Energy            =      -0.0000000000000000 [Eh]
	 Same-Spin Energy          =      -0.6080373672497241 [Eh]
	 Opposite-Spin Energy      =      -1.9344698200140904 [Eh]
	 Correlation Energy        =      -2.5425071872638147 [Eh]
	 Total Energy              =    -541.0361587881619698 [Eh]

	 ================> DF-SCS-MP2 Energies <==================
	-----------------------------------------------------------
	 SCS Same-Spin Scale       =       0.3333333333333333 [-]
	 SCS Opposite-Spin Scale   =       1.2000000000000000 [-]
	 SCS Same-Spin Energy      =      -0.2026791224165747 [Eh]
	 SCS Opposite-Spin Energy  =      -2.3213637840169086 [Eh]
	 SCS Correlation Energy    =      -2.5240429064334831 [Eh]
	 SCS Total Energy          =    -541.0176945073316119 [Eh]
	-----------------------------------------------------------

  Dipole Moment: [D]
     X:     0.3945      Y:    -0.1274      Z:     0.0141     Total:     0.4148

*** Psi4 exiting successfully. Buy a developer a beer!
