                               Psi4 1.4a3.dev225

  ==> Input File <==

--------------------------------------------------------------------------
#psi4
#
memory 32 gb

molecule  {
0 1
  C       -0.5824800     1.6044310    -0.2213210
  C        0.7517090     0.8972820    -0.1584330
  C       -1.7393840     0.6486410    -0.0371650
  C        1.7237550     1.2518080     0.7820810
  C        1.0412590    -0.1412430    -1.0548500
  C        3.2573144    -0.4268137    -0.0833162
  C        2.9517370     0.5872480     0.8282550
  C        2.2676820    -0.7996710    -1.0091590
  C       -1.8261890    -0.1288690     1.1267200
  C       -2.7336970     0.5134260    -1.0120210
  C        4.5537390    -1.1898250     0.0022800
  C       -2.8866350    -1.0143110     1.3128170
  C       -3.7965280    -0.3760470    -0.8307700
  C       -3.8763200    -1.1410390     0.3331560
  H       -0.6887990     2.1194610    -1.1851540
  H       -0.6152960     2.3835930     0.5515720
  H        1.5214970     2.0586850     1.4854080
  H        0.2921320    -0.4400260    -1.7869590
  H        3.6942270     0.8828880     1.5683180
  H        2.4736480    -1.5998700    -1.7190670
  H       -1.0482340    -0.0434160     1.8839740
  H       -2.6776530     1.1110490    -1.9207770
  H        4.8944640    -1.4825890    -0.9952280
  H        5.3329890    -0.5734720     0.4595320
  H        4.4581780    -2.1030590     0.5999660
  H       -2.9412840    -1.6093450     2.2217140
  H       -4.5604750    -0.4701320    -1.5992930
  H       -4.7020430    -1.8337400     0.4769600
units angstrom
no_reorient  #important for SAPT in psi4, default
symmetry c1  #important for SAPT in psi4, default
}

set PROPERTIES_ORIGIN ["COM"]
properties('MP2/aug-cc-pvtz', properties = ['dipole'])
--------------------------------------------------------------------------

    Molecular point group: c1
  Charge       = 0
  Multiplicity = 1
  Basis Set: AUG-CC-PVTZ
    Blend: AUG-CC-PVTZ
  Basis Set: (AUG-CC-PVTZ AUX)
    Blend: AUG-CC-PVTZ-JKFIT

    Orbital Energies [Eh]
    ---------------------

    Doubly Occupied:

       1A    -11.241129     2A    -11.238407     3A    -11.237135
       4A    -11.235375     5A    -11.235066     6A    -11.234579
       7A    -11.231564     8A    -11.231311     9A    -11.231195
      10A    -11.230139    11A    -11.229476    12A    -11.229120
      13A    -11.228847    14A    -11.222936    15A     -1.160653
      16A     -1.145229    17A     -1.073804    18A     -1.024006
      19A     -1.010217    20A     -1.008126    21A     -0.957289
      22A     -0.896212    23A     -0.828004    24A     -0.822873
      25A     -0.803029    26A     -0.774583    27A     -0.693427
      28A     -0.667877    29A     -0.648370    30A     -0.635165
      31A     -0.628557    32A     -0.617706    33A     -0.582851
      34A     -0.578741    35A     -0.575199    36A     -0.569491
      37A     -0.559835    38A     -0.548171    39A     -0.527865
      40A     -0.503507    41A     -0.491258    42A     -0.489962
      43A     -0.477736    44A     -0.472843    45A     -0.471679
      46A     -0.337233    47A     -0.333756    48A     -0.329101
      49A     -0.307491

  @DF-RHF Final Energy:  -538.49342723555469

   => Energetics <=

    Nuclear Repulsion Energy =            785.9002930765796009
    One-Electron Energy =               -2287.1711962128401865
    Two-Electron Energy =                 962.7774759007058947
    Total Energy =                       -538.4934272355546909
  Basis Set: (AUG-CC-PVTZ AUX)
    Blend: AUG-CC-PVTZ-RI
    Molecular point group: c1

    Geometry (in Angstrom), charge = 0, multiplicity = 1:

       Center              X                  Y                   Z               Mass
    ------------   -----------------  -----------------  -----------------  -----------------
         C           -0.553637009392     1.594504476349    -0.220116077802    12.000000000000
         C            0.780551990608     0.887355476349    -0.157228077802    12.000000000000
         C           -1.710541009392     0.638714476349    -0.035960077802    12.000000000000
         C            1.752597990608     1.241881476349     0.783285922198    12.000000000000
         C            1.070101990608    -0.151169523651    -1.053645077802    12.000000000000
         C            3.286157390608    -0.436740223651    -0.082111277802    12.000000000000
         C            2.980579990608     0.577321476349     0.829459922198    12.000000000000
         C            2.296524990608    -0.809597523651    -1.007954077802    12.000000000000
         C           -1.797346009392    -0.138795523651     1.127924922198    12.000000000000
         C           -2.704854009392     0.503499476349    -1.010816077802    12.000000000000
         C            4.582581990608    -1.199751523651     0.003484922198    12.000000000000
         C           -2.857792009392    -1.024237523651     1.314021922198    12.000000000000
         C           -3.767685009392    -0.385973523651    -0.829565077802    12.000000000000
         C           -3.847477009392    -1.150965523651     0.334360922198    12.000000000000
         H           -0.659956009392     2.109534476349    -1.183949077802     1.007825032230
         H           -0.586453009392     2.373666476349     0.552776922198     1.007825032230
         H            1.550339990608     2.048758476349     1.486612922198     1.007825032230
         H            0.320974990608    -0.449952523651    -1.785754077802     1.007825032230
         H            3.723069990608     0.872961476349     1.569522922198     1.007825032230
         H            2.502490990608    -1.609796523651    -1.717862077802     1.007825032230
         H           -1.019391009392    -0.053342523651     1.885178922198     1.007825032230
         H           -2.648810009392     1.101122476349    -1.919572077802     1.007825032230
         H            4.923306990608    -1.492515523651    -0.994023077802     1.007825032230
         H            5.361831990608    -0.583398523651     0.460736922198     1.007825032230
         H            4.487020990608    -2.112985523651     0.601170922198     1.007825032230
         H           -2.912441009392    -1.619271523651     2.222918922198     1.007825032230
         H           -4.531632009392    -0.480058523651    -1.598088077802     1.007825032230
         H           -4.673200009392    -1.843666523651     0.478164922198     1.007825032230

  Basis Set: AUG-CC-PVTZ
    Blend: AUG-CC-PVTZ
  Basis Set: (AUG-CC-PVTZ AUX)
    Blend: AUG-CC-PVTZ-JKFIT
	 Reference Energy          =    -538.4934272355546909 [Eh]
	 Singles Energy            =      -0.0000000000000000 [Eh]
	 Same-Spin Energy          =      -0.6082101137940125 [Eh]
	 Opposite-Spin Energy      =      -1.9348005848711300 [Eh]
	 Correlation Energy        =      -2.5430106986651424 [Eh]
	 Total Energy              =    -541.0364379342198617 [Eh]

	 ================> DF-SCS-MP2 Energies <==================
	-----------------------------------------------------------
	 SCS Same-Spin Scale       =       0.3333333333333333 [-]
	 SCS Opposite-Spin Scale   =       1.2000000000000000 [-]
	 SCS Same-Spin Energy      =      -0.2027367045980041 [Eh]
	 SCS Opposite-Spin Energy  =      -2.3217607018453559 [Eh]
	 SCS Correlation Energy    =      -2.5244974064433601 [Eh]
	 SCS Total Energy          =    -541.0179246419980927 [Eh]
	-----------------------------------------------------------

  Dipole Moment: [D]
     X:     0.3472      Y:    -0.1338      Z:     0.0169     Total:     0.3724

*** Psi4 exiting successfully. Buy a developer a beer!
