                               Psi4 1.4a3.dev225

  ==> Input File <==

--------------------------------------------------------------------------
#psi4
#
memory 32 gb

molecule  {
0 1
  C       -0.5824800     1.6044310    -0.2213210
  C        0.7517090     0.8972820    -0.1584330
  C       -1.7393840     0.6486410    -0.0371650
  C        1.7237550     1.2518080     0.7820810
  C        1.0412590    -0.1412430    -1.0548500
  C        3.2457950    -0.4451680    -0.0684180
  C        2.9517370     0.5872480     0.8282550
  C        2.2676820    -0.7996710    -1.0091590
  C       -1.8261890    -0.1288690     1.1267200
  C       -2.7336970     0.5134260    -1.0120210
  C        4.5537390    -1.1898250     0.0022800
  C       -2.8866350    -1.0143110     1.3128170
  C       -3.7813199    -0.3633195    -0.8333635
  C       -3.8763200    -1.1410390     0.3331560
  H       -0.6887990     2.1194610    -1.1851540
  H       -0.6152960     2.3835930     0.5515720
  H        1.5214970     2.0586850     1.4854080
  H        0.2921320    -0.4400260    -1.7869590
  H        3.6942270     0.8828880     1.5683180
  H        2.4736480    -1.5998700    -1.7190670
  H       -1.0482340    -0.0434160     1.8839740
  H       -2.6776530     1.1110490    -1.9207770
  H        4.8944640    -1.4825890    -0.9952280
  H        5.3329890    -0.5734720     0.4595320
  H        4.4581780    -2.1030590     0.5999660
  H       -2.9412840    -1.6093450     2.2217140
  H       -4.5604750    -0.4701320    -1.5992930
  H       -4.7020430    -1.8337400     0.4769600
units angstrom
no_reorient  #important for SAPT in psi4, default
symmetry c1  #important for SAPT in psi4, default
}

set PROPERTIES_ORIGIN ["COM"]
properties('MP2/aug-cc-pvtz', properties = ['dipole'])
--------------------------------------------------------------------------

    Molecular point group: c1
  Charge       = 0
  Multiplicity = 1
  Basis Set: AUG-CC-PVTZ
    Blend: AUG-CC-PVTZ
  Basis Set: (AUG-CC-PVTZ AUX)
    Blend: AUG-CC-PVTZ-JKFIT

    Orbital Energies [Eh]
    ---------------------

    Doubly Occupied:

       1A    -11.241162     2A    -11.238370     3A    -11.236974
       4A    -11.235300     5A    -11.234826     6A    -11.234438
       7A    -11.232071     8A    -11.231180     9A    -11.229921
      10A    -11.229450    11A    -11.229158    12A    -11.229059
      13A    -11.228693    14A    -11.222981    15A     -1.161088
      16A     -1.145834    17A     -1.073581    18A     -1.023443
      19A     -1.012214    20A     -1.008173    21A     -0.957005
      22A     -0.896497    23A     -0.827803    24A     -0.821506
      25A     -0.803889    26A     -0.774631    27A     -0.693570
      28A     -0.667928    29A     -0.648534    30A     -0.634490
      31A     -0.628199    32A     -0.617935    33A     -0.582569
      34A     -0.578738    35A     -0.575408    36A     -0.569295
      37A     -0.560029    38A     -0.548415    39A     -0.527926
      40A     -0.503921    41A     -0.492021    42A     -0.488258
      43A     -0.477701    44A     -0.472967    45A     -0.471964
      46A     -0.337857    47A     -0.334910    48A     -0.328691
      49A     -0.306683

  @DF-RHF Final Energy:  -538.49334035280947

   => Energetics <=

    Nuclear Repulsion Energy =            786.2197417107657884
    One-Electron Energy =               -2287.8116546581618422
    Two-Electron Energy =                 963.0985725945864715
    Total Energy =                       -538.4933403528094686
  Basis Set: (AUG-CC-PVTZ AUX)
    Blend: AUG-CC-PVTZ-RI
    Molecular point group: c1

    Geometry (in Angstrom), charge = 0, multiplicity = 1:

       Center              X                  Y                   Z               Mass
    ------------   -----------------  -----------------  -----------------  -----------------
         C           -0.553880074074     1.594875250972    -0.220926888656    12.000000000000
         C            0.780308925926     0.887726250972    -0.158038888656    12.000000000000
         C           -1.710784074074     0.639085250972    -0.036770888656    12.000000000000
         C            1.752354925926     1.242252250972     0.782475111344    12.000000000000
         C            1.069858925926    -0.150798749028    -1.054455888656    12.000000000000
         C            3.274394925926    -0.454723749028    -0.068023888656    12.000000000000
         C            2.980336925926     0.577692250972     0.828649111344    12.000000000000
         C            2.296281925926    -0.809226749028    -1.008764888656    12.000000000000
         C           -1.797589074074    -0.138424749028     1.127114111344    12.000000000000
         C           -2.705097074074     0.503870250972    -1.011626888656    12.000000000000
         C            4.582338925926    -1.199380749028     0.002674111344    12.000000000000
         C           -2.858035074074    -1.023866749028     1.313211111344    12.000000000000
         C           -3.752719974074    -0.372875249028    -0.832969388656    12.000000000000
         C           -3.847720074074    -1.150594749028     0.333550111344    12.000000000000
         H           -0.660199074074     2.109905250972    -1.184759888656     1.007825032230
         H           -0.586696074074     2.374037250972     0.551966111344     1.007825032230
         H            1.550096925926     2.049129250972     1.485802111344     1.007825032230
         H            0.320731925926    -0.449581749028    -1.786564888656     1.007825032230
         H            3.722826925926     0.873332250972     1.568712111344     1.007825032230
         H            2.502247925926    -1.609425749028    -1.718672888656     1.007825032230
         H           -1.019634074074    -0.052971749028     1.884368111344     1.007825032230
         H           -2.649053074074     1.101493250972    -1.920382888656     1.007825032230
         H            4.923063925926    -1.492144749028    -0.994833888656     1.007825032230
         H            5.361588925926    -0.583027749028     0.459926111344     1.007825032230
         H            4.486777925926    -2.112614749028     0.600360111344     1.007825032230
         H           -2.912684074074    -1.618900749028     2.222108111344     1.007825032230
         H           -4.531875074074    -0.479687749028    -1.598898888656     1.007825032230
         H           -4.673443074074    -1.843295749028     0.477354111344     1.007825032230

  Basis Set: AUG-CC-PVTZ
    Blend: AUG-CC-PVTZ
  Basis Set: (AUG-CC-PVTZ AUX)
    Blend: AUG-CC-PVTZ-JKFIT
	 Reference Energy          =    -538.4933403528094686 [Eh]
	 Singles Energy            =      -0.0000000000000000 [Eh]
	 Same-Spin Energy          =      -0.6082381846434202 [Eh]
	 Opposite-Spin Energy      =      -1.9347404190423605 [Eh]
	 Correlation Energy        =      -2.5429786036857807 [Eh]
	 Total Energy              =    -541.0363189564952791 [Eh]

	 ================> DF-SCS-MP2 Energies <==================
	-----------------------------------------------------------
	 SCS Same-Spin Scale       =       0.3333333333333333 [-]
	 SCS Opposite-Spin Scale   =       1.2000000000000000 [-]
	 SCS Same-Spin Energy      =      -0.2027460615478067 [Eh]
	 SCS Opposite-Spin Energy  =      -2.3216885028508325 [Eh]
	 SCS Correlation Energy    =      -2.5244345643986392 [Eh]
	 SCS Total Energy          =    -541.0177749172081576 [Eh]
	-----------------------------------------------------------

  Dipole Moment: [D]
     X:     0.3627      Y:    -0.1308      Z:     0.0153     Total:     0.3859

*** Psi4 exiting successfully. Buy a developer a beer!
