                               Psi4 1.4a3.dev225

  ==> Input File <==

--------------------------------------------------------------------------
#psi4
#
memory 32 gb

molecule  {
0 1
  C       -0.5824800     1.6044310    -0.2213210
  C        0.7517090     0.8972820    -0.1584330
  C       -1.7393840     0.6486410    -0.0371650
  C        1.7237550     1.2518080     0.7820810
  C        1.0412590    -0.1412430    -1.0548500
  C        3.2457950    -0.4451680    -0.0684180
  C        2.9517370     0.5872480     0.8282550
  C        2.2676820    -0.7996710    -1.0091590
  C       -1.8261890    -0.1288690     1.1267200
  C       -2.7336970     0.5134260    -1.0120210
  C        4.5537390    -1.1898250     0.0022800
  C       -2.8866350    -1.0143110     1.3128170
  C       -3.7965280    -0.3760470    -0.8307700
  C       -3.8763200    -1.1410390     0.3331560
  H       -0.6887990     2.1194610    -1.1851540
  H       -0.6152960     2.3835930     0.5515720
  H        1.5214970     2.0586850     1.4854080
  H        0.2921320    -0.4400260    -1.7869590
  H        3.6942270     0.8828880     1.5683180
  H        2.4736480    -1.5998700    -1.7190670
  H       -1.0482340    -0.0434160     1.8839740
  H       -2.6776530     1.1110490    -1.9207770
  H        4.8917957    -1.3713368    -1.0222187
  H        5.3329890    -0.5734720     0.4595320
  H        4.4581780    -2.1030590     0.5999660
  H       -2.9412840    -1.6093450     2.2217140
  H       -4.5604750    -0.4701320    -1.5992930
  H       -4.7020430    -1.8337400     0.4769600
units angstrom
no_reorient  #important for SAPT in psi4, default
symmetry c1  #important for SAPT in psi4, default
}

set PROPERTIES_ORIGIN ["COM"]
properties('MP2/aug-cc-pvtz', properties = ['dipole'])
--------------------------------------------------------------------------

    Molecular point group: c1
  Charge       = 0
  Multiplicity = 1
  Basis Set: AUG-CC-PVTZ
    Blend: AUG-CC-PVTZ
  Basis Set: (AUG-CC-PVTZ AUX)
    Blend: AUG-CC-PVTZ-JKFIT

    Orbital Energies [Eh]
    ---------------------

    Doubly Occupied:

       1A    -11.241032     2A    -11.237597     3A    -11.236813
       4A    -11.235213     5A    -11.234994     6A    -11.234508
       7A    -11.231478     8A    -11.231231     9A    -11.230909
      10A    -11.229796    11A    -11.229395    12A    -11.228701
      13A    -11.228560    14A    -11.222973    15A     -1.160573
      16A     -1.145194    17A     -1.073891    18A     -1.024179
      19A     -1.010139    20A     -1.007955    21A     -0.957350
      22A     -0.895855    23A     -0.827981    24A     -0.822744
      25A     -0.802641    26A     -0.774248    27A     -0.693293
      28A     -0.667211    29A     -0.647986    30A     -0.634958
      31A     -0.627877    32A     -0.617428    33A     -0.584358
      34A     -0.582301    35A     -0.578459    36A     -0.570033
      37A     -0.559888    38A     -0.545243    39A     -0.524479
      40A     -0.502743    41A     -0.490927    42A     -0.489991
      43A     -0.476463    44A     -0.473580    45A     -0.471643
      46A     -0.337033    47A     -0.333644    48A     -0.329291
      49A     -0.307419

  @DF-RHF Final Energy:  -538.49255339491299

   => Energetics <=

    Nuclear Repulsion Energy =            786.0546728641842265
    One-Electron Energy =               -2287.4900588826681087
    Two-Electron Energy =                 962.9428326235707800
    Total Energy =                       -538.4925533949129886
  Basis Set: (AUG-CC-PVTZ AUX)
    Blend: AUG-CC-PVTZ-RI
    Molecular point group: c1

    Geometry (in Angstrom), charge = 0, multiplicity = 1:

       Center              X                  Y                   Z               Mass
    ------------   -----------------  -----------------  -----------------  -----------------
         C           -0.552863178590     1.595098233500    -0.220948414693    12.000000000000
         C            0.781325821410     0.887949233500    -0.158060414693    12.000000000000
         C           -1.709767178590     0.639308233500    -0.036792414693    12.000000000000
         C            1.753371821410     1.242475233500     0.782453585307    12.000000000000
         C            1.070875821410    -0.150575766500    -1.054477414693    12.000000000000
         C            3.275411821410    -0.454500766500    -0.068045414693    12.000000000000
         C            2.981353821410     0.577915233500     0.828627585307    12.000000000000
         C            2.297298821410    -0.809003766500    -1.008786414693    12.000000000000
         C           -1.796572178590    -0.138201766500     1.127092585307    12.000000000000
         C           -2.704080178590     0.504093233500    -1.011648414693    12.000000000000
         C            4.583355821410    -1.199157766500     0.002652585307    12.000000000000
         C           -2.857018178590    -1.023643766500     1.313189585307    12.000000000000
         C           -3.766911178590    -0.385379766500    -0.830397414693    12.000000000000
         C           -3.846703178590    -1.150371766500     0.333528585307    12.000000000000
         H           -0.659182178590     2.110128233500    -1.184781414693     1.007825032230
         H           -0.585679178590     2.374260233500     0.551944585307     1.007825032230
         H            1.551113821410     2.049352233500     1.485780585307     1.007825032230
         H            0.321748821410    -0.449358766500    -1.786586414693     1.007825032230
         H            3.723843821410     0.873555233500     1.568690585307     1.007825032230
         H            2.503264821410    -1.609202766500    -1.718694414693     1.007825032230
         H           -1.018617178590    -0.052748766500     1.884346585307     1.007825032230
         H           -2.648036178590     1.101716233500    -1.920404414693     1.007825032230
         H            4.921412521410    -1.380669566500    -1.021846114693     1.007825032230
         H            5.362605821410    -0.582804766500     0.459904585307     1.007825032230
         H            4.487794821410    -2.112391766500     0.600338585307     1.007825032230
         H           -2.911667178590    -1.618677766500     2.222086585307     1.007825032230
         H           -4.530858178590    -0.479464766500    -1.598920414693     1.007825032230
         H           -4.672426178590    -1.843072766500     0.477332585307     1.007825032230

  Basis Set: AUG-CC-PVTZ
    Blend: AUG-CC-PVTZ
  Basis Set: (AUG-CC-PVTZ AUX)
    Blend: AUG-CC-PVTZ-JKFIT
	 Reference Energy          =    -538.4925533949129886 [Eh]
	 Singles Energy            =      -0.0000000000000000 [Eh]
	 Same-Spin Energy          =      -0.6082643932213653 [Eh]
	 Opposite-Spin Energy      =      -1.9349011196980568 [Eh]
	 Correlation Energy        =      -2.5431655129194222 [Eh]
	 Total Energy              =    -541.0357189078324609 [Eh]

	 ================> DF-SCS-MP2 Energies <==================
	-----------------------------------------------------------
	 SCS Same-Spin Scale       =       0.3333333333333333 [-]
	 SCS Opposite-Spin Scale   =       1.2000000000000000 [-]
	 SCS Same-Spin Energy      =      -0.2027547977404551 [Eh]
	 SCS Opposite-Spin Energy  =      -2.3218813436376680 [Eh]
	 SCS Correlation Energy    =      -2.5246361413781231 [Eh]
	 SCS Total Energy          =    -541.0171895362910846 [Eh]
	-----------------------------------------------------------

  Dipole Moment: [D]
     X:     0.3706      Y:    -0.0953      Z:     0.0135     Total:     0.3829

*** Psi4 exiting successfully. Buy a developer a beer!
