                               Psi4 1.4a3.dev225

  ==> Input File <==

--------------------------------------------------------------------------
#psi4
#
memory 32 gb

molecule  {
0 1
  C       -0.5824800     1.6044310    -0.2213210
  C        0.7517090     0.8972820    -0.1584330
  C       -1.7393840     0.6486410    -0.0371650
  C        1.7237550     1.2518080     0.7820810
  C        1.0619099    -0.2153113    -1.1187830
  C        3.2457950    -0.4451680    -0.0684180
  C        2.9517370     0.5872480     0.8282550
  C        2.2676820    -0.7996710    -1.0091590
  C       -1.8261890    -0.1288690     1.1267200
  C       -2.7336970     0.5134260    -1.0120210
  C        4.5537390    -1.1898250     0.0022800
  C       -2.8866350    -1.0143110     1.3128170
  C       -3.7965280    -0.3760470    -0.8307700
  C       -3.8763200    -1.1410390     0.3331560
  H       -0.6887990     2.1194610    -1.1851540
  H       -0.6152960     2.3835930     0.5515720
  H        1.5214970     2.0586850     1.4854080
  H        0.2921320    -0.4400260    -1.7869590
  H        3.6942270     0.8828880     1.5683180
  H        2.4736480    -1.5998700    -1.7190670
  H       -1.0482340    -0.0434160     1.8839740
  H       -2.6776530     1.1110490    -1.9207770
  H        4.8944640    -1.4825890    -0.9952280
  H        5.3329890    -0.5734720     0.4595320
  H        4.4581780    -2.1030590     0.5999660
  H       -2.9412840    -1.6093450     2.2217140
  H       -4.5604750    -0.4701320    -1.5992930
  H       -4.7020430    -1.8337400     0.4769600
units angstrom
no_reorient  #important for SAPT in psi4, default
symmetry c1  #important for SAPT in psi4, default
}

set PROPERTIES_ORIGIN ["COM"]
properties('MP2/aug-cc-pvtz', properties = ['dipole'])
--------------------------------------------------------------------------

    Molecular point group: c1
  Charge       = 0
  Multiplicity = 1
  Basis Set: AUG-CC-PVTZ
    Blend: AUG-CC-PVTZ
  Basis Set: (AUG-CC-PVTZ AUX)
    Blend: AUG-CC-PVTZ-JKFIT

    Orbital Energies [Eh]
    ---------------------

    Doubly Occupied:

       1A    -11.246017     2A    -11.241497     3A    -11.238246
       4A    -11.236089     5A    -11.235445     6A    -11.234858
       7A    -11.232036     8A    -11.231712     9A    -11.230619
      10A    -11.229983    11A    -11.229720    12A    -11.228799
      13A    -11.225092    14A    -11.222973    15A     -1.157977
      16A     -1.144000    17A     -1.071023    18A     -1.021367
      19A     -1.016023    20A     -1.010459    21A     -0.957664
      22A     -0.892469    23A     -0.827039    24A     -0.821695
      25A     -0.803237    26A     -0.775054    27A     -0.693461
      28A     -0.670448    29A     -0.649724    30A     -0.635162
      31A     -0.630339    32A     -0.619914    33A     -0.584741
      34A     -0.583007    35A     -0.574983    36A     -0.569619
      37A     -0.557887    38A     -0.545000    39A     -0.527074
      40A     -0.506255    41A     -0.492341    42A     -0.490618
      43A     -0.477086    44A     -0.471075    45A     -0.463192
      46A     -0.342458    47A     -0.335117    48A     -0.330181
      49A     -0.299761

  @DF-RHF Final Energy:  -538.48242405483950

   => Energetics <=

    Nuclear Repulsion Energy =            784.7085619980529145
    One-Electron Energy =               -2284.7609034247479940
    Two-Electron Energy =                 961.5699173718554675
    Total Energy =                       -538.4824240548394982
  Basis Set: (AUG-CC-PVTZ AUX)
    Blend: AUG-CC-PVTZ-RI
    Molecular point group: c1

    Geometry (in Angstrom), charge = 0, multiplicity = 1:

       Center              X                  Y                   Z               Mass
    ------------   -----------------  -----------------  -----------------  -----------------
         C           -0.554238724128     1.600594608345    -0.216884958959    12.000000000000
         C            0.779950275872     0.893445608345    -0.153996958959    12.000000000000
         C           -1.711142724128     0.644804608345    -0.032728958959    12.000000000000
         C            1.751996275872     1.247971608345     0.786517041041    12.000000000000
         C            1.090151175872    -0.219147691655    -1.114346958959    12.000000000000
         C            3.274036275872    -0.449004391655    -0.063981958959    12.000000000000
         C            2.979978275872     0.583411608345     0.832691041041    12.000000000000
         C            2.295923275872    -0.803507391655    -1.004722958959    12.000000000000
         C           -1.797947724128    -0.132705391655     1.131156041041    12.000000000000
         C           -2.705455724128     0.509589608345    -1.007584958959    12.000000000000
         C            4.581980275872    -1.193661391655     0.006716041041    12.000000000000
         C           -2.858393724128    -1.018147391655     1.317253041041    12.000000000000
         C           -3.768286724128    -0.379883391655    -0.826333958959    12.000000000000
         C           -3.848078724128    -1.144875391655     0.337592041041    12.000000000000
         H           -0.660557724128     2.115624608345    -1.180717958959     1.007825032230
         H           -0.587054724128     2.379756608345     0.556008041041     1.007825032230
         H            1.549738275872     2.054848608345     1.489844041041     1.007825032230
         H            0.320373275872    -0.443862391655    -1.782522958959     1.007825032230
         H            3.722468275872     0.879051608345     1.572754041041     1.007825032230
         H            2.501889275872    -1.603706391655    -1.714630958959     1.007825032230
         H           -1.019992724128    -0.047252391655     1.888410041041     1.007825032230
         H           -2.649411724128     1.107212608345    -1.916340958959     1.007825032230
         H            4.922705275872    -1.486425391655    -0.990791958959     1.007825032230
         H            5.361230275872    -0.577308391655     0.463968041041     1.007825032230
         H            4.486419275872    -2.106895391655     0.604402041041     1.007825032230
         H           -2.913042724128    -1.613181391655     2.226150041041     1.007825032230
         H           -4.532233724128    -0.473968391655    -1.594856958959     1.007825032230
         H           -4.673801724128    -1.837576391655     0.481396041041     1.007825032230

  Basis Set: AUG-CC-PVTZ
    Blend: AUG-CC-PVTZ
  Basis Set: (AUG-CC-PVTZ AUX)
    Blend: AUG-CC-PVTZ-JKFIT
	 Reference Energy          =    -538.4824240548394982 [Eh]
	 Singles Energy            =      -0.0000000000000000 [Eh]
	 Same-Spin Energy          =      -0.6078264383955754 [Eh]
	 Opposite-Spin Energy      =      -1.9353639182217304 [Eh]
	 Correlation Energy        =      -2.5431903566173055 [Eh]
	 Total Energy              =    -541.0256144114567860 [Eh]

	 ================> DF-SCS-MP2 Energies <==================
	-----------------------------------------------------------
	 SCS Same-Spin Scale       =       0.3333333333333333 [-]
	 SCS Opposite-Spin Scale   =       1.2000000000000000 [-]
	 SCS Same-Spin Energy      =      -0.2026088127985251 [Eh]
	 SCS Opposite-Spin Energy  =      -2.3224367018660765 [Eh]
	 SCS Correlation Energy    =      -2.5250455146646016 [Eh]
	 SCS Total Energy          =    -541.0074695695041100 [Eh]
	-----------------------------------------------------------

  Dipole Moment: [D]
     X:     0.3214      Y:    -0.1148      Z:     0.0126     Total:     0.3415

*** Psi4 exiting successfully. Buy a developer a beer!
