                               Psi4 1.4a3.dev225

  ==> Input File <==

--------------------------------------------------------------------------
#psi4
#
memory 32 gb

molecule  {
0 1
  C       -0.5824800     1.6044310    -0.2213210
  C        0.7517090     0.8972820    -0.1584330
  C       -1.7393840     0.6486410    -0.0371650
  C        1.7237550     1.2518080     0.7820810
  C        1.0412590    -0.1412430    -1.0548500
  C        3.2457950    -0.4451680    -0.0684180
  C        2.9517370     0.5872480     0.8282550
  C        2.2676820    -0.7996710    -1.0091590
  C       -1.8261890    -0.1288690     1.1267200
  C       -2.6981612     0.5182585    -0.9771806
  C        4.5537390    -1.1898250     0.0022800
  C       -2.8866350    -1.0143110     1.3128170
  C       -3.7965280    -0.3760470    -0.8307700
  C       -3.8763200    -1.1410390     0.3331560
  H       -0.6887990     2.1194610    -1.1851540
  H       -0.6152960     2.3835930     0.5515720
  H        1.5214970     2.0586850     1.4854080
  H        0.2921320    -0.4400260    -1.7869590
  H        3.6942270     0.8828880     1.5683180
  H        2.4736480    -1.5998700    -1.7190670
  H       -1.0482340    -0.0434160     1.8839740
  H       -2.6776530     1.1110490    -1.9207770
  H        4.8944640    -1.4825890    -0.9952280
  H        5.3329890    -0.5734720     0.4595320
  H        4.4581780    -2.1030590     0.5999660
  H       -2.9412840    -1.6093450     2.2217140
  H       -4.5604750    -0.4701320    -1.5992930
  H       -4.7020430    -1.8337400     0.4769600
units angstrom
no_reorient  #important for SAPT in psi4, default
symmetry c1  #important for SAPT in psi4, default
}

set PROPERTIES_ORIGIN ["COM"]
properties('MP2/aug-cc-pvtz', properties = ['dipole'])
--------------------------------------------------------------------------

    Molecular point group: c1
  Charge       = 0
  Multiplicity = 1
  Basis Set: AUG-CC-PVTZ
    Blend: AUG-CC-PVTZ
  Basis Set: (AUG-CC-PVTZ AUX)
    Blend: AUG-CC-PVTZ-JKFIT

    Orbital Energies [Eh]
    ---------------------

    Doubly Occupied:

       1A    -11.238358     2A    -11.237277     3A    -11.236723
       4A    -11.235314     5A    -11.234577     6A    -11.234139
       7A    -11.231646     8A    -11.231129     9A    -11.230546
      10A    -11.230070    11A    -11.229862    12A    -11.229119
      13A    -11.228634    14A    -11.222961    15A     -1.162694
      16A     -1.146730    17A     -1.073934    18A     -1.027174
      19A     -1.008187    20A     -1.006253    21A     -0.958845
      22A     -0.895856    23A     -0.829638    24A     -0.824065
      25A     -0.801373    26A     -0.775254    27A     -0.692490
      28A     -0.667451    29A     -0.648330    30A     -0.633428
      31A     -0.628638    32A     -0.620492    33A     -0.579964
      34A     -0.578812    35A     -0.574804    36A     -0.570380
      37A     -0.559992    38A     -0.547439    39A     -0.527973
      40A     -0.503205    41A     -0.493368    42A     -0.488020
      43A     -0.477578    44A     -0.475048    45A     -0.468844
      46A     -0.338499    47A     -0.333498    48A     -0.329871
      49A     -0.308300

  @DF-RHF Final Energy:  -538.49101594980380

   => Energetics <=

    Nuclear Repulsion Energy =            786.7436787828718252
    One-Electron Energy =               -2288.8558331393192020
    Two-Electron Energy =                 963.6211384066434675
    Total Energy =                       -538.4910159498037956
  Basis Set: (AUG-CC-PVTZ AUX)
    Blend: AUG-CC-PVTZ-RI
    Molecular point group: c1

    Geometry (in Angstrom), charge = 0, multiplicity = 1:

       Center              X                  Y                   Z               Mass
    ------------   -----------------  -----------------  -----------------  -----------------
         C           -0.555219555718     1.595395487279    -0.223393573126    12.000000000000
         C            0.778969444282     0.888246487279    -0.160505573126    12.000000000000
         C           -1.712123555718     0.639605487279    -0.039237573126    12.000000000000
         C            1.751015444282     1.242772487279     0.780008426874    12.000000000000
         C            1.068519444282    -0.150278512721    -1.056922573126    12.000000000000
         C            3.273055444282    -0.454203512721    -0.070490573126    12.000000000000
         C            2.978997444282     0.578212487279     0.826182426874    12.000000000000
         C            2.294942444282    -0.808706512721    -1.011231573126    12.000000000000
         C           -1.798928555718    -0.137904512721     1.124647426874    12.000000000000
         C           -2.670900755718     0.509222987279    -0.979253173126    12.000000000000
         C            4.580999444282    -1.198860512721     0.000207426874    12.000000000000
         C           -2.859374555718    -1.023346512721     1.310744426874    12.000000000000
         C           -3.769267555718    -0.385082512721    -0.832842573126    12.000000000000
         C           -3.849059555718    -1.150074512721     0.331083426874    12.000000000000
         H           -0.661538555718     2.110425487279    -1.187226573126     1.007825032230
         H           -0.588035555718     2.374557487279     0.549499426874     1.007825032230
         H            1.548757444282     2.049649487279     1.483335426874     1.007825032230
         H            0.319392444282    -0.449061512721    -1.789031573126     1.007825032230
         H            3.721487444282     0.873852487279     1.566245426874     1.007825032230
         H            2.500908444282    -1.608905512721    -1.721139573126     1.007825032230
         H           -1.020973555718    -0.052451512721     1.881901426874     1.007825032230
         H           -2.650392555718     1.102013487279    -1.922849573126     1.007825032230
         H            4.921724444282    -1.491624512721    -0.997300573126     1.007825032230
         H            5.360249444282    -0.582507512721     0.457459426874     1.007825032230
         H            4.485438444282    -2.112094512721     0.597893426874     1.007825032230
         H           -2.914023555718    -1.618380512721     2.219641426874     1.007825032230
         H           -4.533214555718    -0.479167512721    -1.601365573126     1.007825032230
         H           -4.674782555718    -1.842775512721     0.474887426874     1.007825032230

  Basis Set: AUG-CC-PVTZ
    Blend: AUG-CC-PVTZ
  Basis Set: (AUG-CC-PVTZ AUX)
    Blend: AUG-CC-PVTZ-JKFIT
	 Reference Energy          =    -538.4910159498037956 [Eh]
	 Singles Energy            =      -0.0000000000000000 [Eh]
	 Same-Spin Energy          =      -0.6080728224896532 [Eh]
	 Opposite-Spin Energy      =      -1.9347735736878069 [Eh]
	 Correlation Energy        =      -2.5428463961774601 [Eh]
	 Total Energy              =    -541.0338623459812197 [Eh]

	 ================> DF-SCS-MP2 Energies <==================
	-----------------------------------------------------------
	 SCS Same-Spin Scale       =       0.3333333333333333 [-]
	 SCS Opposite-Spin Scale   =       1.2000000000000000 [-]
	 SCS Same-Spin Energy      =      -0.2026909408298844 [Eh]
	 SCS Opposite-Spin Energy  =      -2.3217282884253683 [Eh]
	 SCS Correlation Energy    =      -2.5244192292552525 [Eh]
	 SCS Total Energy          =    -541.0154351790590681 [Eh]
	-----------------------------------------------------------

  Dipole Moment: [D]
     X:     0.3465      Y:    -0.1490      Z:     0.0175     Total:     0.3776

*** Psi4 exiting successfully. Buy a developer a beer!
