                               Psi4 1.4a3.dev225

  ==> Input File <==

--------------------------------------------------------------------------
#psi4
#
memory 32 gb

molecule  {
0 1
  C       -0.5824800     1.6044310    -0.2213210
  C        0.7517090     0.8972820    -0.1584330
  C       -1.7393840     0.6486410    -0.0371650
  C        1.7237550     1.2518080     0.7820810
  C        1.0412590    -0.1412430    -1.0548500
  C        3.2457950    -0.4451680    -0.0684180
  C        2.9517370     0.5872480     0.8282550
  C        2.2676820    -0.7996710    -1.0091590
  C       -1.7433689    -0.0864586     1.1571122
  C       -2.7336970     0.5134260    -1.0120210
  C        4.5537390    -1.1898250     0.0022800
  C       -2.8866350    -1.0143110     1.3128170
  C       -3.7965280    -0.3760470    -0.8307700
  C       -3.8763200    -1.1410390     0.3331560
  H       -0.6887990     2.1194610    -1.1851540
  H       -0.6152960     2.3835930     0.5515720
  H        1.5214970     2.0586850     1.4854080
  H        0.2921320    -0.4400260    -1.7869590
  H        3.6942270     0.8828880     1.5683180
  H        2.4736480    -1.5998700    -1.7190670
  H       -1.0482340    -0.0434160     1.8839740
  H       -2.6776530     1.1110490    -1.9207770
  H        4.8944640    -1.4825890    -0.9952280
  H        5.3329890    -0.5734720     0.4595320
  H        4.4581780    -2.1030590     0.5999660
  H       -2.9412840    -1.6093450     2.2217140
  H       -4.5604750    -0.4701320    -1.5992930
  H       -4.7020430    -1.8337400     0.4769600
units angstrom
no_reorient  #important for SAPT in psi4, default
symmetry c1  #important for SAPT in psi4, default
}

set PROPERTIES_ORIGIN ["COM"]
properties('MP2/aug-cc-pvtz', properties = ['dipole'])
--------------------------------------------------------------------------

    Molecular point group: c1
  Charge       = 0
  Multiplicity = 1
  Basis Set: AUG-CC-PVTZ
    Blend: AUG-CC-PVTZ
  Basis Set: (AUG-CC-PVTZ AUX)
    Blend: AUG-CC-PVTZ-JKFIT

    Orbital Energies [Eh]
    ---------------------

    Doubly Occupied:

       1A    -11.244153     2A    -11.242755     3A    -11.238040
       4A    -11.237643     5A    -11.236404     6A    -11.232679
       7A    -11.232501     8A    -11.231959     9A    -11.231887
      10A    -11.230821    11A    -11.229593    12A    -11.228921
      13A    -11.228361    14A    -11.222795    15A     -1.159026
      16A     -1.141142    17A     -1.073333    18A     -1.024886
      19A     -1.007983    20A     -1.003314    21A     -0.956585
      22A     -0.895293    23A     -0.833857    24A     -0.825134
      25A     -0.798989    26A     -0.773328    27A     -0.696402
      28A     -0.667585    29A     -0.648847    30A     -0.642705
      31A     -0.628900    32A     -0.617894    33A     -0.586451
      34A     -0.578531    35A     -0.574060    36A     -0.569113
      37A     -0.558898    38A     -0.546788    39A     -0.527652
      40A     -0.503918    41A     -0.495254    42A     -0.485793
      43A     -0.476146    44A     -0.474835    45A     -0.464889
      46A     -0.337922    47A     -0.330488    48A     -0.326538
      49A     -0.306775

  @DF-RHF Final Energy:  -538.47973875705054

   => Energetics <=

    Nuclear Repulsion Energy =            785.4299437346141985
    One-Electron Energy =               -2286.2038382568794077
    Two-Electron Energy =                 962.2941557652146685
    Total Energy =                       -538.4797387570505407
  Basis Set: (AUG-CC-PVTZ AUX)
    Blend: AUG-CC-PVTZ-RI
    Molecular point group: c1

    Geometry (in Angstrom), charge = 0, multiplicity = 1:

       Center              X                  Y                   Z               Mass
    ------------   -----------------  -----------------  -----------------  -----------------
         C           -0.558335326410     1.592919314015    -0.223100461645    12.000000000000
         C            0.775853673590     0.885770314015    -0.160212461645    12.000000000000
         C           -1.715239326410     0.637129314015    -0.038944461645    12.000000000000
         C            1.747899673590     1.240296314015     0.780301538355    12.000000000000
         C            1.065403673590    -0.152754685985    -1.056629461645    12.000000000000
         C            3.269939673590    -0.456679685985    -0.070197461645    12.000000000000
         C            2.975881673590     0.575736314015     0.826475538355    12.000000000000
         C            2.291826673590    -0.811182685985    -1.010938461645    12.000000000000
         C           -1.719224226410    -0.097970285985     1.155332738355    12.000000000000
         C           -2.709552326410     0.501914314015    -1.013800461645    12.000000000000
         C            4.577883673590    -1.201336685985     0.000500538355    12.000000000000
         C           -2.862490326410    -1.025822685985     1.311037538355    12.000000000000
         C           -3.772383326410    -0.387558685985    -0.832549461645    12.000000000000
         C           -3.852175326410    -1.152550685985     0.331376538355    12.000000000000
         H           -0.664654326410     2.107949314015    -1.186933461645     1.007825032230
         H           -0.591151326410     2.372081314015     0.549792538355     1.007825032230
         H            1.545641673590     2.047173314015     1.483628538355     1.007825032230
         H            0.316276673590    -0.451537685985    -1.788738461645     1.007825032230
         H            3.718371673590     0.871376314015     1.566538538355     1.007825032230
         H            2.497792673590    -1.611381685985    -1.720846461645     1.007825032230
         H           -1.024089326410    -0.054927685985     1.882194538355     1.007825032230
         H           -2.653508326410     1.099537314015    -1.922556461645     1.007825032230
         H            4.918608673590    -1.494100685985    -0.997007461645     1.007825032230
         H            5.357133673590    -0.584983685985     0.457752538355     1.007825032230
         H            4.482322673590    -2.114570685985     0.598186538355     1.007825032230
         H           -2.917139326410    -1.620856685985     2.219934538355     1.007825032230
         H           -4.536330326410    -0.481643685985    -1.601072461645     1.007825032230
         H           -4.677898326410    -1.845251685985     0.475180538355     1.007825032230

  Basis Set: AUG-CC-PVTZ
    Blend: AUG-CC-PVTZ
  Basis Set: (AUG-CC-PVTZ AUX)
    Blend: AUG-CC-PVTZ-JKFIT
	 Reference Energy          =    -538.4797387570505407 [Eh]
	 Singles Energy            =      -0.0000000000000000 [Eh]
	 Same-Spin Energy          =      -0.6084540949400649 [Eh]
	 Opposite-Spin Energy      =      -1.9360791790075751 [Eh]
	 Correlation Energy        =      -2.5445332739476401 [Eh]
	 Total Energy              =    -541.0242720309981905 [Eh]

	 ================> DF-SCS-MP2 Energies <==================
	-----------------------------------------------------------
	 SCS Same-Spin Scale       =       0.3333333333333333 [-]
	 SCS Opposite-Spin Scale   =       1.2000000000000000 [-]
	 SCS Same-Spin Energy      =      -0.2028180316466883 [Eh]
	 SCS Opposite-Spin Energy  =      -2.3232950148090898 [Eh]
	 SCS Correlation Energy    =      -2.5261130464557779 [Eh]
	 SCS Total Energy          =    -541.0058518035062889 [Eh]
	-----------------------------------------------------------

  Dipole Moment: [D]
     X:     0.3172      Y:    -0.1478      Z:     0.0124     Total:     0.3502

*** Psi4 exiting successfully. Buy a developer a beer!
