                               Psi4 1.4a3.dev225

  ==> Input File <==

--------------------------------------------------------------------------
#psi4
#
memory 32 gb

molecule  {
0 1
  C       -0.5304834     1.5556113    -0.0800500
  C        0.7517090     0.8972820    -0.1584330
  C       -1.7393840     0.6486410    -0.0371650
  C        1.7237550     1.2518080     0.7820810
  C        1.0412590    -0.1412430    -1.0548500
  C        3.2457950    -0.4451680    -0.0684180
  C        2.9517370     0.5872480     0.8282550
  C        2.2676820    -0.7996710    -1.0091590
  C       -1.8261890    -0.1288690     1.1267200
  C       -2.7336970     0.5134260    -1.0120210
  C        4.5537390    -1.1898250     0.0022800
  C       -2.8866350    -1.0143110     1.3128170
  C       -3.7965280    -0.3760470    -0.8307700
  C       -3.8763200    -1.1410390     0.3331560
  H       -0.6887990     2.1194610    -1.1851540
  H       -0.6152960     2.3835930     0.5515720
  H        1.5214970     2.0586850     1.4854080
  H        0.2921320    -0.4400260    -1.7869590
  H        3.6942270     0.8828880     1.5683180
  H        2.4736480    -1.5998700    -1.7190670
  H       -1.0482340    -0.0434160     1.8839740
  H       -2.6776530     1.1110490    -1.9207770
  H        4.8944640    -1.4825890    -0.9952280
  H        5.3329890    -0.5734720     0.4595320
  H        4.4581780    -2.1030590     0.5999660
  H       -2.9412840    -1.6093450     2.2217140
  H       -4.5604750    -0.4701320    -1.5992930
  H       -4.7020430    -1.8337400     0.4769600
units angstrom
no_reorient  #important for SAPT in psi4, default
symmetry c1  #important for SAPT in psi4, default
}

set PROPERTIES_ORIGIN ["COM"]
properties('MP2/aug-cc-pvtz', properties = ['dipole'])
--------------------------------------------------------------------------

    Molecular point group: c1
  Charge       = 0
  Multiplicity = 1
  Basis Set: AUG-CC-PVTZ
    Blend: AUG-CC-PVTZ
  Basis Set: (AUG-CC-PVTZ AUX)
    Blend: AUG-CC-PVTZ-JKFIT

    Orbital Energies [Eh]
    ---------------------

    Doubly Occupied:

       1A    -11.242092     2A    -11.240750     3A    -11.238466
       4A    -11.236315     5A    -11.235285     6A    -11.234428
       7A    -11.234126     8A    -11.232435     9A    -11.231345
      10A    -11.230301    11A    -11.230082    12A    -11.228964
      13A    -11.228495    14A    -11.223149    15A     -1.164399
      16A     -1.146179    17A     -1.079775    18A     -1.024372
      19A     -1.010937    20A     -1.009002    21A     -0.961164
      22A     -0.894216    23A     -0.830261    24A     -0.823703
      25A     -0.805310    26A     -0.774311    27A     -0.695751
      28A     -0.673511    29A     -0.651380    30A     -0.632703
      31A     -0.630408    32A     -0.619664    33A     -0.583105
      34A     -0.580774    35A     -0.578089    36A     -0.572686
      37A     -0.566909    38A     -0.540498    39A     -0.516378
      40A     -0.504347    41A     -0.494353    42A     -0.490286
      43A     -0.484923    44A     -0.474149    45A     -0.452987
      46A     -0.337626    47A     -0.334494    48A     -0.329659
      49A     -0.304969

  @DF-RHF Final Energy:  -538.46918547474354

   => Energetics <=

    Nuclear Repulsion Energy =            787.1769094771414075
    One-Electron Energy =               -2289.6131699647858113
    Two-Electron Energy =                 963.9670750129008638
    Total Energy =                       -538.4691854747435400
  Basis Set: (AUG-CC-PVTZ AUX)
    Blend: AUG-CC-PVTZ-RI
    Molecular point group: c1

    Geometry (in Angstrom), charge = 0, multiplicity = 1:

       Center              X                  Y                   Z               Mass
    ------------   -----------------  -----------------  -----------------  -----------------
         C           -0.504307630297     1.550111166936    -0.089135753911    12.000000000000
         C            0.777884769703     0.891781866936    -0.167518753911    12.000000000000
         C           -1.713208230297     0.643140866936    -0.046250753911    12.000000000000
         C            1.749930769703     1.246307866936     0.772995246089    12.000000000000
         C            1.067434769703    -0.146743133064    -1.063935753911    12.000000000000
         C            3.271970769703    -0.450668133064    -0.077503753911    12.000000000000
         C            2.977912769703     0.581747866936     0.819169246089    12.000000000000
         C            2.293857769703    -0.805171133064    -1.018244753911    12.000000000000
         C           -1.800013230297    -0.134369133064     1.117634246089    12.000000000000
         C           -2.707521230297     0.507925866936    -1.021106753911    12.000000000000
         C            4.579914769703    -1.195325133064    -0.006805753911    12.000000000000
         C           -2.860459230297    -1.019811133064     1.303731246089    12.000000000000
         C           -3.770352230297    -0.381547133064    -0.839855753911    12.000000000000
         C           -3.850144230297    -1.146539133064     0.324070246089    12.000000000000
         H           -0.662623230297     2.113960866936    -1.194239753911     1.007825032230
         H           -0.589120230297     2.378092866936     0.542486246089     1.007825032230
         H            1.547672769703     2.053184866936     1.476322246089     1.007825032230
         H            0.318307769703    -0.445526133064    -1.796044753911     1.007825032230
         H            3.720402769703     0.877387866936     1.559232246089     1.007825032230
         H            2.499823769703    -1.605370133064    -1.728152753911     1.007825032230
         H           -1.022058230297    -0.048916133064     1.874888246089     1.007825032230
         H           -2.651477230297     1.105548866936    -1.929862753911     1.007825032230
         H            4.920639769703    -1.488089133064    -1.004313753911     1.007825032230
         H            5.359164769703    -0.578972133064     0.450446246089     1.007825032230
         H            4.484353769703    -2.108559133064     0.590880246089     1.007825032230
         H           -2.915108230297    -1.614845133064     2.212628246089     1.007825032230
         H           -4.534299230297    -0.475632133064    -1.608378753911     1.007825032230
         H           -4.675867230297    -1.839240133064     0.467874246089     1.007825032230

  Basis Set: AUG-CC-PVTZ
    Blend: AUG-CC-PVTZ
  Basis Set: (AUG-CC-PVTZ AUX)
    Blend: AUG-CC-PVTZ-JKFIT
	 Reference Energy          =    -538.4691854747435400 [Eh]
	 Singles Energy            =      -0.0000000000000000 [Eh]
	 Same-Spin Energy          =      -0.6095277238649738 [Eh]
	 Opposite-Spin Energy      =      -1.9370682413951497 [Eh]
	 Correlation Energy        =      -2.5465959652601233 [Eh]
	 Total Energy              =    -541.0157814400037068 [Eh]

	 ================> DF-SCS-MP2 Energies <==================
	-----------------------------------------------------------
	 SCS Same-Spin Scale       =       0.3333333333333333 [-]
	 SCS Opposite-Spin Scale   =       1.2000000000000000 [-]
	 SCS Same-Spin Energy      =      -0.2031759079549912 [Eh]
	 SCS Opposite-Spin Energy  =      -2.3244818896741797 [Eh]
	 SCS Correlation Energy    =      -2.5276577976291708 [Eh]
	 SCS Total Energy          =    -540.9968432723727574 [Eh]
	-----------------------------------------------------------

  Dipole Moment: [D]
     X:     0.3063      Y:    -0.2159      Z:     0.1292     Total:     0.3964

*** Psi4 exiting successfully. Buy a developer a beer!
