                               Psi4 1.4a3.dev225

  ==> Input File <==

--------------------------------------------------------------------------
#psi4
#
memory 32 gb

molecule  {
0 1
  C       -0.5824800     1.6044310    -0.2213210
  C        0.7517090     0.8972820    -0.1584330
  C       -1.7393840     0.6486410    -0.0371650
  C        1.7098513     1.2467370     0.7686284
  C        1.0412590    -0.1412430    -1.0548500
  C        3.2457950    -0.4451680    -0.0684180
  C        2.9517370     0.5872480     0.8282550
  C        2.2676820    -0.7996710    -1.0091590
  C       -1.8261890    -0.1288690     1.1267200
  C       -2.7336970     0.5134260    -1.0120210
  C        4.5537390    -1.1898250     0.0022800
  C       -2.8866350    -1.0143110     1.3128170
  C       -3.7965280    -0.3760470    -0.8307700
  C       -3.8763200    -1.1410390     0.3331560
  H       -0.6887990     2.1194610    -1.1851540
  H       -0.6152960     2.3835930     0.5515720
  H        1.5214970     2.0586850     1.4854080
  H        0.2921320    -0.4400260    -1.7869590
  H        3.6942270     0.8828880     1.5683180
  H        2.4736480    -1.5998700    -1.7190670
  H       -1.0482340    -0.0434160     1.8839740
  H       -2.6776530     1.1110490    -1.9207770
  H        4.8944640    -1.4825890    -0.9952280
  H        5.3329890    -0.5734720     0.4595320
  H        4.4581780    -2.1030590     0.5999660
  H       -2.9412840    -1.6093450     2.2217140
  H       -4.5604750    -0.4701320    -1.5992930
  H       -4.7020430    -1.8337400     0.4769600
units angstrom
no_reorient  #important for SAPT in psi4, default
symmetry c1  #important for SAPT in psi4, default
}

set PROPERTIES_ORIGIN ["COM"]
properties('MP2/aug-cc-pvtz', properties = ['dipole'])
--------------------------------------------------------------------------

    Molecular point group: c1
  Charge       = 0
  Multiplicity = 1
  Basis Set: AUG-CC-PVTZ
    Blend: AUG-CC-PVTZ
  Basis Set: (AUG-CC-PVTZ AUX)
    Blend: AUG-CC-PVTZ-JKFIT

    Orbital Energies [Eh]
    ---------------------

    Doubly Occupied:

       1A    -11.241031     2A    -11.238437     3A    -11.235344
       4A    -11.235041     5A    -11.234564     6A    -11.234560
       7A    -11.231526     8A    -11.231284     9A    -11.230939
      10A    -11.230057    11A    -11.229707    12A    -11.229443
      13A    -11.228791    14A    -11.222987    15A     -1.161477
      16A     -1.145593    17A     -1.074479    18A     -1.024791
      19A     -1.010175    20A     -1.006733    21A     -0.957106
      22A     -0.897190    23A     -0.828857    24A     -0.823018
      25A     -0.802326    26A     -0.774529    27A     -0.693468
      28A     -0.667682    29A     -0.648596    30A     -0.635008
      31A     -0.627263    32A     -0.618561    33A     -0.582857
      34A     -0.577383    35A     -0.575192    36A     -0.569345
      37A     -0.560447    38A     -0.548655    39A     -0.528318
      40A     -0.502873    41A     -0.491069    42A     -0.490587
      43A     -0.476938    44A     -0.473895    45A     -0.471580
      46A     -0.336349    47A     -0.333338    48A     -0.330042
      49A     -0.308592

  @DF-RHF Final Energy:  -538.49355703273818

   => Energetics <=

    Nuclear Repulsion Energy =            786.2575742991049310
    One-Electron Energy =               -2287.8862168080299853
    Two-Electron Energy =                 963.1350854761869869
    Total Energy =                       -538.4935570327381811
  Basis Set: (AUG-CC-PVTZ AUX)
    Blend: AUG-CC-PVTZ-RI
    Molecular point group: c1

    Geometry (in Angstrom), charge = 0, multiplicity = 1:

       Center              X                  Y                   Z               Mass
    ------------   -----------------  -----------------  -----------------  -----------------
         C           -0.551961769410     1.596048072493    -0.220211334751    12.000000000000
         C            0.782227230590     0.888899072493    -0.157323334751    12.000000000000
         C           -1.708865769410     0.640258072493    -0.036055334751    12.000000000000
         C            1.740369530590     1.238354072493     0.769738065249    12.000000000000
         C            1.071777230590    -0.149625927507    -1.053740334751    12.000000000000
         C            3.276313230590    -0.453550927507    -0.067308334751    12.000000000000
         C            2.982255230590     0.578865072493     0.829364665249    12.000000000000
         C            2.298200230590    -0.808053927507    -1.008049334751    12.000000000000
         C           -1.795670769410    -0.137251927507     1.127829665249    12.000000000000
         C           -2.703178769410     0.505043072493    -1.010911334751    12.000000000000
         C            4.584257230590    -1.198207927507     0.003389665249    12.000000000000
         C           -2.856116769410    -1.022693927507     1.313926665249    12.000000000000
         C           -3.766009769410    -0.384429927507    -0.829660334751    12.000000000000
         C           -3.845801769410    -1.149421927507     0.334265665249    12.000000000000
         H           -0.658280769410     2.111078072493    -1.184044334751     1.007825032230
         H           -0.584777769410     2.375210072493     0.552681665249     1.007825032230
         H            1.552015230590     2.050302072493     1.486517665249     1.007825032230
         H            0.322650230590    -0.448408927507    -1.785849334751     1.007825032230
         H            3.724745230590     0.874505072493     1.569427665249     1.007825032230
         H            2.504166230590    -1.608252927507    -1.717957334751     1.007825032230
         H           -1.017715769410    -0.051798927507     1.885083665249     1.007825032230
         H           -2.647134769410     1.102666072493    -1.919667334751     1.007825032230
         H            4.924982230590    -1.490971927507    -0.994118334751     1.007825032230
         H            5.363507230590    -0.581854927507     0.460641665249     1.007825032230
         H            4.488696230590    -2.111441927507     0.601075665249     1.007825032230
         H           -2.910765769410    -1.617727927507     2.222823665249     1.007825032230
         H           -4.529956769410    -0.478514927507    -1.598183334751     1.007825032230
         H           -4.671524769410    -1.842122927507     0.478069665249     1.007825032230

  Basis Set: AUG-CC-PVTZ
    Blend: AUG-CC-PVTZ
  Basis Set: (AUG-CC-PVTZ AUX)
    Blend: AUG-CC-PVTZ-JKFIT
	 Reference Energy          =    -538.4935570327381811 [Eh]
	 Singles Energy            =      -0.0000000000000000 [Eh]
	 Same-Spin Energy          =      -0.6081320564491851 [Eh]
	 Opposite-Spin Energy      =      -1.9346863387558948 [Eh]
	 Correlation Energy        =      -2.5428183952050798 [Eh]
	 Total Energy              =    -541.0363754279433124 [Eh]

	 ================> DF-SCS-MP2 Energies <==================
	-----------------------------------------------------------
	 SCS Same-Spin Scale       =       0.3333333333333333 [-]
	 SCS Opposite-Spin Scale   =       1.2000000000000000 [-]
	 SCS Same-Spin Energy      =      -0.2027106854830617 [Eh]
	 SCS Opposite-Spin Energy  =      -2.3216236065070737 [Eh]
	 SCS Correlation Energy    =      -2.5243342919901353 [Eh]
	 SCS Total Energy          =    -541.0178913247283390 [Eh]
	-----------------------------------------------------------

  Dipole Moment: [D]
     X:     0.3679      Y:    -0.1356      Z:     0.0090     Total:     0.3922

*** Psi4 exiting successfully. Buy a developer a beer!
