                               Psi4 1.4a3.dev225

  ==> Input File <==

--------------------------------------------------------------------------
#psi4
#
memory 32 gb

molecule  {
0 1
  C       -0.5824800     1.6044310    -0.2213210
  C        0.7517090     0.8972820    -0.1584330
  C       -1.7393840     0.6486410    -0.0371650
  C        1.7237550     1.2518080     0.7820810
  C        1.0412590    -0.1412430    -1.0548500
  C        3.2457950    -0.4451680    -0.0684180
  C        2.9517370     0.5872480     0.8282550
  C        2.2676820    -0.7996710    -1.0091590
  C       -1.8674656    -0.1486659     1.1093872
  C       -2.7336970     0.5134260    -1.0120210
  C        4.5537390    -1.1898250     0.0022800
  C       -2.8866350    -1.0143110     1.3128170
  C       -3.7965280    -0.3760470    -0.8307700
  C       -3.8763200    -1.1410390     0.3331560
  H       -0.6887990     2.1194610    -1.1851540
  H       -0.6152960     2.3835930     0.5515720
  H        1.5214970     2.0586850     1.4854080
  H        0.2921320    -0.4400260    -1.7869590
  H        3.6942270     0.8828880     1.5683180
  H        2.4736480    -1.5998700    -1.7190670
  H       -1.0482340    -0.0434160     1.8839740
  H       -2.6776530     1.1110490    -1.9207770
  H        4.8944640    -1.4825890    -0.9952280
  H        5.3329890    -0.5734720     0.4595320
  H        4.4581780    -2.1030590     0.5999660
  H       -2.9412840    -1.6093450     2.2217140
  H       -4.5604750    -0.4701320    -1.5992930
  H       -4.7020430    -1.8337400     0.4769600
units angstrom
no_reorient  #important for SAPT in psi4, default
symmetry c1  #important for SAPT in psi4, default
}

set PROPERTIES_ORIGIN ["COM"]
properties('MP2/aug-cc-pvtz', properties = ['dipole'])
--------------------------------------------------------------------------

    Molecular point group: c1
  Charge       = 0
  Multiplicity = 1
  Basis Set: AUG-CC-PVTZ
    Blend: AUG-CC-PVTZ
  Basis Set: (AUG-CC-PVTZ AUX)
    Blend: AUG-CC-PVTZ-JKFIT

    Orbital Energies [Eh]
    ---------------------

    Doubly Occupied:

       1A    -11.240770     2A    -11.238517     3A    -11.237281
       4A    -11.236544     5A    -11.233918     6A    -11.231515
       7A    -11.231336     8A    -11.231070     9A    -11.230028
      10A    -11.229564    11A    -11.229232    12A    -11.228798
      13A    -11.228011    14A    -11.223049    15A     -1.162212
      16A     -1.147535    17A     -1.074372    18A     -1.024427
      19A     -1.013378    20A     -1.008279    21A     -0.957635
      22A     -0.896748    23A     -0.827438    24A     -0.820186
      25A     -0.805337    26A     -0.775321    27A     -0.692904
      28A     -0.668282    29A     -0.649041    30A     -0.634528
      31A     -0.627265    32A     -0.616646    33A     -0.580556
      34A     -0.578673    35A     -0.575915    36A     -0.569333
      37A     -0.560479    38A     -0.548774    39A     -0.528160
      40A     -0.505147    41A     -0.494198    42A     -0.485847
      43A     -0.478369    44A     -0.473492    45A     -0.469241
      46A     -0.339501    47A     -0.335284    48A     -0.328704
      49A     -0.307375

  @DF-RHF Final Energy:  -538.49111622642374

   => Energetics <=

    Nuclear Repulsion Energy =            786.3011858740429716
    One-Electron Energy =               -2287.9641743778261116
    Two-Electron Energy =                 963.1718722773595118
    Total Energy =                       -538.4911162264237419
  Basis Set: (AUG-CC-PVTZ AUX)
    Blend: AUG-CC-PVTZ-RI
    Molecular point group: c1

    Geometry (in Angstrom), charge = 0, multiplicity = 1:

       Center              X                  Y                   Z               Mass
    ------------   -----------------  -----------------  -----------------  -----------------
         C           -0.550158048522     1.597018426874    -0.219955651290    12.000000000000
         C            0.784030951478     0.889869426874    -0.157067651290    12.000000000000
         C           -1.707062048522     0.641228426874    -0.035799651290    12.000000000000
         C            1.756076951478     1.244395426874     0.783446348710    12.000000000000
         C            1.073580951478    -0.148655573126    -1.053484651290    12.000000000000
         C            3.278116951478    -0.452580573126    -0.067052651290    12.000000000000
         C            2.984058951478     0.579835426874     0.829620348710    12.000000000000
         C            2.300003951478    -0.807083573126    -1.007793651290    12.000000000000
         C           -1.835143648522    -0.156078473126     1.110752548710    12.000000000000
         C           -2.701375048522     0.506013426874    -1.010655651290    12.000000000000
         C            4.586060951478    -1.197237573126     0.003645348710    12.000000000000
         C           -2.854313048522    -1.021723573126     1.314182348710    12.000000000000
         C           -3.764206048522    -0.383459573126    -0.829404651290    12.000000000000
         C           -3.843998048522    -1.148451573126     0.334521348710    12.000000000000
         H           -0.656477048522     2.112048426874    -1.183788651290     1.007825032230
         H           -0.582974048522     2.376180426874     0.552937348710     1.007825032230
         H            1.553818951478     2.051272426874     1.486773348710     1.007825032230
         H            0.324453951478    -0.447438573126    -1.785593651290     1.007825032230
         H            3.726548951478     0.875475426874     1.569683348710     1.007825032230
         H            2.505969951478    -1.607282573126    -1.717701651290     1.007825032230
         H           -1.015912048522    -0.050828573126     1.885339348710     1.007825032230
         H           -2.645331048522     1.103636426874    -1.919411651290     1.007825032230
         H            4.926785951478    -1.490001573126    -0.993862651290     1.007825032230
         H            5.365310951478    -0.580884573126     0.460897348710     1.007825032230
         H            4.490499951478    -2.110471573126     0.601331348710     1.007825032230
         H           -2.908962048522    -1.616757573126     2.223079348710     1.007825032230
         H           -4.528153048522    -0.477544573126    -1.597927651290     1.007825032230
         H           -4.669721048522    -1.841152573126     0.478325348710     1.007825032230

  Basis Set: AUG-CC-PVTZ
    Blend: AUG-CC-PVTZ
  Basis Set: (AUG-CC-PVTZ AUX)
    Blend: AUG-CC-PVTZ-JKFIT
	 Reference Energy          =    -538.4911162264237419 [Eh]
	 Singles Energy            =      -0.0000000000000000 [Eh]
	 Same-Spin Energy          =      -0.6081939284625366 [Eh]
	 Opposite-Spin Energy      =      -1.9346093408994047 [Eh]
	 Correlation Energy        =      -2.5428032693619413 [Eh]
	 Total Energy              =    -541.0339194957856535 [Eh]

	 ================> DF-SCS-MP2 Energies <==================
	-----------------------------------------------------------
	 SCS Same-Spin Scale       =       0.3333333333333333 [-]
	 SCS Opposite-Spin Scale   =       1.2000000000000000 [-]
	 SCS Same-Spin Energy      =      -0.2027313094875122 [Eh]
	 SCS Opposite-Spin Energy  =      -2.3215312090792857 [Eh]
	 SCS Correlation Energy    =      -2.5242625185667977 [Eh]
	 SCS Total Energy          =    -541.0153787449905849 [Eh]
	-----------------------------------------------------------

  Dipole Moment: [D]
     X:     0.3762      Y:    -0.1215      Z:    -0.0020     Total:     0.3953

*** Psi4 exiting successfully. Buy a developer a beer!
