                               Psi4 1.4a3.dev225

  ==> Input File <==

--------------------------------------------------------------------------
#psi4
#
memory 32 gb

molecule  {
0 1
  C       -0.5824800     1.6044310    -0.2213210
  C        0.7517090     0.8972820    -0.1584330
  C       -1.7393840     0.6486410    -0.0371650
  C        1.7237550     1.2518080     0.7820810
  C        1.0412590    -0.1412430    -1.0548500
  C        3.2457950    -0.4451680    -0.0684180
  C        2.9517370     0.5872480     0.8282550
  C        2.2676820    -0.7996710    -1.0091590
  C       -1.8261890    -0.1288690     1.1267200
  C       -2.7336970     0.5134260    -1.0120210
  C        4.5537390    -1.1898250     0.0022800
  C       -2.8866350    -1.0143110     1.3128170
  C       -3.7965280    -0.3760470    -0.8307700
  C       -3.8763200    -1.1410390     0.3331560
  H       -0.6887990     2.1194610    -1.1851540
  H       -0.6152960     2.3835930     0.5515720
  H        1.5214970     2.0586850     1.4854080
  H        0.2921320    -0.4400260    -1.7869590
  H        3.6942270     0.8828880     1.5683180
  H        2.4736480    -1.5998700    -1.7190670
  H       -1.0482340    -0.0434160     1.8839740
  H       -2.6776530     1.1110490    -1.9207770
  H        4.8944640    -1.4825890    -0.9952280
  H        5.3329890    -0.5734720     0.4595320
  H        4.4538169    -2.1447360     0.6272425
  H       -2.9412840    -1.6093450     2.2217140
  H       -4.5604750    -0.4701320    -1.5992930
  H       -4.7020430    -1.8337400     0.4769600
units angstrom
no_reorient  #important for SAPT in psi4, default
symmetry c1  #important for SAPT in psi4, default
}

set PROPERTIES_ORIGIN ["COM"]
properties('MP2/aug-cc-pvtz', properties = ['dipole'])
--------------------------------------------------------------------------

    Molecular point group: c1
  Charge       = 0
  Multiplicity = 1
  Basis Set: AUG-CC-PVTZ
    Blend: AUG-CC-PVTZ
  Basis Set: (AUG-CC-PVTZ AUX)
    Blend: AUG-CC-PVTZ-JKFIT

    Orbital Energies [Eh]
    ---------------------

    Doubly Occupied:

       1A    -11.241163     2A    -11.238742     3A    -11.237185
       4A    -11.235426     5A    -11.235093     6A    -11.234604
       7A    -11.231591     8A    -11.231370     9A    -11.231334
      10A    -11.230105    11A    -11.229508    12A    -11.229438
      13A    -11.228923    14A    -11.228865    15A     -1.160784
      16A     -1.145351    17A     -1.073659    18A     -1.023464
      19A     -1.010238    20A     -1.008326    21A     -0.955796
      22A     -0.894593    23A     -0.828264    24A     -0.822945
      25A     -0.802736    26A     -0.774479    27A     -0.693438
      28A     -0.667553    29A     -0.648603    30A     -0.635173
      31A     -0.628639    32A     -0.617809    33A     -0.582824
      34A     -0.578906    35A     -0.572447    36A     -0.564264
      37A     -0.559762    38A     -0.548667    39A     -0.528315
      40A     -0.502418    41A     -0.491485    42A     -0.490323
      43A     -0.477807    44A     -0.473521    45A     -0.470639
      46A     -0.337189    47A     -0.333799    48A     -0.329309
      49A     -0.307239

  @DF-RHF Final Energy:  -538.49177837752359

   => Energetics <=

    Nuclear Repulsion Energy =            785.7564158323442598
    One-Electron Energy =               -2286.8881709510760629
    Two-Electron Energy =                 962.6399767412081019
    Total Energy =                       -538.4917783775235876
  Basis Set: (AUG-CC-PVTZ AUX)
    Blend: AUG-CC-PVTZ-RI
    Molecular point group: c1

    Geometry (in Angstrom), charge = 0, multiplicity = 1:

       Center              X                  Y                   Z               Mass
    ------------   -----------------  -----------------  -----------------  -----------------
         C           -0.552853810348     1.595944569541    -0.221248738550    12.000000000000
         C            0.781335189652     0.888795569541    -0.158360738550    12.000000000000
         C           -1.709757810348     0.640154569541    -0.037092738550    12.000000000000
         C            1.753381189652     1.243321569541     0.782153261450    12.000000000000
         C            1.070885189652    -0.149729430459    -1.054777738550    12.000000000000
         C            3.275421189652    -0.453654430459    -0.068345738550    12.000000000000
         C            2.981363189652     0.578761569541     0.828327261450    12.000000000000
         C            2.297308189652    -0.808157430459    -1.009086738550    12.000000000000
         C           -1.796562810348    -0.137355430459     1.126792261450    12.000000000000
         C           -2.704070810348     0.504939569541    -1.011948738550    12.000000000000
         C            4.583365189652    -1.198311430459     0.002352261450    12.000000000000
         C           -2.857008810348    -1.022797430459     1.312889261450    12.000000000000
         C           -3.766901810348    -0.384533430459    -0.830697738550    12.000000000000
         C           -3.846693810348    -1.149525430459     0.333228261450    12.000000000000
         H           -0.659172810348     2.110974569541    -1.185081738550     1.007825032230
         H           -0.585669810348     2.375106569541     0.551644261450     1.007825032230
         H            1.551123189652     2.050198569541     1.485480261450     1.007825032230
         H            0.321758189652    -0.448512430459    -1.786886738550     1.007825032230
         H            3.723853189652     0.874401569541     1.568390261450     1.007825032230
         H            2.503274189652    -1.608356430459    -1.718994738550     1.007825032230
         H           -1.018607810348    -0.051902430459     1.884046261450     1.007825032230
         H           -2.648026810348     1.102562569541    -1.920704738550     1.007825032230
         H            4.924090189652    -1.491075430459    -0.995155738550     1.007825032230
         H            5.362615189652    -0.581958430459     0.459604261450     1.007825032230
         H            4.483443089652    -2.153222430459     0.627314761450     1.007825032230
         H           -2.911657810348    -1.617831430459     2.221786261450     1.007825032230
         H           -4.530848810348    -0.478618430459    -1.599220738550     1.007825032230
         H           -4.672416810348    -1.842226430459     0.477032261450     1.007825032230

  Basis Set: AUG-CC-PVTZ
    Blend: AUG-CC-PVTZ
  Basis Set: (AUG-CC-PVTZ AUX)
    Blend: AUG-CC-PVTZ-JKFIT
	 Reference Energy          =    -538.4917783775235876 [Eh]
	 Singles Energy            =      -0.0000000000000000 [Eh]
	 Same-Spin Energy          =      -0.6081853227584796 [Eh]
	 Opposite-Spin Energy      =      -1.9350556610203768 [Eh]
	 Correlation Energy        =      -2.5432409837788565 [Eh]
	 Total Energy              =    -541.0350193613024885 [Eh]

	 ================> DF-SCS-MP2 Energies <==================
	-----------------------------------------------------------
	 SCS Same-Spin Scale       =       0.3333333333333333 [-]
	 SCS Opposite-Spin Scale   =       1.2000000000000000 [-]
	 SCS Same-Spin Energy      =      -0.2027284409194932 [Eh]
	 SCS Opposite-Spin Energy  =      -2.3220667932244523 [Eh]
	 SCS Correlation Energy    =      -2.5247952341439457 [Eh]
	 SCS Total Energy          =    -541.0165736116675816 [Eh]
	-----------------------------------------------------------

  Dipole Moment: [D]
     X:     0.3462      Y:    -0.1041      Z:    -0.0016     Total:     0.3615

*** Psi4 exiting successfully. Buy a developer a beer!
