                               Psi4 1.4a3.dev225

  ==> Input File <==

--------------------------------------------------------------------------
#psi4
#
memory 32 gb

molecule  {
0 1
  C       -0.5824800     1.6044310    -0.2213210
  C        0.7517090     0.8972820    -0.1584330
  C       -1.8924226     0.5222063    -0.0128043
  C        1.7237550     1.2518080     0.7820810
  C        1.0412590    -0.1412430    -1.0548500
  C        3.2457950    -0.4451680    -0.0684180
  C        2.9517370     0.5872480     0.8282550
  C        2.2676820    -0.7996710    -1.0091590
  C       -1.8261890    -0.1288690     1.1267200
  C       -2.7336970     0.5134260    -1.0120210
  C        4.5537390    -1.1898250     0.0022800
  C       -2.8866350    -1.0143110     1.3128170
  C       -3.7965280    -0.3760470    -0.8307700
  C       -3.8763200    -1.1410390     0.3331560
  H       -0.6887990     2.1194610    -1.1851540
  H       -0.6152960     2.3835930     0.5515720
  H        1.5214970     2.0586850     1.4854080
  H        0.2921320    -0.4400260    -1.7869590
  H        3.6942270     0.8828880     1.5683180
  H        2.4736480    -1.5998700    -1.7190670
  H       -1.0482340    -0.0434160     1.8839740
  H       -2.6776530     1.1110490    -1.9207770
  H        4.8944640    -1.4825890    -0.9952280
  H        5.3329890    -0.5734720     0.4595320
  H        4.4581780    -2.1030590     0.5999660
  H       -2.9412840    -1.6093450     2.2217140
  H       -4.5604750    -0.4701320    -1.5992930
  H       -4.7020430    -1.8337400     0.4769600
units angstrom
no_reorient  #important for SAPT in psi4, default
symmetry c1  #important for SAPT in psi4, default
}

set PROPERTIES_ORIGIN ["COM"]
properties('MP2/aug-cc-pvtz', properties = ['dipole'])
--------------------------------------------------------------------------

    Molecular point group: c1
  Charge       = 0
  Multiplicity = 1
  Basis Set: AUG-CC-PVTZ
    Blend: AUG-CC-PVTZ
  Basis Set: (AUG-CC-PVTZ AUX)
    Blend: AUG-CC-PVTZ-JKFIT

    Orbital Energies [Eh]
    ---------------------

    Doubly Occupied:

       1A    -11.237089     2A    -11.236698     3A    -11.236145
       4A    -11.235099     5A    -11.233457     6A    -11.232563
       7A    -11.230180     8A    -11.228546     9A    -11.227708
      10A    -11.227073    11A    -11.226273    12A    -11.223474
      13A    -11.222345    14A    -11.221600    15A     -1.174198
      16A     -1.149223    17A     -1.061919    18A     -1.026119
      19A     -1.020777    20A     -1.005916    21A     -0.956572
      22A     -0.884449    23A     -0.837708    24A     -0.823463
      25A     -0.803057    26A     -0.773732    27A     -0.700239
      28A     -0.662463    29A     -0.644154    30A     -0.637299
      31A     -0.626478    32A     -0.622370    33A     -0.597866
      34A     -0.576550    35A     -0.572834    36A     -0.557781
      37A     -0.553480    38A     -0.545489    39A     -0.525348
      40A     -0.511369    41A     -0.509531    42A     -0.486847
      43A     -0.476815    44A     -0.474379    45A     -0.426321
      46A     -0.343142    47A     -0.340328    48A     -0.330379
      49A     -0.306572

  @DF-RHF Final Energy:  -538.45449943852145

   => Energetics <=

    Nuclear Repulsion Energy =            786.5859028358842124
    One-Electron Energy =               -2288.5539718108025227
    Two-Electron Energy =                 963.5135695363969717
    Total Energy =                       -538.4544994385214522
  Basis Set: (AUG-CC-PVTZ AUX)
    Blend: AUG-CC-PVTZ-RI
    Molecular point group: c1

    Geometry (in Angstrom), charge = 0, multiplicity = 1:

       Center              X                  Y                   Z               Mass
    ------------   -----------------  -----------------  -----------------  -----------------
         C           -0.542793558320     1.604045260979    -0.222703019557    12.000000000000
         C            0.791395441680     0.896896260979    -0.159815019557    12.000000000000
         C           -1.852736158320     0.521820560979    -0.014186319557    12.000000000000
         C            1.763441441680     1.251422260979     0.780698980443    12.000000000000
         C            1.080945441680    -0.141628739021    -1.056232019557    12.000000000000
         C            3.285481441680    -0.445553739021    -0.069800019557    12.000000000000
         C            2.991423441680     0.586862260979     0.826872980443    12.000000000000
         C            2.307368441680    -0.800056739021    -1.010541019557    12.000000000000
         C           -1.786502558320    -0.129254739021     1.125337980443    12.000000000000
         C           -2.694010558320     0.513040260979    -1.013403019557    12.000000000000
         C            4.593425441680    -1.190210739021     0.000897980443    12.000000000000
         C           -2.846948558320    -1.014696739021     1.311434980443    12.000000000000
         C           -3.756841558320    -0.376432739021    -0.832152019557    12.000000000000
         C           -3.836633558320    -1.141424739021     0.331773980443    12.000000000000
         H           -0.649112558320     2.119075260979    -1.186536019557     1.007825032230
         H           -0.575609558320     2.383207260979     0.550189980443     1.007825032230
         H            1.561183441680     2.058299260979     1.484025980443     1.007825032230
         H            0.331818441680    -0.440411739021    -1.788341019557     1.007825032230
         H            3.733913441680     0.882502260979     1.566935980443     1.007825032230
         H            2.513334441680    -1.600255739021    -1.720449019557     1.007825032230
         H           -1.008547558320    -0.043801739021     1.882591980443     1.007825032230
         H           -2.637966558320     1.110663260979    -1.922159019557     1.007825032230
         H            4.934150441680    -1.482974739021    -0.996610019557     1.007825032230
         H            5.372675441680    -0.573857739021     0.458149980443     1.007825032230
         H            4.497864441680    -2.103444739021     0.598583980443     1.007825032230
         H           -2.901597558320    -1.609730739021     2.220331980443     1.007825032230
         H           -4.520788558320    -0.470517739021    -1.600675019557     1.007825032230
         H           -4.662356558320    -1.834125739021     0.475577980443     1.007825032230

  Basis Set: AUG-CC-PVTZ
    Blend: AUG-CC-PVTZ
  Basis Set: (AUG-CC-PVTZ AUX)
    Blend: AUG-CC-PVTZ-JKFIT
	 Reference Energy          =    -538.4544994385214522 [Eh]
	 Singles Energy            =      -0.0000000000000000 [Eh]
	 Same-Spin Energy          =      -0.6084535634263293 [Eh]
	 Opposite-Spin Energy      =      -1.9351897456482023 [Eh]
	 Correlation Energy        =      -2.5436433090745316 [Eh]
	 Total Energy              =    -540.9981427475960345 [Eh]

	 ================> DF-SCS-MP2 Energies <==================
	-----------------------------------------------------------
	 SCS Same-Spin Scale       =       0.3333333333333333 [-]
	 SCS Opposite-Spin Scale   =       1.2000000000000000 [-]
	 SCS Same-Spin Energy      =      -0.2028178544754431 [Eh]
	 SCS Opposite-Spin Energy  =      -2.3222276947778426 [Eh]
	 SCS Correlation Energy    =      -2.5250455492532855 [Eh]
	 SCS Total Energy          =    -540.9795449877747160 [Eh]
	-----------------------------------------------------------

  Dipole Moment: [D]
     X:     0.0388      Y:    -0.2491      Z:     0.0208     Total:     0.2530

*** Psi4 exiting successfully. Buy a developer a beer!
