                               Psi4 1.4a3.dev225

  ==> Input File <==

--------------------------------------------------------------------------
#psi4
#
memory 32 gb

molecule  {
0 1
  C       -0.5824800     1.6044310    -0.2213210
  C        0.7517090     0.8972820    -0.1584330
  C       -1.7393840     0.6486410    -0.0371650
  C        1.7237550     1.2518080     0.7820810
  C        1.0412590    -0.1412430    -1.0548500
  C        3.2457950    -0.4451680    -0.0684180
  C        2.9517370     0.5872480     0.8282550
  C        2.2676820    -0.7996710    -1.0091590
  C       -1.8261890    -0.1288690     1.1267200
  C       -2.7336970     0.5134260    -1.0120210
  C        4.5537390    -1.1898250     0.0022800
  C       -2.8866350    -1.0143110     1.3128170
  C       -3.7965280    -0.3760470    -0.8307700
  C       -3.8763200    -1.1410390     0.3331560
  H       -0.6887990     2.1194610    -1.1851540
  H       -0.6152960     2.3835930     0.5515720
  H        1.5214970     2.0586850     1.4854080
  H        0.2921320    -0.4400260    -1.7869590
  H        3.6942270     0.8828880     1.5683180
  H        2.4736480    -1.5998700    -1.7190670
  H       -1.0482340    -0.0434160     1.8839740
  H       -2.6776530     1.1110490    -1.9207770
  H        4.8944640    -1.4825890    -0.9952280
  H        5.3329890    -0.5734720     0.4595320
  H        4.4407336    -2.2697672     0.7090718
  H       -2.9412840    -1.6093450     2.2217140
  H       -4.5604750    -0.4701320    -1.5992930
  H       -4.7020430    -1.8337400     0.4769600
units angstrom
no_reorient  #important for SAPT in psi4, default
symmetry c1  #important for SAPT in psi4, default
}

set PROPERTIES_ORIGIN ["COM"]
properties('MP2/aug-cc-pvtz', properties = ['dipole'])
--------------------------------------------------------------------------

    Molecular point group: c1
  Charge       = 0
  Multiplicity = 1
  Basis Set: AUG-CC-PVTZ
    Blend: AUG-CC-PVTZ
  Basis Set: (AUG-CC-PVTZ AUX)
    Blend: AUG-CC-PVTZ-JKFIT

    Orbital Energies [Eh]
    ---------------------

    Doubly Occupied:

       1A    -11.245525     2A    -11.241543     3A    -11.240038
       4A    -11.238282     5A    -11.236034     6A    -11.235375
       7A    -11.234877     8A    -11.232151     9A    -11.231919
      10A    -11.231627    11A    -11.231048    12A    -11.230620
      13A    -11.229836    14A    -11.229700    15A     -1.161401
      16A     -1.145862    17A     -1.073788    18A     -1.022791
      19A     -1.010541    20A     -1.009168    21A     -0.953177
      22A     -0.891130    23A     -0.828992    24A     -0.823385
      25A     -0.802501    26A     -0.774569    27A     -0.693746
      28A     -0.667462    29A     -0.649573    30A     -0.635525
      31A     -0.629275    32A     -0.618392    33A     -0.583099
      34A     -0.579720    35A     -0.572205    36A     -0.561841
      37A     -0.550934    38A     -0.541178    39A     -0.529089
      40A     -0.500162    41A     -0.491903    42A     -0.490635
      43A     -0.478617    44A     -0.474074    45A     -0.466407
      46A     -0.337624    47A     -0.334188    48A     -0.329491
      49A     -0.307120

  @DF-RHF Final Energy:  -538.47421509558319

   => Energetics <=

    Nuclear Repulsion Energy =            785.1944370391141774
    One-Electron Energy =               -2285.7210302565154052
    Two-Electron Energy =                 962.0523781218179238
    Total Energy =                       -538.4742150955831903
  Basis Set: (AUG-CC-PVTZ AUX)
    Blend: AUG-CC-PVTZ-RI
    Molecular point group: c1

    Geometry (in Angstrom), charge = 0, multiplicity = 1:

       Center              X                  Y                   Z               Mass
    ------------   -----------------  -----------------  -----------------  -----------------
         C           -0.552781405155     1.596636513334    -0.221701595727    12.000000000000
         C            0.781407594845     0.889487513334    -0.158813595727    12.000000000000
         C           -1.709685405155     0.640846513334    -0.037545595727    12.000000000000
         C            1.753453594845     1.244013513334     0.781700404273    12.000000000000
         C            1.070957594845    -0.149037486666    -1.055230595727    12.000000000000
         C            3.275493594845    -0.452962486666    -0.068798595727    12.000000000000
         C            2.981435594845     0.579453513334     0.827874404273    12.000000000000
         C            2.297380594845    -0.807465486666    -1.009539595727    12.000000000000
         C           -1.796490405155    -0.136663486666     1.126339404273    12.000000000000
         C           -2.703998405155     0.505631513334    -1.012401595727    12.000000000000
         C            4.583437594845    -1.197619486666     0.001899404273    12.000000000000
         C           -2.856936405155    -1.022105486666     1.312436404273    12.000000000000
         C           -3.766829405155    -0.383841486666    -0.831150595727    12.000000000000
         C           -3.846621405155    -1.148833486666     0.332775404273    12.000000000000
         H           -0.659100405155     2.111666513334    -1.185534595727     1.007825032230
         H           -0.585597405155     2.375798513334     0.551191404273     1.007825032230
         H            1.551195594845     2.050890513334     1.485027404273     1.007825032230
         H            0.321830594845    -0.447820486666    -1.787339595727     1.007825032230
         H            3.723925594845     0.875093513334     1.567937404273     1.007825032230
         H            2.503346594845    -1.607664486666    -1.719447595727     1.007825032230
         H           -1.018535405155    -0.051210486666     1.883593404273     1.007825032230
         H           -2.647954405155     1.103254513334    -1.921157595727     1.007825032230
         H            4.924162594845    -1.490383486666    -0.995608595727     1.007825032230
         H            5.362687594845    -0.581266486666     0.459151404273     1.007825032230
         H            4.470432194845    -2.277561686666     0.708691204273     1.007825032230
         H           -2.911585405155    -1.617139486666     2.221333404273     1.007825032230
         H           -4.530776405155    -0.477926486666    -1.599673595727     1.007825032230
         H           -4.672344405155    -1.841534486666     0.476579404273     1.007825032230

  Basis Set: AUG-CC-PVTZ
    Blend: AUG-CC-PVTZ
  Basis Set: (AUG-CC-PVTZ AUX)
    Blend: AUG-CC-PVTZ-JKFIT
	 Reference Energy          =    -538.4742150955831903 [Eh]
	 Singles Energy            =      -0.0000000000000000 [Eh]
	 Same-Spin Energy          =      -0.6081561137287524 [Eh]
	 Opposite-Spin Energy      =      -1.9362170724003649 [Eh]
	 Correlation Energy        =      -2.5443731861291172 [Eh]
	 Total Energy              =    -541.0185882817122547 [Eh]

	 ================> DF-SCS-MP2 Energies <==================
	-----------------------------------------------------------
	 SCS Same-Spin Scale       =       0.3333333333333333 [-]
	 SCS Opposite-Spin Scale   =       1.2000000000000000 [-]
	 SCS Same-Spin Energy      =      -0.2027187045762508 [Eh]
	 SCS Opposite-Spin Energy  =      -2.3234604868804376 [Eh]
	 SCS Correlation Energy    =      -2.5261791914566882 [Eh]
	 SCS Total Energy          =    -541.0003942870398532 [Eh]
	-----------------------------------------------------------

  Dipole Moment: [D]
     X:     0.2760      Y:     0.0008      Z:    -0.0495     Total:     0.2805

*** Psi4 exiting successfully. Buy a developer a beer!
