                               Psi4 1.4a3.dev225

  ==> Input File <==

--------------------------------------------------------------------------
#psi4
#
memory 32 gb

molecule  {
0 1
  C       -0.5824800     1.6044310    -0.2213210
  C        0.7517090     0.8972820    -0.1584330
  C       -1.7393840     0.6486410    -0.0371650
  C        1.7237550     1.2518080     0.7820810
  C        1.0412590    -0.1412430    -1.0548500
  C        3.2457950    -0.4451680    -0.0684180
  C        2.9517370     0.5872480     0.8282550
  C        2.2676820    -0.7996710    -1.0091590
  C       -1.8261890    -0.1288690     1.1267200
  C       -2.6626254     0.5230909    -0.9423402
  C        4.5537390    -1.1898250     0.0022800
  C       -2.8866350    -1.0143110     1.3128170
  C       -3.7965280    -0.3760470    -0.8307700
  C       -3.8763200    -1.1410390     0.3331560
  H       -0.6887990     2.1194610    -1.1851540
  H       -0.6152960     2.3835930     0.5515720
  H        1.5214970     2.0586850     1.4854080
  H        0.2921320    -0.4400260    -1.7869590
  H        3.6942270     0.8828880     1.5683180
  H        2.4736480    -1.5998700    -1.7190670
  H       -1.0482340    -0.0434160     1.8839740
  H       -2.6776530     1.1110490    -1.9207770
  H        4.8944640    -1.4825890    -0.9952280
  H        5.3329890    -0.5734720     0.4595320
  H        4.4581780    -2.1030590     0.5999660
  H       -2.9412840    -1.6093450     2.2217140
  H       -4.5604750    -0.4701320    -1.5992930
  H       -4.7020430    -1.8337400     0.4769600
units angstrom
no_reorient  #important for SAPT in psi4, default
symmetry c1  #important for SAPT in psi4, default
}

set PROPERTIES_ORIGIN ["COM"]
properties('MP2/aug-cc-pvtz', properties = ['dipole'])
--------------------------------------------------------------------------

    Molecular point group: c1
  Charge       = 0
  Multiplicity = 1
  Basis Set: AUG-CC-PVTZ
    Blend: AUG-CC-PVTZ
  Basis Set: (AUG-CC-PVTZ AUX)
    Blend: AUG-CC-PVTZ-JKFIT

    Orbital Energies [Eh]
    ---------------------

    Doubly Occupied:

       1A    -11.239535     2A    -11.238359     3A    -11.236530
       4A    -11.234240     5A    -11.233868     6A    -11.231967
       7A    -11.231089     8A    -11.231007     9A    -11.229887
      10A    -11.229852    11A    -11.229101    12A    -11.228624
      13A    -11.227495    14A    -11.222955    15A     -1.165778
      16A     -1.148110    17A     -1.074219    18A     -1.030903
      19A     -1.008161    20A     -1.002450    21A     -0.960487
      22A     -0.895576    23A     -0.832499    24A     -0.824913
      25A     -0.798744    26A     -0.775678    27A     -0.691962
      28A     -0.667057    29A     -0.648222    30A     -0.633477
      31A     -0.628114    32A     -0.622616    33A     -0.578977
      34A     -0.578236    35A     -0.573589    36A     -0.571305
      37A     -0.560339    38A     -0.546284    39A     -0.527967
      40A     -0.504683    41A     -0.496409    42A     -0.485226
      43A     -0.477757    44A     -0.475499    45A     -0.463149
      46A     -0.344299    47A     -0.333377    48A     -0.327695
      49A     -0.308754

  @DF-RHF Final Energy:  -538.48093725245610

   => Energetics <=

    Nuclear Repulsion Energy =            787.5658393111417581
    One-Electron Energy =               -2290.4795094385085577
    Two-Electron Energy =                 964.4327328749108119
    Total Energy =                       -538.4809372524561013
  Basis Set: (AUG-CC-PVTZ AUX)
    Blend: AUG-CC-PVTZ-RI
    Molecular point group: c1

    Geometry (in Angstrom), charge = 0, multiplicity = 1:

       Center              X                  Y                   Z               Mass
    ------------   -----------------  -----------------  -----------------  -----------------
         C           -0.557561166023     1.595077059169    -0.225689360464    12.000000000000
         C            0.776627833977     0.887928059169    -0.162801360464    12.000000000000
         C           -1.714465166023     0.639287059169    -0.041533360464    12.000000000000
         C            1.748673833977     1.242454059169     0.777712639536    12.000000000000
         C            1.066177833977    -0.150596940831    -1.059218360464    12.000000000000
         C            3.270713833977    -0.454521940831    -0.072786360464    12.000000000000
         C            2.976655833977     0.577894059169     0.823886639536    12.000000000000
         C            2.292600833977    -0.809024940831    -1.013527360464    12.000000000000
         C           -1.801270166023    -0.138222940831     1.122351639536    12.000000000000
         C           -2.637706566023     0.513736959169    -0.946708560464    12.000000000000
         C            4.578657833977    -1.199178940831    -0.002088360464    12.000000000000
         C           -2.861716166023    -1.023664940831     1.308448639536    12.000000000000
         C           -3.771609166023    -0.385400940831    -0.835138360464    12.000000000000
         C           -3.851401166023    -1.150392940831     0.328787639536    12.000000000000
         H           -0.663880166023     2.110107059169    -1.189522360464     1.007825032230
         H           -0.590377166023     2.374239059169     0.547203639536     1.007825032230
         H            1.546415833977     2.049331059169     1.481039639536     1.007825032230
         H            0.317050833977    -0.449379940831    -1.791327360464     1.007825032230
         H            3.719145833977     0.873534059169     1.563949639536     1.007825032230
         H            2.498566833977    -1.609223940831    -1.723435360464     1.007825032230
         H           -1.023315166023    -0.052769940831     1.879605639536     1.007825032230
         H           -2.652734166023     1.101695059169    -1.925145360464     1.007825032230
         H            4.919382833977    -1.491942940831    -0.999596360464     1.007825032230
         H            5.357907833977    -0.582825940831     0.455163639536     1.007825032230
         H            4.483096833977    -2.112412940831     0.595597639536     1.007825032230
         H           -2.916365166023    -1.618698940831     2.217345639536     1.007825032230
         H           -4.535556166023    -0.479485940831    -1.603661360464     1.007825032230
         H           -4.677124166023    -1.843093940831     0.472591639536     1.007825032230

  Basis Set: AUG-CC-PVTZ
    Blend: AUG-CC-PVTZ
  Basis Set: (AUG-CC-PVTZ AUX)
    Blend: AUG-CC-PVTZ-JKFIT
	 Reference Energy          =    -538.4809372524561013 [Eh]
	 Singles Energy            =      -0.0000000000000000 [Eh]
	 Same-Spin Energy          =      -0.6078723905898851 [Eh]
	 Opposite-Spin Energy      =      -1.9350460460307222 [Eh]
	 Correlation Energy        =      -2.5429184366206075 [Eh]
	 Total Energy              =    -541.0238556890767541 [Eh]

	 ================> DF-SCS-MP2 Energies <==================
	-----------------------------------------------------------
	 SCS Same-Spin Scale       =       0.3333333333333333 [-]
	 SCS Opposite-Spin Scale   =       1.2000000000000000 [-]
	 SCS Same-Spin Energy      =      -0.2026241301966283 [Eh]
	 SCS Opposite-Spin Energy  =      -2.3220552552368665 [Eh]
	 SCS Correlation Energy    =      -2.5246793854334948 [Eh]
	 SCS Total Energy          =    -541.0056166378896023 [Eh]
	-----------------------------------------------------------

  Dipole Moment: [D]
     X:     0.3297      Y:    -0.1720      Z:     0.0294     Total:     0.3730

*** Psi4 exiting successfully. Buy a developer a beer!
