                               Psi4 1.4a3.dev225

  ==> Input File <==

--------------------------------------------------------------------------
#psi4
#
memory 32 gb

molecule  {
0 1
  C       -0.5824800     1.6044310    -0.2213210
  C        0.7517090     0.8972820    -0.1584330
  C       -1.7393840     0.6486410    -0.0371650
  C        1.7237550     1.2518080     0.7820810
  C        1.0412590    -0.1412430    -1.0548500
  C        3.2457950    -0.4451680    -0.0684180
  C        2.9517370     0.5872480     0.8282550
  C        2.2676820    -0.7996710    -1.0091590
  C       -1.8261890    -0.1288690     1.1267200
  C       -2.7336970     0.5134260    -1.0120210
  C        4.5537390    -1.1898250     0.0022800
  C       -2.8866350    -1.0143110     1.3128170
  C       -3.7965280    -0.3760470    -0.8307700
  C       -3.8985052    -1.1743488     0.3610929
  H       -0.6887990     2.1194610    -1.1851540
  H       -0.6152960     2.3835930     0.5515720
  H        1.5214970     2.0586850     1.4854080
  H        0.2921320    -0.4400260    -1.7869590
  H        3.6942270     0.8828880     1.5683180
  H        2.4736480    -1.5998700    -1.7190670
  H       -1.0482340    -0.0434160     1.8839740
  H       -2.6776530     1.1110490    -1.9207770
  H        4.8944640    -1.4825890    -0.9952280
  H        5.3329890    -0.5734720     0.4595320
  H        4.4581780    -2.1030590     0.5999660
  H       -2.9412840    -1.6093450     2.2217140
  H       -4.5604750    -0.4701320    -1.5992930
  H       -4.7020430    -1.8337400     0.4769600
units angstrom
no_reorient  #important for SAPT in psi4, default
symmetry c1  #important for SAPT in psi4, default
}

set PROPERTIES_ORIGIN ["COM"]
properties('MP2/aug-cc-pvtz', properties = ['dipole'])
--------------------------------------------------------------------------

    Molecular point group: c1
  Charge       = 0
  Multiplicity = 1
  Basis Set: AUG-CC-PVTZ
    Blend: AUG-CC-PVTZ
  Basis Set: (AUG-CC-PVTZ AUX)
    Blend: AUG-CC-PVTZ-JKFIT

    Orbital Energies [Eh]
    ---------------------

    Doubly Occupied:

       1A    -11.242095     2A    -11.239895     3A    -11.238463
       4A    -11.237153     5A    -11.235597     6A    -11.235176
       7A    -11.232539     8A    -11.231705     9A    -11.231305
      10A    -11.230007    11A    -11.229276    12A    -11.229243
      13A    -11.228778    14A    -11.223030    15A     -1.159796
      16A     -1.143056    17A     -1.072832    18A     -1.023745
      19A     -1.008327    20A     -1.007749    21A     -0.957650
      22A     -0.897153    23A     -0.827953    24A     -0.820489
      25A     -0.805066    26A     -0.775098    27A     -0.695655
      28A     -0.668644    29A     -0.648557    30A     -0.636441
      31A     -0.628653    32A     -0.616499    33A     -0.580053
      34A     -0.578558    35A     -0.576762    36A     -0.572102
      37A     -0.560034    38A     -0.548570    39A     -0.529117
      40A     -0.505863    41A     -0.490742    42A     -0.486204
      43A     -0.476664    44A     -0.473376    45A     -0.471542
      46A     -0.335595    47A     -0.334900    48A     -0.328300
      49A     -0.306178

  @DF-RHF Final Energy:  -538.49023269143436

   => Energetics <=

    Nuclear Repulsion Energy =            785.1431995055447715
    One-Electron Energy =               -2285.6425032134234243
    Two-Electron Energy =                 962.0090710164442953
    Total Energy =                       -538.4902326914343575
  Basis Set: (AUG-CC-PVTZ AUX)
    Blend: AUG-CC-PVTZ-RI
    Molecular point group: c1

    Geometry (in Angstrom), charge = 0, multiplicity = 1:

       Center              X                  Y                   Z               Mass
    ------------   -----------------  -----------------  -----------------  -----------------
         C           -0.551416064916     1.597908851344    -0.222938671119    12.000000000000
         C            0.782772935084     0.890759851344    -0.160050671119    12.000000000000
         C           -1.708320064916     0.642118851344    -0.038782671119    12.000000000000
         C            1.754818935084     1.245285851344     0.780463328881    12.000000000000
         C            1.072322935084    -0.147765148656    -1.056467671119    12.000000000000
         C            3.276858935084    -0.451690148656    -0.070035671119    12.000000000000
         C            2.982800935084     0.580725851344     0.826637328881    12.000000000000
         C            2.298745935084    -0.806193148656    -1.010776671119    12.000000000000
         C           -1.795125064916    -0.135391148656     1.125102328881    12.000000000000
         C           -2.702633064916     0.506903851344    -1.013638671119    12.000000000000
         C            4.584802935084    -1.196347148656     0.000662328881    12.000000000000
         C           -2.855571064916    -1.020833148656     1.311199328881    12.000000000000
         C           -3.765464064916    -0.382569148656    -0.832387671119    12.000000000000
         C           -3.867441264916    -1.180870948656     0.359475228881    12.000000000000
         H           -0.657735064916     2.112938851344    -1.186771671119     1.007825032230
         H           -0.584232064916     2.377070851344     0.549954328881     1.007825032230
         H            1.552560935084     2.052162851344     1.483790328881     1.007825032230
         H            0.323195935084    -0.446548148656    -1.788576671119     1.007825032230
         H            3.725290935084     0.876365851344     1.566700328881     1.007825032230
         H            2.504711935084    -1.606392148656    -1.720684671119     1.007825032230
         H           -1.017170064916    -0.049938148656     1.882356328881     1.007825032230
         H           -2.646589064916     1.104526851344    -1.922394671119     1.007825032230
         H            4.925527935084    -1.489111148656    -0.996845671119     1.007825032230
         H            5.364052935084    -0.579994148656     0.457914328881     1.007825032230
         H            4.489241935084    -2.109581148656     0.598348328881     1.007825032230
         H           -2.910220064916    -1.615867148656     2.220096328881     1.007825032230
         H           -4.529411064916    -0.476654148656    -1.600910671119     1.007825032230
         H           -4.670979064916    -1.840262148656     0.475342328881     1.007825032230

  Basis Set: AUG-CC-PVTZ
    Blend: AUG-CC-PVTZ
  Basis Set: (AUG-CC-PVTZ AUX)
    Blend: AUG-CC-PVTZ-JKFIT
	 Reference Energy          =    -538.4902326914343575 [Eh]
	 Singles Energy            =      -0.0000000000000000 [Eh]
	 Same-Spin Energy          =      -0.6082159377944051 [Eh]
	 Opposite-Spin Energy      =      -1.9351219090313412 [Eh]
	 Correlation Energy        =      -2.5433378468257462 [Eh]
	 Total Energy              =    -541.0335705382600509 [Eh]

	 ================> DF-SCS-MP2 Energies <==================
	-----------------------------------------------------------
	 SCS Same-Spin Scale       =       0.3333333333333333 [-]
	 SCS Opposite-Spin Scale   =       1.2000000000000000 [-]
	 SCS Same-Spin Energy      =      -0.2027386459314683 [Eh]
	 SCS Opposite-Spin Energy  =      -2.3221462908376092 [Eh]
	 SCS Correlation Energy    =      -2.5248849367690775 [Eh]
	 SCS Total Energy          =    -541.0151176282034839 [Eh]
	-----------------------------------------------------------

  Dipole Moment: [D]
     X:     0.3621      Y:    -0.1327      Z:     0.0048     Total:     0.3857

*** Psi4 exiting successfully. Buy a developer a beer!
