                               Psi4 1.4a3.dev225

  ==> Input File <==

--------------------------------------------------------------------------
#psi4
#
memory 32 gb

molecule  {
0 1
  C       -0.5824800     1.6044310    -0.2213210
  C        0.7517090     0.8972820    -0.1584330
  C       -1.7393840     0.6486410    -0.0371650
  C        1.7237550     1.2518080     0.7820810
  C        1.0412590    -0.1412430    -1.0548500
  C        3.2457950    -0.4451680    -0.0684180
  C        2.9517370     0.5872480     0.8282550
  C        2.2676820    -0.7996710    -1.0091590
  C       -1.8261890    -0.1288690     1.1267200
  C       -2.7336970     0.5134260    -1.0120210
  C        4.5537390    -1.1898250     0.0022800
  C       -2.8866350    -1.0143110     1.3128170
  C       -3.7965280    -0.3760470    -0.8307700
  C       -3.8763200    -1.1410390     0.3331560
  H       -0.6887990     2.1194610    -1.1851540
  H       -0.6152960     2.3835930     0.5515720
  H        1.5214970     2.0586850     1.4854080
  H        0.2921320    -0.4400260    -1.7869590
  H        3.6942270     0.8828880     1.5683180
  H        2.4736480    -1.5998700    -1.7190670
  H       -1.0482340    -0.0434160     1.8839740
  H       -2.6776530     1.1110490    -1.9207770
  H        4.8944640    -1.4825890    -0.9952280
  H        5.3329890    -0.5734720     0.4595320
  H        4.4669002    -2.0197049     0.5454131
  H       -2.9412840    -1.6093450     2.2217140
  H       -4.5604750    -0.4701320    -1.5992930
  H       -4.7020430    -1.8337400     0.4769600
units angstrom
no_reorient  #important for SAPT in psi4, default
symmetry c1  #important for SAPT in psi4, default
}

set PROPERTIES_ORIGIN ["COM"]
properties('MP2/aug-cc-pvtz', properties = ['dipole'])
--------------------------------------------------------------------------

    Molecular point group: c1
  Charge       = 0
  Multiplicity = 1
  Basis Set: AUG-CC-PVTZ
    Blend: AUG-CC-PVTZ
  Basis Set: (AUG-CC-PVTZ AUX)
    Blend: AUG-CC-PVTZ-JKFIT

    Orbital Energies [Eh]
    ---------------------

    Doubly Occupied:

       1A    -11.240961     2A    -11.237780     3A    -11.236620
       4A    -11.235098     5A    -11.234941     6A    -11.234457
       7A    -11.231416     8A    -11.231176     9A    -11.230933
      10A    -11.229618    11A    -11.229333    12A    -11.228763
      13A    -11.228384    14A    -11.210669    15A     -1.160521
      16A     -1.145199    17A     -1.074523    18A     -1.025790
      19A     -1.010102    20A     -1.007858    21A     -0.961527
      22A     -0.900190    23A     -0.827882    24A     -0.822702
      25A     -0.803569    26A     -0.775035    27A     -0.693355
      28A     -0.669112    29A     -0.648033    30A     -0.635077
      31A     -0.628648    32A     -0.617574    33A     -0.591552
      34A     -0.582494    35A     -0.578387    36A     -0.570789
      37A     -0.559540    38A     -0.547964    39A     -0.527507
      40A     -0.503631    41A     -0.491225    42A     -0.490059
      43A     -0.477356    44A     -0.473843    45A     -0.471891
      46A     -0.336989    47A     -0.333577    48A     -0.329293
      49A     -0.307516

  @DF-RHF Final Energy:  -538.48786605970554

   => Energetics <=

    Nuclear Repulsion Energy =            786.4237122732233729
    One-Electron Energy =               -2288.1822359177567705
    Two-Electron Energy =                 963.2706575848278590
    Total Energy =                       -538.4878660597055386
  Basis Set: (AUG-CC-PVTZ AUX)
    Blend: AUG-CC-PVTZ-RI
    Molecular point group: c1

    Geometry (in Angstrom), charge = 0, multiplicity = 1:

       Center              X                  Y                   Z               Mass
    ------------   -----------------  -----------------  -----------------  -----------------
         C           -0.552926215542     1.595252626301    -0.220795880819    12.000000000000
         C            0.781262784458     0.888103626301    -0.157907880819    12.000000000000
         C           -1.709830215542     0.639462626301    -0.036639880819    12.000000000000
         C            1.753308784458     1.242629626301     0.782606119181    12.000000000000
         C            1.070812784458    -0.150421373699    -1.054324880819    12.000000000000
         C            3.275348784458    -0.454346373699    -0.067892880819    12.000000000000
         C            2.981290784458     0.578069626301     0.828780119181    12.000000000000
         C            2.297235784458    -0.808849373699    -1.008633880819    12.000000000000
         C           -1.796635215542    -0.138047373699     1.127245119181    12.000000000000
         C           -2.704143215542     0.504247626301    -1.011495880819    12.000000000000
         C            4.583292784458    -1.199003373699     0.002805119181    12.000000000000
         C           -2.857081215542    -1.023489373699     1.313342119181    12.000000000000
         C           -3.766974215542    -0.385225373699    -0.830244880819    12.000000000000
         C           -3.846766215542    -1.150217373699     0.333681119181    12.000000000000
         H           -0.659245215542     2.110282626301    -1.184628880819     1.007825032230
         H           -0.585742215542     2.374414626301     0.552097119181     1.007825032230
         H            1.551050784458     2.049506626301     1.485933119181     1.007825032230
         H            0.321685784458    -0.449204373699    -1.786433880819     1.007825032230
         H            3.723780784458     0.873709626301     1.568843119181     1.007825032230
         H            2.503201784458    -1.609048373699    -1.718541880819     1.007825032230
         H           -1.018680215542    -0.052594373699     1.884499119181     1.007825032230
         H           -2.648099215542     1.101870626301    -1.920251880819     1.007825032230
         H            4.924017784458    -1.491767373699    -0.994702880819     1.007825032230
         H            5.362542784458    -0.582650373699     0.460057119181     1.007825032230
         H            4.496453984458    -2.028883273699     0.545938219181     1.007825032230
         H           -2.911730215542    -1.618523373699     2.222239119181     1.007825032230
         H           -4.530921215542    -0.479310373699    -1.598767880819     1.007825032230
         H           -4.672489215542    -1.842918373699     0.477485119181     1.007825032230

  Basis Set: AUG-CC-PVTZ
    Blend: AUG-CC-PVTZ
  Basis Set: (AUG-CC-PVTZ AUX)
    Blend: AUG-CC-PVTZ-JKFIT
	 Reference Energy          =    -538.4878660597055386 [Eh]
	 Singles Energy            =      -0.0000000000000000 [Eh]
	 Same-Spin Energy          =      -0.6082308347834804 [Eh]
	 Opposite-Spin Energy      =      -1.9342795493584641 [Eh]
	 Correlation Energy        =      -2.5425103841419445 [Eh]
	 Total Energy              =    -541.0303764438474445 [Eh]

	 ================> DF-SCS-MP2 Energies <==================
	-----------------------------------------------------------
	 SCS Same-Spin Scale       =       0.3333333333333333 [-]
	 SCS Opposite-Spin Scale   =       1.2000000000000000 [-]
	 SCS Same-Spin Energy      =      -0.2027436115944934 [Eh]
	 SCS Opposite-Spin Energy  =      -2.3211354592301570 [Eh]
	 SCS Correlation Energy    =      -2.5238790708246506 [Eh]
	 SCS Total Energy          =    -541.0117451305302438 [Eh]
	-----------------------------------------------------------

  Dipole Moment: [D]
     X:     0.3868      Y:    -0.1668      Z:     0.0270     Total:     0.4221

*** Psi4 exiting successfully. Buy a developer a beer!
