                               Psi4 1.4a3.dev225

  ==> Input File <==

--------------------------------------------------------------------------
#psi4
#
memory 32 gb

molecule  {
0 1
  C       -0.5824800     1.6044310    -0.2213210
  C        0.7517090     0.8972820    -0.1584330
  C       -1.7393840     0.6486410    -0.0371650
  C        1.7237550     1.2518080     0.7820810
  C        1.0412590    -0.1412430    -1.0548500
  C        3.2457950    -0.4451680    -0.0684180
  C        2.9517370     0.5872480     0.8282550
  C        2.2676820    -0.7996710    -1.0091590
  C       -1.8261890    -0.1288690     1.1267200
  C       -2.6849408     0.4698007    -0.8811624
  C        4.5537390    -1.1898250     0.0022800
  C       -2.8866350    -1.0143110     1.3128170
  C       -3.7965280    -0.3760470    -0.8307700
  C       -3.8763200    -1.1410390     0.3331560
  H       -0.6887990     2.1194610    -1.1851540
  H       -0.6152960     2.3835930     0.5515720
  H        1.5214970     2.0586850     1.4854080
  H        0.2921320    -0.4400260    -1.7869590
  H        3.6942270     0.8828880     1.5683180
  H        2.4736480    -1.5998700    -1.7190670
  H       -1.0482340    -0.0434160     1.8839740
  H       -2.6776530     1.1110490    -1.9207770
  H        4.8944640    -1.4825890    -0.9952280
  H        5.3329890    -0.5734720     0.4595320
  H        4.4581780    -2.1030590     0.5999660
  H       -2.9412840    -1.6093450     2.2217140
  H       -4.5604750    -0.4701320    -1.5992930
  H       -4.7020430    -1.8337400     0.4769600
units angstrom
no_reorient  #important for SAPT in psi4, default
symmetry c1  #important for SAPT in psi4, default
}

set PROPERTIES_ORIGIN ["COM"]
properties('MP2/aug-cc-pvtz', properties = ['dipole'])
--------------------------------------------------------------------------

    Molecular point group: c1
  Charge       = 0
  Multiplicity = 1
  Basis Set: AUG-CC-PVTZ
    Blend: AUG-CC-PVTZ
  Basis Set: (AUG-CC-PVTZ AUX)
    Blend: AUG-CC-PVTZ-JKFIT

    Orbital Energies [Eh]
    ---------------------

    Doubly Occupied:

       1A    -11.238903     2A    -11.237423     3A    -11.236335
       4A    -11.235071     5A    -11.232986     6A    -11.232116
       7A    -11.231764     8A    -11.231035     9A    -11.230385
      10A    -11.229703    11A    -11.229604    12A    -11.229154
      13A    -11.225345    14A    -11.223305    15A     -1.171869
      16A     -1.150886    17A     -1.075695    18A     -1.031906
      19A     -1.008730    20A     -1.006630    21A     -0.962539
      22A     -0.896973    23A     -0.833157    24A     -0.825132
      25A     -0.799455    26A     -0.777403    27A     -0.693297
      28A     -0.667102    29A     -0.648450    30A     -0.637677
      31A     -0.625590    32A     -0.622509    33A     -0.579683
      34A     -0.578488    35A     -0.573114    36A     -0.568913
      37A     -0.560842    38A     -0.545971    39A     -0.528350
      40A     -0.508889    41A     -0.500128    42A     -0.481293
      43A     -0.479495    44A     -0.476836    45A     -0.452996
      46A     -0.345198    47A     -0.335114    48A     -0.330358
      49A     -0.309672

  @DF-RHF Final Energy:  -538.46681619731010

   => Energetics <=

    Nuclear Repulsion Energy =            788.6934928492515837
    One-Electron Energy =               -2292.6536772115355234
    Two-Electron Energy =                 965.4933681649739583
    Total Energy =                       -538.4668161973100950
  Basis Set: (AUG-CC-PVTZ AUX)
    Blend: AUG-CC-PVTZ-RI
    Molecular point group: c1

    Geometry (in Angstrom), charge = 0, multiplicity = 1:

       Center              X                  Y                   Z               Mass
    ------------   -----------------  -----------------  -----------------  -----------------
         C           -0.556090706076     1.598588585052    -0.229720635036    12.000000000000
         C            0.778098293924     0.891439585052    -0.166832635036    12.000000000000
         C           -1.712994706076     0.642798585052    -0.045564635036    12.000000000000
         C            1.750144293924     1.245965585052     0.773681364964    12.000000000000
         C            1.067648293924    -0.147085414948    -1.063249635036    12.000000000000
         C            3.272184293924    -0.451010414948    -0.076817635036    12.000000000000
         C            2.978126293924     0.581405585052     0.819855364964    12.000000000000
         C            2.294071293924    -0.805513414948    -1.017558635036    12.000000000000
         C           -1.799799706076    -0.134711414948     1.118320364964    12.000000000000
         C           -2.658551506076     0.463958285052    -0.889562035036    12.000000000000
         C            4.580128293924    -1.195667414948    -0.006119635036    12.000000000000
         C           -2.860245706076    -1.020153414948     1.304417364964    12.000000000000
         C           -3.770138706076    -0.381889414948    -0.839169635036    12.000000000000
         C           -3.849930706076    -1.146881414948     0.324756364964    12.000000000000
         H           -0.662409706076     2.113618585052    -1.193553635036     1.007825032230
         H           -0.588906706076     2.377750585052     0.543172364964     1.007825032230
         H            1.547886293924     2.052842585052     1.477008364964     1.007825032230
         H            0.318521293924    -0.445868414948    -1.795358635036     1.007825032230
         H            3.720616293924     0.877045585052     1.559918364964     1.007825032230
         H            2.500037293924    -1.605712414948    -1.727466635036     1.007825032230
         H           -1.021844706076    -0.049258414948     1.875574364964     1.007825032230
         H           -2.651263706076     1.105206585052    -1.929176635036     1.007825032230
         H            4.920853293924    -1.488431414948    -1.003627635036     1.007825032230
         H            5.359378293924    -0.579314414948     0.451132364964     1.007825032230
         H            4.484567293924    -2.108901414948     0.591566364964     1.007825032230
         H           -2.914894706076    -1.615187414948     2.213314364964     1.007825032230
         H           -4.534085706076    -0.475974414948    -1.607692635036     1.007825032230
         H           -4.675653706076    -1.839582414948     0.468560364964     1.007825032230

  Basis Set: AUG-CC-PVTZ
    Blend: AUG-CC-PVTZ
  Basis Set: (AUG-CC-PVTZ AUX)
    Blend: AUG-CC-PVTZ-JKFIT
	 Reference Energy          =    -538.4668161973100950 [Eh]
	 Singles Energy            =      -0.0000000000000000 [Eh]
	 Same-Spin Energy          =      -0.6084536614712361 [Eh]
	 Opposite-Spin Energy      =      -1.9356060222123967 [Eh]
	 Correlation Energy        =      -2.5440596836836331 [Eh]
	 Total Energy              =    -541.0108758809936944 [Eh]

	 ================> DF-SCS-MP2 Energies <==================
	-----------------------------------------------------------
	 SCS Same-Spin Scale       =       0.3333333333333333 [-]
	 SCS Opposite-Spin Scale   =       1.2000000000000000 [-]
	 SCS Same-Spin Energy      =      -0.2028178871570787 [Eh]
	 SCS Opposite-Spin Energy  =      -2.3227272266548762 [Eh]
	 SCS Correlation Energy    =      -2.5255451138119547 [Eh]
	 SCS Total Energy          =    -540.9923613111220675 [Eh]
	-----------------------------------------------------------

  Dipole Moment: [D]
     X:     0.3725      Y:    -0.2188      Z:     0.0969     Total:     0.4428

*** Psi4 exiting successfully. Buy a developer a beer!
