                               Psi4 1.4a3.dev225

  ==> Input File <==

--------------------------------------------------------------------------
#psi4
#
memory 32 gb

molecule  {
0 1
  C       -0.5824800     1.6044310    -0.2213210
  C        0.7517090     0.8972820    -0.1584330
  C       -1.7393840     0.6486410    -0.0371650
  C        1.7237550     1.2518080     0.7820810
  C        1.0412590    -0.1412430    -1.0548500
  C        3.2457950    -0.4451680    -0.0684180
  C        2.9517370     0.5872480     0.8282550
  C        2.2676820    -0.7996710    -1.0091590
  C       -1.8261890    -0.1288690     1.1267200
  C       -2.7336970     0.5134260    -1.0120210
  C        4.5537390    -1.1898250     0.0022800
  C       -2.8866350    -1.0143110     1.3128170
  C       -3.7965280    -0.3760470    -0.8307700
  C       -3.8763200    -1.1410390     0.3331560
  H       -0.6887990     2.1194610    -1.1851540
  H       -0.6152960     2.3835930     0.5515720
  H        1.5214970     2.0586850     1.4854080
  H        0.2921320    -0.4400260    -1.7869590
  H        3.6942270     0.8828880     1.5683180
  H        2.4736480    -1.5998700    -1.7190670
  H       -1.0482340    -0.0434160     1.8839740
  H       -2.6776530     1.1110490    -1.9207770
  H        4.8944640    -1.4825890    -0.9952280
  H        5.3329890    -0.5734720     0.4595320
  H        4.4581780    -2.1030590     0.5999660
  H       -2.9513323    -1.7187539     2.3888329
  H       -4.5604750    -0.4701320    -1.5992930
  H       -4.7020430    -1.8337400     0.4769600
units angstrom
no_reorient  #important for SAPT in psi4, default
symmetry c1  #important for SAPT in psi4, default
}

set PROPERTIES_ORIGIN ["COM"]
properties('MP2/aug-cc-pvtz', properties = ['dipole'])
--------------------------------------------------------------------------

    Molecular point group: c1
  Charge       = 0
  Multiplicity = 1
  Basis Set: AUG-CC-PVTZ
    Blend: AUG-CC-PVTZ
  Basis Set: (AUG-CC-PVTZ AUX)
    Blend: AUG-CC-PVTZ-JKFIT

    Orbital Energies [Eh]
    ---------------------

    Doubly Occupied:

       1A    -11.256221     2A    -11.242785     3A    -11.238706
       4A    -11.237419     5A    -11.236770     6A    -11.236233
       7A    -11.233837     8A    -11.232599     9A    -11.231885
      10A    -11.231576    11A    -11.230263    12A    -11.229467
      13A    -11.229031    14A    -11.223176    15A     -1.161386
      16A     -1.145896    17A     -1.074203    18A     -1.024317
      19A     -1.008733    20A     -1.007425    21A     -0.957948
      22A     -0.896918    23A     -0.827960    24A     -0.818795
      25A     -0.799754    26A     -0.773758    27A     -0.690347
      28A     -0.668387    29A     -0.648958    30A     -0.632531
      31A     -0.624733    32A     -0.612369    33A     -0.579144
      34A     -0.577692    35A     -0.572115    36A     -0.564586
      37A     -0.560377    38A     -0.549160    39A     -0.528660
      40A     -0.503577    41A     -0.491899    42A     -0.482948
      43A     -0.477869    44A     -0.473018    45A     -0.467704
      46A     -0.338094    47A     -0.334901    48A     -0.330085
      49A     -0.308044

  @DF-RHF Final Energy:  -538.47173974300392

   => Energetics <=

    Nuclear Repulsion Energy =            785.0291138056379623
    One-Electron Energy =               -2285.3931876289625507
    Two-Electron Energy =                 961.8923340803206656
    Total Energy =                       -538.4717397430039227
  Basis Set: (AUG-CC-PVTZ AUX)
    Blend: AUG-CC-PVTZ-RI
    Molecular point group: c1

    Geometry (in Angstrom), charge = 0, multiplicity = 1:

       Center              X                  Y                   Z               Mass
    ------------   -----------------  -----------------  -----------------  -----------------
         C           -0.552822336422     1.596319409324    -0.222022650027    12.000000000000
         C            0.781366663578     0.889170409324    -0.159134650027    12.000000000000
         C           -1.709726336422     0.640529409324    -0.037866650027    12.000000000000
         C            1.753412663578     1.243696409324     0.781379349973    12.000000000000
         C            1.070916663578    -0.149354590676    -1.055551650027    12.000000000000
         C            3.275452663578    -0.453279590676    -0.069119650027    12.000000000000
         C            2.981394663578     0.579136409324     0.827553349973    12.000000000000
         C            2.297339663578    -0.807782590676    -1.009860650027    12.000000000000
         C           -1.796531336422    -0.136980590676     1.126018349973    12.000000000000
         C           -2.704039336422     0.505314409324    -1.012722650027    12.000000000000
         C            4.583396663578    -1.197936590676     0.001578349973    12.000000000000
         C           -2.856977336422    -1.022422590676     1.312115349973    12.000000000000
         C           -3.766870336422    -0.384158590676    -0.831471650027    12.000000000000
         C           -3.846662336422    -1.149150590676     0.332454349973    12.000000000000
         H           -0.659141336422     2.111349409324    -1.185855650027     1.007825032230
         H           -0.585638336422     2.375481409324     0.550870349973     1.007825032230
         H            1.551154663578     2.050573409324     1.484706349973     1.007825032230
         H            0.321789663578    -0.448137590676    -1.787660650027     1.007825032230
         H            3.723884663578     0.874776409324     1.567616349973     1.007825032230
         H            2.503305663578    -1.607981590676    -1.719768650027     1.007825032230
         H           -1.018576336422    -0.051527590676     1.883272349973     1.007825032230
         H           -2.647995336422     1.102937409324    -1.921478650027     1.007825032230
         H            4.924121663578    -1.490700590676    -0.995929650027     1.007825032230
         H            5.362646663578    -0.581583590676     0.458830349973     1.007825032230
         H            4.487835663578    -2.111170590676     0.599264349973     1.007825032230
         H           -2.921674636422    -1.726865490676     2.388131249973     1.007825032230
         H           -4.530817336422    -0.478243590676    -1.599994650027     1.007825032230
         H           -4.672385336422    -1.841851590676     0.476258349973     1.007825032230

  Basis Set: AUG-CC-PVTZ
    Blend: AUG-CC-PVTZ
  Basis Set: (AUG-CC-PVTZ AUX)
    Blend: AUG-CC-PVTZ-JKFIT
	 Reference Energy          =    -538.4717397430039227 [Eh]
	 Singles Energy            =      -0.0000000000000000 [Eh]
	 Same-Spin Energy          =      -0.6086601225130928 [Eh]
	 Opposite-Spin Energy      =      -1.9369714396235864 [Eh]
	 Correlation Energy        =      -2.5456315621366792 [Eh]
	 Total Energy              =    -541.0173713051406139 [Eh]

	 ================> DF-SCS-MP2 Energies <==================
	-----------------------------------------------------------
	 SCS Same-Spin Scale       =       0.3333333333333333 [-]
	 SCS Opposite-Spin Scale   =       1.2000000000000000 [-]
	 SCS Same-Spin Energy      =      -0.2028867075043642 [Eh]
	 SCS Opposite-Spin Energy  =      -2.3243657275483036 [Eh]
	 SCS Correlation Energy    =      -2.5272524350526679 [Eh]
	 SCS Total Energy          =    -540.9989921780565965 [Eh]
	-----------------------------------------------------------

  Dipole Moment: [D]
     X:     0.3955      Y:    -0.0637      Z:    -0.0900     Total:     0.4106

*** Psi4 exiting successfully. Buy a developer a beer!
