                               Psi4 1.4a3.dev225

  ==> Input File <==

--------------------------------------------------------------------------
#psi4
#
memory 32 gb

molecule  {
0 1
  C       -0.5824800     1.6044310    -0.2213210
  C        0.7517090     0.8972820    -0.1584330
  C       -1.7393840     0.6486410    -0.0371650
  C        1.7237550     1.2518080     0.7820810
  C        1.0412590    -0.1412430    -1.0548500
  C        3.2457950    -0.4451680    -0.0684180
  C        2.9517370     0.5872480     0.8282550
  C        2.2676820    -0.7996710    -1.0091590
  C       -1.8261890    -0.1288690     1.1267200
  C       -2.7336970     0.5134260    -1.0120210
  C        4.5537390    -1.1898250     0.0022800
  C       -2.9603068    -1.1150076     1.3893351
  C       -3.7965280    -0.3760470    -0.8307700
  C       -3.8763200    -1.1410390     0.3331560
  H       -0.6887990     2.1194610    -1.1851540
  H       -0.6152960     2.3835930     0.5515720
  H        1.5214970     2.0586850     1.4854080
  H        0.2921320    -0.4400260    -1.7869590
  H        3.6942270     0.8828880     1.5683180
  H        2.4736480    -1.5998700    -1.7190670
  H       -1.0482340    -0.0434160     1.8839740
  H       -2.6776530     1.1110490    -1.9207770
  H        4.8944640    -1.4825890    -0.9952280
  H        5.3329890    -0.5734720     0.4595320
  H        4.4581780    -2.1030590     0.5999660
  H       -2.9412840    -1.6093450     2.2217140
  H       -4.5604750    -0.4701320    -1.5992930
  H       -4.7020430    -1.8337400     0.4769600
units angstrom
no_reorient  #important for SAPT in psi4, default
symmetry c1  #important for SAPT in psi4, default
}

set PROPERTIES_ORIGIN ["COM"]
properties('MP2/aug-cc-pvtz', properties = ['dipole'])
--------------------------------------------------------------------------

    Molecular point group: c1
  Charge       = 0
  Multiplicity = 1
  Basis Set: AUG-CC-PVTZ
    Blend: AUG-CC-PVTZ
  Basis Set: (AUG-CC-PVTZ AUX)
    Blend: AUG-CC-PVTZ-JKFIT

    Orbital Energies [Eh]
    ---------------------

    Doubly Occupied:

       1A    -11.243026     2A    -11.240446     3A    -11.238953
       4A    -11.237978     5A    -11.236626     6A    -11.236432
       7A    -11.235550     8A    -11.235457     9A    -11.234683
      10A    -11.230747    11A    -11.229571    12A    -11.228775
      13A    -11.228343    14A    -11.222731    15A     -1.157994
      16A     -1.139095    17A     -1.073253    18A     -1.025647
      19A     -1.007825    20A     -1.001641    21A     -0.955793
      22A     -0.894331    23A     -0.838122    24A     -0.826050
      25A     -0.800901    26A     -0.774647    27A     -0.692068
      28A     -0.666918    29A     -0.656488    30A     -0.644757
      31A     -0.628745    32A     -0.618785    33A     -0.584846
      34A     -0.578269    35A     -0.575553    36A     -0.568291
      37A     -0.559352    38A     -0.545621    39A     -0.525533
      40A     -0.506279    41A     -0.494338    42A     -0.483051
      43A     -0.476411    44A     -0.473703    45A     -0.461697
      46A     -0.338180    47A     -0.331064    48A     -0.324228
      49A     -0.305918

  @DF-RHF Final Energy:  -538.46430378334117

   => Energetics <=

    Nuclear Repulsion Energy =            783.3485715482271416
    One-Electron Energy =               -2281.9963170284299849
    Two-Electron Energy =                 960.1834416968617916
    Total Energy =                       -538.4643037833411654
  Basis Set: (AUG-CC-PVTZ AUX)
    Blend: AUG-CC-PVTZ-RI
    Molecular point group: c1

    Geometry (in Angstrom), charge = 0, multiplicity = 1:

       Center              X                  Y                   Z               Mass
    ------------   -----------------  -----------------  -----------------  -----------------
         C           -0.548023386177     1.602349264260    -0.226139900261    12.000000000000
         C            0.786165613823     0.895200264260    -0.163251900261    12.000000000000
         C           -1.704927386177     0.646559264260    -0.041983900261    12.000000000000
         C            1.758211613823     1.249726264260     0.777262099739    12.000000000000
         C            1.075715613823    -0.143324735740    -1.059668900261    12.000000000000
         C            3.280251613823    -0.447249735740    -0.073236900261    12.000000000000
         C            2.986193613823     0.585166264260     0.823436099739    12.000000000000
         C            2.302138613823    -0.801752735740    -1.013977900261    12.000000000000
         C           -1.791732386177    -0.130950735740     1.121901099739    12.000000000000
         C           -2.699240386177     0.511344264260    -1.016839900261    12.000000000000
         C            4.588195613823    -1.191906735740    -0.002538900261    12.000000000000
         C           -2.925850186177    -1.117089335740     1.384516199739    12.000000000000
         C           -3.762071386177    -0.378128735740    -0.835588900261    12.000000000000
         C           -3.841863386177    -1.143120735740     0.328337099739    12.000000000000
         H           -0.654342386177     2.117379264260    -1.189972900261     1.007825032230
         H           -0.580839386177     2.381511264260     0.546753099739     1.007825032230
         H            1.555953613823     2.056603264260     1.480589099739     1.007825032230
         H            0.326588613823    -0.442107735740    -1.791777900261     1.007825032230
         H            3.728683613823     0.880806264260     1.563499099739     1.007825032230
         H            2.508104613823    -1.601951735740    -1.723885900261     1.007825032230
         H           -1.013777386177    -0.045497735740     1.879155099739     1.007825032230
         H           -2.643196386177     1.108967264260    -1.925595900261     1.007825032230
         H            4.928920613823    -1.484670735740    -1.000046900261     1.007825032230
         H            5.367445613823    -0.575553735740     0.454713099739     1.007825032230
         H            4.492634613823    -2.105140735740     0.595147099739     1.007825032230
         H           -2.906827386177    -1.611426735740     2.216895099739     1.007825032230
         H           -4.526018386177    -0.472213735740    -1.604111900261     1.007825032230
         H           -4.667586386177    -1.835821735740     0.472141099739     1.007825032230

  Basis Set: AUG-CC-PVTZ
    Blend: AUG-CC-PVTZ
  Basis Set: (AUG-CC-PVTZ AUX)
    Blend: AUG-CC-PVTZ-JKFIT
	 Reference Energy          =    -538.4643037833411654 [Eh]
	 Singles Energy            =      -0.0000000000000000 [Eh]
	 Same-Spin Energy          =      -0.6085273688131875 [Eh]
	 Opposite-Spin Energy      =      -1.9371292108002232 [Eh]
	 Correlation Energy        =      -2.5456565796134107 [Eh]
	 Total Energy              =    -541.0099603629545300 [Eh]

	 ================> DF-SCS-MP2 Energies <==================
	-----------------------------------------------------------
	 SCS Same-Spin Scale       =       0.3333333333333333 [-]
	 SCS Opposite-Spin Scale   =       1.2000000000000000 [-]
	 SCS Same-Spin Energy      =      -0.2028424562710625 [Eh]
	 SCS Opposite-Spin Energy  =      -2.3245550529602679 [Eh]
	 SCS Correlation Energy    =      -2.5273975092313306 [Eh]
	 SCS Total Energy          =    -540.9917012925725430 [Eh]
	-----------------------------------------------------------

  Dipole Moment: [D]
     X:     0.3692      Y:    -0.1291      Z:     0.0257     Total:     0.3920

*** Psi4 exiting successfully. Buy a developer a beer!
