                               Psi4 1.4a3.dev225

  ==> Input File <==

--------------------------------------------------------------------------
#psi4
#
memory 32 gb

molecule  {
0 1
  C       -0.5824800     1.6044310    -0.2213210
  C        0.7517090     0.8972820    -0.1584330
  C       -1.7393840     0.6486410    -0.0371650
  C        1.7237550     1.2518080     0.7820810
  C        1.0412590    -0.1412430    -1.0548500
  C        3.2457950    -0.4451680    -0.0684180
  C        2.9517370     0.5872480     0.8282550
  C        2.2676820    -0.7996710    -1.0091590
  C       -1.8261890    -0.1288690     1.1267200
  C       -2.6998634     0.4853979    -0.9249143
  C        4.5537390    -1.1898250     0.0022800
  C       -2.8866350    -1.0143110     1.3128170
  C       -3.7965280    -0.3760470    -0.8307700
  C       -3.8763200    -1.1410390     0.3331560
  H       -0.6887990     2.1194610    -1.1851540
  H       -0.6152960     2.3835930     0.5515720
  H        1.5214970     2.0586850     1.4854080
  H        0.2921320    -0.4400260    -1.7869590
  H        3.6942270     0.8828880     1.5683180
  H        2.4736480    -1.5998700    -1.7190670
  H       -1.0482340    -0.0434160     1.8839740
  H       -2.6776530     1.1110490    -1.9207770
  H        4.8944640    -1.4825890    -0.9952280
  H        5.3329890    -0.5734720     0.4595320
  H        4.4581780    -2.1030590     0.5999660
  H       -2.9412840    -1.6093450     2.2217140
  H       -4.5604750    -0.4701320    -1.5992930
  H       -4.7020430    -1.8337400     0.4769600
units angstrom
no_reorient  #important for SAPT in psi4, default
symmetry c1  #important for SAPT in psi4, default
}

set PROPERTIES_ORIGIN ["COM"]
properties('MP2/aug-cc-pvtz', properties = ['dipole'])
--------------------------------------------------------------------------

    Molecular point group: c1
  Charge       = 0
  Multiplicity = 1
  Basis Set: AUG-CC-PVTZ
    Blend: AUG-CC-PVTZ
  Basis Set: (AUG-CC-PVTZ AUX)
    Blend: AUG-CC-PVTZ-JKFIT

    Orbital Energies [Eh]
    ---------------------

    Doubly Occupied:

       1A    -11.238679     2A    -11.237193     3A    -11.235888
       4A    -11.234688     5A    -11.233013     6A    -11.231845
       7A    -11.231516     8A    -11.231398     9A    -11.230362
      10A    -11.230178    11A    -11.229411    12A    -11.229196
      13A    -11.228949    14A    -11.223164    15A     -1.166926
      16A     -1.149430    17A     -1.074901    18A     -1.028945
      19A     -1.008561    20A     -1.007615    21A     -0.960587
      22A     -0.896580    23A     -0.830544    24A     -0.824072
      25A     -0.801274    26A     -0.776619    27A     -0.692597
      28A     -0.667165    29A     -0.648405    30A     -0.635368
      31A     -0.626117    32A     -0.621949    33A     -0.579295
      34A     -0.578890    35A     -0.573579    36A     -0.569536
      37A     -0.560376    38A     -0.546972    39A     -0.528178
      40A     -0.506323    41A     -0.496673    42A     -0.482352
      43A     -0.478631    44A     -0.476586    45A     -0.463782
      46A     -0.340730    47A     -0.335193    48A     -0.330510
      49A     -0.308979

  @DF-RHF Final Energy:  -538.48216611126441

   => Energetics <=

    Nuclear Repulsion Energy =            787.7702707057385396
    One-Electron Energy =               -2290.8654351115292229
    Two-Electron Energy =                 964.6129982945262782
    Total Energy =                       -538.4821661112644051
  Basis Set: (AUG-CC-PVTZ AUX)
    Blend: AUG-CC-PVTZ-RI
    Molecular point group: c1

    Geometry (in Angstrom), charge = 0, multiplicity = 1:

       Center              X                  Y                   Z               Mass
    ------------   -----------------  -----------------  -----------------  -----------------
         C           -0.555107390266     1.597560816879    -0.226837629731    12.000000000000
         C            0.779081609734     0.890411816879    -0.163949629731    12.000000000000
         C           -1.712011390266     0.641770816879    -0.042681629731    12.000000000000
         C            1.751127609734     1.244937816879     0.776564370269    12.000000000000
         C            1.068631609734    -0.148113183121    -1.060366629731    12.000000000000
         C            3.273167609734    -0.452038183121    -0.073934629731    12.000000000000
         C            2.979109609734     0.580377816879     0.822738370269    12.000000000000
         C            2.295054609734    -0.806541183121    -1.014675629731    12.000000000000
         C           -1.798816390266    -0.135739183121     1.121203370269    12.000000000000
         C           -2.672490790266     0.478527716879    -0.930430929731    12.000000000000
         C            4.581111609734    -1.196695183121    -0.003236629731    12.000000000000
         C           -2.859262390266    -1.021181183121     1.307300370269    12.000000000000
         C           -3.769155390266    -0.382917183121    -0.836286629731    12.000000000000
         C           -3.848947390266    -1.147909183121     0.327639370269    12.000000000000
         H           -0.661426390266     2.112590816879    -1.190670629731     1.007825032230
         H           -0.587923390266     2.376722816879     0.546055370269     1.007825032230
         H            1.548869609734     2.051814816879     1.479891370269     1.007825032230
         H            0.319504609734    -0.446896183121    -1.792475629731     1.007825032230
         H            3.721599609734     0.876017816879     1.562801370269     1.007825032230
         H            2.501020609734    -1.606740183121    -1.724583629731     1.007825032230
         H           -1.020861390266    -0.050286183121     1.878457370269     1.007825032230
         H           -2.650280390266     1.104178816879    -1.926293629731     1.007825032230
         H            4.921836609734    -1.489459183121    -1.000744629731     1.007825032230
         H            5.360361609734    -0.580342183121     0.454015370269     1.007825032230
         H            4.485550609734    -2.109929183121     0.594449370269     1.007825032230
         H           -2.913911390266    -1.616215183121     2.216197370269     1.007825032230
         H           -4.533102390266    -0.477002183121    -1.604809629731     1.007825032230
         H           -4.674670390266    -1.840610183121     0.471443370269     1.007825032230

  Basis Set: AUG-CC-PVTZ
    Blend: AUG-CC-PVTZ
  Basis Set: (AUG-CC-PVTZ AUX)
    Blend: AUG-CC-PVTZ-JKFIT
	 Reference Energy          =    -538.4821661112644051 [Eh]
	 Singles Energy            =      -0.0000000000000000 [Eh]
	 Same-Spin Energy          =      -0.6082976423058868 [Eh]
	 Opposite-Spin Energy      =      -1.9350386272090203 [Eh]
	 Correlation Energy        =      -2.5433362695149073 [Eh]
	 Total Energy              =    -541.0255023807793577 [Eh]

	 ================> DF-SCS-MP2 Energies <==================
	-----------------------------------------------------------
	 SCS Same-Spin Scale       =       0.3333333333333333 [-]
	 SCS Opposite-Spin Scale   =       1.2000000000000000 [-]
	 SCS Same-Spin Energy      =      -0.2027658807686289 [Eh]
	 SCS Opposite-Spin Energy  =      -2.3220463526508244 [Eh]
	 SCS Correlation Energy    =      -2.5248122334194534 [Eh]
	 SCS Total Energy          =    -541.0069783446838301 [Eh]
	-----------------------------------------------------------

  Dipole Moment: [D]
     X:     0.3669      Y:    -0.1800      Z:     0.0538     Total:     0.4122

*** Psi4 exiting successfully. Buy a developer a beer!
