                               Psi4 1.4a3.dev225

  ==> Input File <==

--------------------------------------------------------------------------
#psi4
#
memory 32 gb

molecule  {
0 1
  C       -0.5824800     1.6044310    -0.2213210
  C        0.7517090     0.8972820    -0.1584330
  C       -1.7393840     0.6486410    -0.0371650
  C        1.7237550     1.2518080     0.7820810
  C        1.0412590    -0.1412430    -1.0548500
  C        3.2457950    -0.4451680    -0.0684180
  C        2.9517370     0.5872480     0.8282550
  C        2.2676820    -0.7996710    -1.0091590
  C       -1.8261890    -0.1288690     1.1267200
  C       -2.7336970     0.5134260    -1.0120210
  C        4.5537390    -1.1898250     0.0022800
  C       -2.8866350    -1.0143110     1.3128170
  C       -3.7965280    -0.3760470    -0.8307700
  C       -3.8763200    -1.1410390     0.3331560
  H       -0.6887990     2.1194610    -1.1851540
  H       -0.6152960     2.3835930     0.5515720
  H        1.5214970     2.0586850     1.4854080
  H        0.2921320    -0.4400260    -1.7869590
  H        3.6942270     0.8828880     1.5683180
  H        2.4736480    -1.5998700    -1.7190670
  H       -1.0482340    -0.0434160     1.8839740
  H       -2.6776530     1.1110490    -1.9207770
  H        4.8945460    -1.5008517    -0.9896573
  H        5.3329890    -0.5734720     0.4595320
  H        4.4581780    -2.1030590     0.5999660
  H       -2.9412840    -1.6093450     2.2217140
  H       -4.5604750    -0.4701320    -1.5992930
  H       -4.7020430    -1.8337400     0.4769600
units angstrom
no_reorient  #important for SAPT in psi4, default
symmetry c1  #important for SAPT in psi4, default
}

set PROPERTIES_ORIGIN ["COM"]
properties('MP2/aug-cc-pvtz', properties = ['dipole'])
--------------------------------------------------------------------------

    Molecular point group: c1
  Charge       = 0
  Multiplicity = 1
  Basis Set: AUG-CC-PVTZ
    Blend: AUG-CC-PVTZ
  Basis Set: (AUG-CC-PVTZ AUX)
    Blend: AUG-CC-PVTZ-JKFIT

    Orbital Energies [Eh]
    ---------------------

    Doubly Occupied:

       1A    -11.241084     2A    -11.238523     3A    -11.236958
       4A    -11.235298     5A    -11.235033     6A    -11.234546
       7A    -11.231522     8A    -11.231272     9A    -11.231237
      10A    -11.229914    11A    -11.229440    12A    -11.229229
      13A    -11.228687    14A    -11.222991    15A     -1.160672
      16A     -1.145270    17A     -1.073805    18A     -1.023988
      19A     -1.010181    20A     -1.008158    21A     -0.957299
      22A     -0.896322    23A     -0.828121    24A     -0.822858
      25A     -0.802998    26A     -0.774654    27A     -0.693399
      28A     -0.667996    29A     -0.648437    30A     -0.635136
      31A     -0.628667    32A     -0.617730    33A     -0.582808
      34A     -0.578792    35A     -0.574187    36A     -0.569132
      37A     -0.559846    38A     -0.548949    39A     -0.528461
      40A     -0.502910    41A     -0.491437    42A     -0.490245
      43A     -0.477769    44A     -0.473505    45A     -0.471210
      46A     -0.337108    47A     -0.333717    48A     -0.329280
      49A     -0.307286

  @DF-RHF Final Energy:  -538.49380535799673

   => Energetics <=

    Nuclear Repulsion Energy =            785.9515580548381877
    One-Electron Energy =               -2287.2745961020550567
    Two-Electron Energy =                 962.8292326892201345
    Total Energy =                       -538.4938053579967345
  Basis Set: (AUG-CC-PVTZ AUX)
    Blend: AUG-CC-PVTZ-RI
    Molecular point group: c1

    Geometry (in Angstrom), charge = 0, multiplicity = 1:

       Center              X                  Y                   Z               Mass
    ------------   -----------------  -----------------  -----------------  -----------------
         C           -0.552878399215     1.595814990847    -0.221128614984    12.000000000000
         C            0.781310600785     0.888665990847    -0.158240614984    12.000000000000
         C           -1.709782399215     0.640024990847    -0.036972614984    12.000000000000
         C            1.753356600785     1.243191990847     0.782273385016    12.000000000000
         C            1.070860600785    -0.149859009153    -1.054657614984    12.000000000000
         C            3.275396600785    -0.453784009153    -0.068225614984    12.000000000000
         C            2.981338600785     0.578631990847     0.828447385016    12.000000000000
         C            2.297283600785    -0.808287009153    -1.008966614984    12.000000000000
         C           -1.796587399215    -0.137485009153     1.126912385016    12.000000000000
         C           -2.704095399215     0.504809990847    -1.011828614984    12.000000000000
         C            4.583340600785    -1.198441009153     0.002472385016    12.000000000000
         C           -2.857033399215    -1.022927009153     1.313009385016    12.000000000000
         C           -3.766926399215    -0.384663009153    -0.830577614984    12.000000000000
         C           -3.846718399215    -1.149655009153     0.333348385016    12.000000000000
         H           -0.659197399215     2.110844990847    -1.184961614984     1.007825032230
         H           -0.585694399215     2.374976990847     0.551764385016     1.007825032230
         H            1.551098600785     2.050068990847     1.485600385016     1.007825032230
         H            0.321733600785    -0.448642009153    -1.786766614984     1.007825032230
         H            3.723828600785     0.874271990847     1.568510385016     1.007825032230
         H            2.503249600785    -1.608486009153    -1.718874614984     1.007825032230
         H           -1.018632399215    -0.052032009153     1.884166385016     1.007825032230
         H           -2.648051399215     1.102432990847    -1.920584614984     1.007825032230
         H            4.924147600785    -1.509467709153    -0.989464914984     1.007825032230
         H            5.362590600785    -0.582088009153     0.459724385016     1.007825032230
         H            4.487779600785    -2.111675009153     0.600158385016     1.007825032230
         H           -2.911682399215    -1.617961009153     2.221906385016     1.007825032230
         H           -4.530873399215    -0.478748009153    -1.599100614984     1.007825032230
         H           -4.672441399215    -1.842356009153     0.477152385016     1.007825032230

  Basis Set: AUG-CC-PVTZ
    Blend: AUG-CC-PVTZ
  Basis Set: (AUG-CC-PVTZ AUX)
    Blend: AUG-CC-PVTZ-JKFIT
	 Reference Energy          =    -538.4938053579967345 [Eh]
	 Singles Energy            =      -0.0000000000000000 [Eh]
	 Same-Spin Energy          =      -0.6081938624476478 [Eh]
	 Opposite-Spin Energy      =      -1.9347276849926265 [Eh]
	 Correlation Energy        =      -2.5429215474402742 [Eh]
	 Total Energy              =    -541.0367269054370354 [Eh]

	 ================> DF-SCS-MP2 Energies <==================
	-----------------------------------------------------------
	 SCS Same-Spin Scale       =       0.3333333333333333 [-]
	 SCS Opposite-Spin Scale   =       1.2000000000000000 [-]
	 SCS Same-Spin Energy      =      -0.2027312874825493 [Eh]
	 SCS Opposite-Spin Energy  =      -2.3216732219911518 [Eh]
	 SCS Correlation Energy    =      -2.5244045094737011 [Eh]
	 SCS Total Energy          =    -541.0182098674704321 [Eh]
	-----------------------------------------------------------

  Dipole Moment: [D]
     X:     0.3617      Y:    -0.1358      Z:     0.0101     Total:     0.3864

*** Psi4 exiting successfully. Buy a developer a beer!
