                               Psi4 1.4a3.dev225

  ==> Input File <==

--------------------------------------------------------------------------
#psi4
#
memory 32 gb

molecule  {
0 1
  C       -0.5824800     1.6044310    -0.2213210
  C        0.7517090     0.8972820    -0.1584330
  C       -1.7393840     0.6486410    -0.0371650
  C        1.7237550     1.2518080     0.7820810
  C        1.0412590    -0.1412430    -1.0548500
  C        3.2457950    -0.4451680    -0.0684180
  C        2.9517370     0.5872480     0.8282550
  C        2.2676820    -0.7996710    -1.0091590
  C       -1.8261890    -0.1288690     1.1267200
  C       -2.7336970     0.5134260    -1.0120210
  C        4.5537390    -1.1898250     0.0022800
  C       -2.8866350    -1.0143110     1.3128170
  C       -3.8117361    -0.3887745    -0.8281765
  C       -3.8763200    -1.1410390     0.3331560
  H       -0.6887990     2.1194610    -1.1851540
  H       -0.6152960     2.3835930     0.5515720
  H        1.5214970     2.0586850     1.4854080
  H        0.2921320    -0.4400260    -1.7869590
  H        3.6942270     0.8828880     1.5683180
  H        2.4736480    -1.5998700    -1.7190670
  H       -1.0482340    -0.0434160     1.8839740
  H       -2.6776530     1.1110490    -1.9207770
  H        4.8944640    -1.4825890    -0.9952280
  H        5.3329890    -0.5734720     0.4595320
  H        4.4581780    -2.1030590     0.5999660
  H       -2.9412840    -1.6093450     2.2217140
  H       -4.5604750    -0.4701320    -1.5992930
  H       -4.7020430    -1.8337400     0.4769600
units angstrom
no_reorient  #important for SAPT in psi4, default
symmetry c1  #important for SAPT in psi4, default
}

set PROPERTIES_ORIGIN ["COM"]
properties('MP2/aug-cc-pvtz', properties = ['dipole'])
--------------------------------------------------------------------------

    Molecular point group: c1
  Charge       = 0
  Multiplicity = 1
  Basis Set: AUG-CC-PVTZ
    Blend: AUG-CC-PVTZ
  Basis Set: (AUG-CC-PVTZ AUX)
    Blend: AUG-CC-PVTZ-JKFIT

    Orbital Energies [Eh]
    ---------------------

    Doubly Occupied:

       1A    -11.240999     2A    -11.238390     3A    -11.236910
       4A    -11.235280     5A    -11.235252     6A    -11.234645
       7A    -11.233311     8A    -11.231203     9A    -11.230551
      10A    -11.229880    11A    -11.229814    12A    -11.229158
      13A    -11.228653    14A    -11.222985    15A     -1.160296
      16A     -1.144721    17A     -1.074067    18A     -1.024648
      19A     -1.008576    20A     -1.007778    21A     -0.957512
      22A     -0.895976    23A     -0.828609    24A     -0.823916
      25A     -0.802053    26A     -0.774572    27A     -0.693210
      28A     -0.667814    29A     -0.648226    30A     -0.636204
      31A     -0.628706    32A     -0.617359    33A     -0.583540
      34A     -0.578773    35A     -0.574910    36A     -0.569221
      37A     -0.559695    38A     -0.548412    39A     -0.528090
      40A     -0.501918    41A     -0.492985    42A     -0.489891
      43A     -0.477548    44A     -0.473828    45A     -0.470463
      46A     -0.337398    47A     -0.331884    48A     -0.329652
      49A     -0.307897

  @DF-RHF Final Energy:  -538.49333587020249

   => Energetics <=

    Nuclear Repulsion Energy =            785.7162074799783795
    One-Electron Energy =               -2286.8043285580365591
    Two-Electron Energy =                 962.5947852078555798
    Total Energy =                       -538.4933358702024861
  Basis Set: (AUG-CC-PVTZ AUX)
    Blend: AUG-CC-PVTZ-RI
    Molecular point group: c1

    Geometry (in Angstrom), charge = 0, multiplicity = 1:

       Center              X                  Y                   Z               Mass
    ------------   -----------------  -----------------  -----------------  -----------------
         C           -0.551875816752     1.596552592985    -0.221268682921    12.000000000000
         C            0.782313183248     0.889403592985    -0.158380682921    12.000000000000
         C           -1.708779816752     0.640762592985    -0.037112682921    12.000000000000
         C            1.754359183248     1.243929592985     0.782133317079    12.000000000000
         C            1.071863183248    -0.149121407015    -1.054797682921    12.000000000000
         C            3.276399183248    -0.453046407015    -0.068365682921    12.000000000000
         C            2.982341183248     0.579369592985     0.828307317079    12.000000000000
         C            2.298286183248    -0.807549407015    -1.009106682921    12.000000000000
         C           -1.795584816752    -0.136747407015     1.126772317079    12.000000000000
         C           -2.703092816752     0.505547592985    -1.011968682921    12.000000000000
         C            4.584343183248    -1.197703407015     0.002332317079    12.000000000000
         C           -2.856030816752    -1.022189407015     1.312869317079    12.000000000000
         C           -3.781131916752    -0.396652907015    -0.828124182921    12.000000000000
         C           -3.845715816752    -1.148917407015     0.333208317079    12.000000000000
         H           -0.658194816752     2.111582592985    -1.185101682921     1.007825032230
         H           -0.584691816752     2.375714592985     0.551624317079     1.007825032230
         H            1.552101183248     2.050806592985     1.485460317079     1.007825032230
         H            0.322736183248    -0.447904407015    -1.786906682921     1.007825032230
         H            3.724831183248     0.875009592985     1.568370317079     1.007825032230
         H            2.504252183248    -1.607748407015    -1.719014682921     1.007825032230
         H           -1.017629816752    -0.051294407015     1.884026317079     1.007825032230
         H           -2.647048816752     1.103170592985    -1.920724682921     1.007825032230
         H            4.925068183248    -1.490467407015    -0.995175682921     1.007825032230
         H            5.363593183248    -0.581350407015     0.459584317079     1.007825032230
         H            4.488782183248    -2.110937407015     0.600018317079     1.007825032230
         H           -2.910679816752    -1.617223407015     2.221766317079     1.007825032230
         H           -4.529870816752    -0.478010407015    -1.599240682921     1.007825032230
         H           -4.671438816752    -1.841618407015     0.477012317079     1.007825032230

  Basis Set: AUG-CC-PVTZ
    Blend: AUG-CC-PVTZ
  Basis Set: (AUG-CC-PVTZ AUX)
    Blend: AUG-CC-PVTZ-JKFIT
	 Reference Energy          =    -538.4933358702024861 [Eh]
	 Singles Energy            =      -0.0000000000000000 [Eh]
	 Same-Spin Energy          =      -0.6081378557800179 [Eh]
	 Opposite-Spin Energy      =      -1.9347843798051187 [Eh]
	 Correlation Energy        =      -2.5429222355851366 [Eh]
	 Total Energy              =    -541.0362581057876241 [Eh]

	 ================> DF-SCS-MP2 Energies <==================
	-----------------------------------------------------------
	 SCS Same-Spin Scale       =       0.3333333333333333 [-]
	 SCS Opposite-Spin Scale   =       1.2000000000000000 [-]
	 SCS Same-Spin Energy      =      -0.2027126185933393 [Eh]
	 SCS Opposite-Spin Energy  =      -2.3217412557661423 [Eh]
	 SCS Correlation Energy    =      -2.5244538743594815 [Eh]
	 SCS Total Energy          =    -541.0177897445619237 [Eh]
	-----------------------------------------------------------

  Dipole Moment: [D]
     X:     0.3633      Y:    -0.1286      Z:     0.0053     Total:     0.3854

*** Psi4 exiting successfully. Buy a developer a beer!
