                               Psi4 1.4a3.dev225

  ==> Input File <==

--------------------------------------------------------------------------
#psi4
#
memory 32 gb

molecule  {
0 1
  C       -0.5824800     1.6044310    -0.2213210
  C        0.7517090     0.8972820    -0.1584330
  C       -1.7393840     0.6486410    -0.0371650
  C        1.7237550     1.2518080     0.7820810
  C        1.0412590    -0.1412430    -1.0548500
  C        3.2457950    -0.4451680    -0.0684180
  C        2.9517370     0.5872480     0.8282550
  C        2.2676820    -0.7996710    -1.0091590
  C       -1.8261890    -0.1288690     1.1267200
  C       -2.7336970     0.5134260    -1.0120210
  C        4.5537390    -1.1898250     0.0022800
  C       -2.8866350    -1.0143110     1.3128170
  C       -3.7965280    -0.3760470    -0.8307700
  C       -3.8763200    -1.1410390     0.3331560
  H       -0.6887990     2.1194610    -1.1851540
  H       -0.6152960     2.3835930     0.5515720
  H        1.5252105     2.0438707     1.4724949
  H        0.2921320    -0.4400260    -1.7869590
  H        3.6942270     0.8828880     1.5683180
  H        2.4736480    -1.5998700    -1.7190670
  H       -1.0482340    -0.0434160     1.8839740
  H       -2.6776530     1.1110490    -1.9207770
  H        4.8944640    -1.4825890    -0.9952280
  H        5.3329890    -0.5734720     0.4595320
  H        4.4581780    -2.1030590     0.5999660
  H       -2.9412840    -1.6093450     2.2217140
  H       -4.5604750    -0.4701320    -1.5992930
  H       -4.7020430    -1.8337400     0.4769600
units angstrom
no_reorient  #important for SAPT in psi4, default
symmetry c1  #important for SAPT in psi4, default
}

set PROPERTIES_ORIGIN ["COM"]
properties('MP2/aug-cc-pvtz', properties = ['dipole'])
--------------------------------------------------------------------------

    Molecular point group: c1
  Charge       = 0
  Multiplicity = 1
  Basis Set: AUG-CC-PVTZ
    Blend: AUG-CC-PVTZ
  Basis Set: (AUG-CC-PVTZ AUX)
    Blend: AUG-CC-PVTZ-JKFIT

    Orbital Energies [Eh]
    ---------------------

    Doubly Occupied:

       1A    -11.241090     2A    -11.238228     3A    -11.236730
       4A    -11.235298     5A    -11.235034     6A    -11.234550
       7A    -11.231521     8A    -11.231272     9A    -11.229789
      10A    -11.229526    11A    -11.229449    12A    -11.228549
      13A    -11.228223    14A    -11.222890    15A     -1.160666
      16A     -1.145250    17A     -1.073789    18A     -1.024106
      19A     -1.010188    20A     -1.008549    21A     -0.957248
      22A     -0.896285    23A     -0.828633    24A     -0.823141
      25A     -0.803271    26A     -0.774883    27A     -0.693415
      28A     -0.668519    29A     -0.648291    30A     -0.635267
      31A     -0.629916    32A     -0.617795    33A     -0.582822
      34A     -0.579627    35A     -0.575218    36A     -0.569473
      37A     -0.560166    38A     -0.548368    39A     -0.527942
      40A     -0.502903    41A     -0.491590    42A     -0.490306
      43A     -0.478068    44A     -0.473412    45A     -0.471213
      46A     -0.337039    47A     -0.333684    48A     -0.329226
      49A     -0.307222

  @DF-RHF Final Energy:  -538.49398307315607

   => Energetics <=

    Nuclear Repulsion Energy =            786.0716421747848699
    One-Electron Energy =               -2287.5119687326205167
    Two-Electron Energy =                 962.9463434846796872
    Total Energy =                       -538.4939830731560733
  Basis Set: (AUG-CC-PVTZ AUX)
    Blend: AUG-CC-PVTZ-RI
    Molecular point group: c1

    Geometry (in Angstrom), charge = 0, multiplicity = 1:

       Center              X                  Y                   Z               Mass
    ------------   -----------------  -----------------  -----------------  -----------------
         C           -0.552898496549     1.595795906819    -0.221026322510    12.000000000000
         C            0.781290503451     0.888646906819    -0.158138322510    12.000000000000
         C           -1.709802496549     0.640005906819    -0.036870322510    12.000000000000
         C            1.753336503451     1.243172906819     0.782375677490    12.000000000000
         C            1.070840503451    -0.149878093181    -1.054555322510    12.000000000000
         C            3.275376503451    -0.453803093181    -0.068123322510    12.000000000000
         C            2.981318503451     0.578612906819     0.828549677490    12.000000000000
         C            2.297263503451    -0.808306093181    -1.008864322510    12.000000000000
         C           -1.796607496549    -0.137504093181     1.127014677490    12.000000000000
         C           -2.704115496549     0.504790906819    -1.011726322510    12.000000000000
         C            4.583320503451    -1.198460093181     0.002574677490    12.000000000000
         C           -2.857053496549    -1.022946093181     1.313111677490    12.000000000000
         C           -3.766946496549    -0.384682093181    -0.830475322510    12.000000000000
         C           -3.846738496549    -1.149674093181     0.333450677490    12.000000000000
         H           -0.659217496549     2.110825906819    -1.184859322510     1.007825032230
         H           -0.585714496549     2.374957906819     0.551866677490     1.007825032230
         H            1.554792003451     2.035235606819     1.472789577490     1.007825032230
         H            0.321713503451    -0.448661093181    -1.786664322510     1.007825032230
         H            3.723808503451     0.874252906819     1.568612677490     1.007825032230
         H            2.503229503451    -1.608505093181    -1.718772322510     1.007825032230
         H           -1.018652496549    -0.052051093181     1.884268677490     1.007825032230
         H           -2.648071496549     1.102413906819    -1.920482322510     1.007825032230
         H            4.924045503451    -1.491224093181    -0.994933322510     1.007825032230
         H            5.362570503451    -0.582107093181     0.459826677490     1.007825032230
         H            4.487759503451    -2.111694093181     0.600260677490     1.007825032230
         H           -2.911702496549    -1.617980093181     2.222008677490     1.007825032230
         H           -4.530893496549    -0.478767093181    -1.598998322510     1.007825032230
         H           -4.672461496549    -1.842375093181     0.477254677490     1.007825032230

  Basis Set: AUG-CC-PVTZ
    Blend: AUG-CC-PVTZ
  Basis Set: (AUG-CC-PVTZ AUX)
    Blend: AUG-CC-PVTZ-JKFIT
	 Reference Energy          =    -538.4939830731560733 [Eh]
	 Singles Energy            =      -0.0000000000000000 [Eh]
	 Same-Spin Energy          =      -0.6081474738157849 [Eh]
	 Opposite-Spin Energy      =      -1.9345809955312465 [Eh]
	 Correlation Energy        =      -2.5427284693470313 [Eh]
	 Total Energy              =    -541.0367115425030988 [Eh]

	 ================> DF-SCS-MP2 Energies <==================
	-----------------------------------------------------------
	 SCS Same-Spin Scale       =       0.3333333333333333 [-]
	 SCS Opposite-Spin Scale   =       1.2000000000000000 [-]
	 SCS Same-Spin Energy      =      -0.2027158246052616 [Eh]
	 SCS Opposite-Spin Energy  =      -2.3214971946374958 [Eh]
	 SCS Correlation Energy    =      -2.5242130192427576 [Eh]
	 SCS Total Energy          =    -541.0181960923988527 [Eh]
	-----------------------------------------------------------

  Dipole Moment: [D]
     X:     0.3596      Y:    -0.1228      Z:     0.0150     Total:     0.3803

*** Psi4 exiting successfully. Buy a developer a beer!
