                               Psi4 1.4a3.dev225

  ==> Input File <==

--------------------------------------------------------------------------
#psi4
#
memory 32 gb

molecule  {
0 1
  C       -0.5824800     1.6044310    -0.2213210
  C        0.7517090     0.8972820    -0.1584330
  C       -1.7393840     0.6486410    -0.0371650
  C        1.7237550     1.2518080     0.7820810
  C        1.0412590    -0.1412430    -1.0548500
  C        3.2457950    -0.4451680    -0.0684180
  C        2.9517370     0.5872480     0.8282550
  C        2.2676820    -0.7996710    -1.0091590
  C       -1.8261890    -0.1288690     1.1267200
  C       -2.7336970     0.5134260    -1.0120210
  C        4.5537390    -1.1898250     0.0022800
  C       -2.8866350    -1.0143110     1.3128170
  C       -3.7965280    -0.3760470    -0.8307700
  C       -3.8763200    -1.1410390     0.3331560
  H       -0.6887990     2.1194610    -1.1851540
  H       -0.6152960     2.3835930     0.5515720
  H        1.5214970     2.0586850     1.4854080
  H        0.2921320    -0.4400260    -1.7869590
  H        3.6942270     0.8828880     1.5683180
  H        2.4736480    -1.5998700    -1.7190670
  H       -1.0482340    -0.0434160     1.8839740
  H       -2.6776530     1.1110490    -1.9207770
  H        4.8944640    -1.4825890    -0.9952280
  H        5.3329890    -0.5734720     0.4595320
  H        4.4564336    -2.1197298     0.6108766
  H       -2.9412840    -1.6093450     2.2217140
  H       -4.5604750    -0.4701320    -1.5992930
  H       -4.7020430    -1.8337400     0.4769600
units angstrom
no_reorient  #important for SAPT in psi4, default
symmetry c1  #important for SAPT in psi4, default
}

set PROPERTIES_ORIGIN ["COM"]
properties('MP2/aug-cc-pvtz', properties = ['dipole'])
--------------------------------------------------------------------------

    Molecular point group: c1
  Charge       = 0
  Multiplicity = 1
  Basis Set: AUG-CC-PVTZ
    Blend: AUG-CC-PVTZ
  Basis Set: (AUG-CC-PVTZ AUX)
    Blend: AUG-CC-PVTZ-JKFIT

    Orbital Energies [Eh]
    ---------------------

    Doubly Occupied:

       1A    -11.241109     2A    -11.238519     3A    -11.237032
       4A    -11.235339     5A    -11.235052     6A    -11.234565
       7A    -11.231544     8A    -11.231292     9A    -11.231258
      10A    -11.229976    11A    -11.229462    12A    -11.229262
      13A    -11.228748    14A    -11.225378    15A     -1.160703
      16A     -1.145291    17A     -1.073737    18A     -1.023767
      19A     -1.010198    20A     -1.008204    21A     -0.956649
      22A     -0.895554    23A     -0.828162    24A     -0.822881
      25A     -0.802853    26A     -0.774540    27A     -0.693403
      28A     -0.667723    29A     -0.648458    30A     -0.635131
      31A     -0.628578    32A     -0.617731    33A     -0.582805
      34A     -0.578802    35A     -0.573493    36A     -0.567875
      37A     -0.559916    38A     -0.548523    39A     -0.528125
      40A     -0.502722    41A     -0.491420    42A     -0.490260
      43A     -0.477688    44A     -0.473502    45A     -0.471074
      46A     -0.337132    47A     -0.333742    48A     -0.329292
      49A     -0.307281

  @DF-RHF Final Energy:  -538.49332896907038

   => Energetics <=

    Nuclear Repulsion Energy =            785.8802212129888858
    One-Electron Energy =               -2287.1355981814745064
    Two-Electron Energy =                 962.7620479994151310
    Total Energy =                       -538.4933289690703759
  Basis Set: (AUG-CC-PVTZ AUX)
    Blend: AUG-CC-PVTZ-RI
    Molecular point group: c1

    Geometry (in Angstrom), charge = 0, multiplicity = 1:

       Center              X                  Y                   Z               Mass
    ------------   -----------------  -----------------  -----------------  -----------------
         C           -0.552868291608     1.595806181004    -0.221158166893    12.000000000000
         C            0.781320708392     0.888657181004    -0.158270166893    12.000000000000
         C           -1.709772291608     0.640016181004    -0.037002166893    12.000000000000
         C            1.753366708392     1.243183181004     0.782243833107    12.000000000000
         C            1.070870708392    -0.149867818996    -1.054687166893    12.000000000000
         C            3.275406708392    -0.453792818996    -0.068255166893    12.000000000000
         C            2.981348708392     0.578623181004     0.828417833107    12.000000000000
         C            2.297293708392    -0.808295818996    -1.008996166893    12.000000000000
         C           -1.796577291608    -0.137493818996     1.126882833107    12.000000000000
         C           -2.704085291608     0.504801181004    -1.011858166893    12.000000000000
         C            4.583350708392    -1.198449818996     0.002442833107    12.000000000000
         C           -2.857023291608    -1.022935818996     1.312979833107    12.000000000000
         C           -3.766916291608    -0.384671818996    -0.830607166893    12.000000000000
         C           -3.846708291608    -1.149663818996     0.333318833107    12.000000000000
         H           -0.659187291608     2.110836181004    -1.184991166893     1.007825032230
         H           -0.585684291608     2.374968181004     0.551734833107     1.007825032230
         H            1.551108708392     2.050060181004     1.485570833107     1.007825032230
         H            0.321743708392    -0.448650818996    -1.786796166893     1.007825032230
         H            3.723838708392     0.874263181004     1.568480833107     1.007825032230
         H            2.503259708392    -1.608494818996    -1.718904166893     1.007825032230
         H           -1.018622291608    -0.052040818996     1.884136833107     1.007825032230
         H           -2.648041291608     1.102424181004    -1.920614166893     1.007825032230
         H            4.924075708392    -1.491213818996    -0.995065166893     1.007825032230
         H            5.362600708392    -0.582096818996     0.459694833107     1.007825032230
         H            4.486045308392    -2.128354618996     0.611039433107     1.007825032230
         H           -2.911672291608    -1.617969818996     2.221876833107     1.007825032230
         H           -4.530863291608    -0.478756818996    -1.599130166893     1.007825032230
         H           -4.672431291608    -1.842364818996     0.477122833107     1.007825032230

  Basis Set: AUG-CC-PVTZ
    Blend: AUG-CC-PVTZ
  Basis Set: (AUG-CC-PVTZ AUX)
    Blend: AUG-CC-PVTZ-JKFIT
	 Reference Energy          =    -538.4933289690703759 [Eh]
	 Singles Energy            =      -0.0000000000000000 [Eh]
	 Same-Spin Energy          =      -0.6081901106010189 [Eh]
	 Opposite-Spin Energy      =      -1.9348601612164809 [Eh]
	 Correlation Energy        =      -2.5430502718174997 [Eh]
	 Total Energy              =    -541.0363792408878680 [Eh]

	 ================> DF-SCS-MP2 Energies <==================
	-----------------------------------------------------------
	 SCS Same-Spin Scale       =       0.3333333333333333 [-]
	 SCS Opposite-Spin Scale   =       1.2000000000000000 [-]
	 SCS Same-Spin Energy      =      -0.2027300368670063 [Eh]
	 SCS Opposite-Spin Energy  =      -2.3218321934597768 [Eh]
	 SCS Correlation Energy    =      -2.5245622303267830 [Eh]
	 SCS Total Energy          =    -541.0178911993971269 [Eh]
	-----------------------------------------------------------

  Dipole Moment: [D]
     X:     0.3566      Y:    -0.1200      Z:     0.0057     Total:     0.3763

*** Psi4 exiting successfully. Buy a developer a beer!
