                               Psi4 1.4a3.dev225

  ==> Input File <==

--------------------------------------------------------------------------
#psi4
#
memory 32 gb

molecule  {
0 1
  C       -0.5824800     1.6044310    -0.2213210
  C        0.7517090     0.8972820    -0.1584330
  C       -1.7393840     0.6486410    -0.0371650
  C        1.7237550     1.2518080     0.7820810
  C        1.0412590    -0.1412430    -1.0548500
  C        3.2457950    -0.4451680    -0.0684180
  C        2.9517370     0.5872480     0.8282550
  C        2.2676820    -0.7996710    -1.0091590
  C       -1.8261890    -0.1288690     1.1267200
  C       -2.7336970     0.5134260    -1.0120210
  C        4.5537390    -1.1898250     0.0022800
  C       -2.8866350    -1.0143110     1.3128170
  C       -3.7965280    -0.3760470    -0.8307700
  C       -3.8763200    -1.1410390     0.3331560
  H       -0.6887990     2.1194610    -1.1851540
  H       -0.6152960     2.3835930     0.5515720
  H        1.5214970     2.0586850     1.4854080
  H        0.2921320    -0.4400260    -1.7869590
  H        3.6942270     0.8828880     1.5683180
  H        2.4736480    -1.5998700    -1.7190670
  H       -1.0482340    -0.0434160     1.8839740
  H       -2.6776530     1.1110490    -1.9207770
  H        4.8945241    -1.5190196    -0.9837843
  H        5.3329890    -0.5734720     0.4595320
  H        4.4581780    -2.1030590     0.5999660
  H       -2.9412840    -1.6093450     2.2217140
  H       -4.5604750    -0.4701320    -1.5992930
  H       -4.7020430    -1.8337400     0.4769600
units angstrom
no_reorient  #important for SAPT in psi4, default
symmetry c1  #important for SAPT in psi4, default
}

set PROPERTIES_ORIGIN ["COM"]
properties('MP2/aug-cc-pvtz', properties = ['dipole'])
--------------------------------------------------------------------------

    Molecular point group: c1
  Charge       = 0
  Multiplicity = 1
  Basis Set: AUG-CC-PVTZ
    Blend: AUG-CC-PVTZ
  Basis Set: (AUG-CC-PVTZ AUX)
    Blend: AUG-CC-PVTZ-JKFIT

    Orbital Energies [Eh]
    ---------------------

    Doubly Occupied:

       1A    -11.241089     2A    -11.238669     3A    -11.236973
       4A    -11.235307     5A    -11.235038     6A    -11.234551
       7A    -11.231527     8A    -11.231284     9A    -11.231277
      10A    -11.229929    11A    -11.229445    12A    -11.229300
      13A    -11.228701    14A    -11.223001    15A     -1.160685
      16A     -1.145282    17A     -1.073799    18A     -1.023972
      19A     -1.010186    20A     -1.008185    21A     -0.957311
      22A     -0.896406    23A     -0.828140    24A     -0.822873
      25A     -0.803052    26A     -0.774714    27A     -0.693414
      28A     -0.668125    29A     -0.648503    30A     -0.635163
      31A     -0.628781    32A     -0.617773    33A     -0.582807
      34A     -0.578825    35A     -0.573331    36A     -0.568718
      37A     -0.559795    38A     -0.549443    39A     -0.528879
      40A     -0.502910    41A     -0.491487    42A     -0.490268
      43A     -0.477910    44A     -0.473499    45A     -0.471105
      46A     -0.337117    47A     -0.333726    48A     -0.329275
      49A     -0.307257

  @DF-RHF Final Energy:  -538.49370632727096

   => Energetics <=

    Nuclear Repulsion Energy =            785.9382605122115137
    One-Electron Energy =               -2287.2463271707110835
    Two-Electron Energy =                 962.8143603312287269
    Total Energy =                       -538.4937063272709565
  Basis Set: (AUG-CC-PVTZ AUX)
    Blend: AUG-CC-PVTZ-RI
    Molecular point group: c1

    Geometry (in Angstrom), charge = 0, multiplicity = 1:

       Center              X                  Y                   Z               Mass
    ------------   -----------------  -----------------  -----------------  -----------------
         C           -0.552878278016     1.595915535077    -0.221161117158    12.000000000000
         C            0.781310721984     0.888766535077    -0.158273117158    12.000000000000
         C           -1.709782278016     0.640125535077    -0.037005117158    12.000000000000
         C            1.753356721984     1.243292535077     0.782240882842    12.000000000000
         C            1.070860721984    -0.149758464923    -1.054690117158    12.000000000000
         C            3.275396721984    -0.453683464923    -0.068258117158    12.000000000000
         C            2.981338721984     0.578732535077     0.828414882842    12.000000000000
         C            2.297283721984    -0.808186464923    -1.008999117158    12.000000000000
         C           -1.796587278016    -0.137384464923     1.126879882842    12.000000000000
         C           -2.704095278016     0.504910535077    -1.011861117158    12.000000000000
         C            4.583340721984    -1.198340464923     0.002439882842    12.000000000000
         C           -2.857033278016    -1.022826464923     1.312976882842    12.000000000000
         C           -3.766926278016    -0.384562464923    -0.830610117158    12.000000000000
         C           -3.846718278016    -1.149554464923     0.333315882842    12.000000000000
         H           -0.659197278016     2.110945535077    -1.184994117158     1.007825032230
         H           -0.585694278016     2.375077535077     0.551731882842     1.007825032230
         H            1.551098721984     2.050169535077     1.485567882842     1.007825032230
         H            0.321733721984    -0.448541464923    -1.786799117158     1.007825032230
         H            3.723828721984     0.874372535077     1.568477882842     1.007825032230
         H            2.503249721984    -1.608385464923    -1.718907117158     1.007825032230
         H           -1.018632278016    -0.051931464923     1.884133882842     1.007825032230
         H           -2.648051278016     1.102533535077    -1.920617117158     1.007825032230
         H            4.924125821984    -1.527535064923    -0.983624417158     1.007825032230
         H            5.362590721984    -0.581987464923     0.459691882842     1.007825032230
         H            4.487779721984    -2.111574464923     0.600125882842     1.007825032230
         H           -2.911682278016    -1.617860464923     2.221873882842     1.007825032230
         H           -4.530873278016    -0.478647464923    -1.599133117158     1.007825032230
         H           -4.672441278016    -1.842255464923     0.477119882842     1.007825032230

  Basis Set: AUG-CC-PVTZ
    Blend: AUG-CC-PVTZ
  Basis Set: (AUG-CC-PVTZ AUX)
    Blend: AUG-CC-PVTZ-JKFIT
	 Reference Energy          =    -538.4937063272709565 [Eh]
	 Singles Energy            =      -0.0000000000000000 [Eh]
	 Same-Spin Energy          =      -0.6081971871129422 [Eh]
	 Opposite-Spin Energy      =      -1.9347208540649865 [Eh]
	 Correlation Energy        =      -2.5429180411779289 [Eh]
	 Total Energy              =    -541.0366243684488836 [Eh]

	 ================> DF-SCS-MP2 Energies <==================
	-----------------------------------------------------------
	 SCS Same-Spin Scale       =       0.3333333333333333 [-]
	 SCS Opposite-Spin Scale   =       1.2000000000000000 [-]
	 SCS Same-Spin Energy      =      -0.2027323957043141 [Eh]
	 SCS Opposite-Spin Energy  =      -2.3216650248779835 [Eh]
	 SCS Correlation Energy    =      -2.5243974205822974 [Eh]
	 SCS Total Energy          =    -541.0181037478532744 [Eh]
	-----------------------------------------------------------

  Dipole Moment: [D]
     X:     0.3605      Y:    -0.1420      Z:     0.0103     Total:     0.3876

*** Psi4 exiting successfully. Buy a developer a beer!
