                               Psi4 1.4a3.dev225

  ==> Input File <==

--------------------------------------------------------------------------
#psi4
#
memory 32 gb

molecule  {
0 1
  C       -0.5824800     1.6044310    -0.2213210
  C        0.7517090     0.8972820    -0.1584330
  C       -1.7393840     0.6486410    -0.0371650
  C        1.7237550     1.2518080     0.7820810
  C        1.0412590    -0.1412430    -1.0548500
  C        3.1851597    -0.5598568     0.0212645
  C        2.9517370     0.5872480     0.8282550
  C        2.2676820    -0.7996710    -1.0091590
  C       -1.8261890    -0.1288690     1.1267200
  C       -2.7336970     0.5134260    -1.0120210
  C        4.5537390    -1.1898250     0.0022800
  C       -2.8866350    -1.0143110     1.3128170
  C       -3.7965280    -0.3760470    -0.8307700
  C       -3.8763200    -1.1410390     0.3331560
  H       -0.6887990     2.1194610    -1.1851540
  H       -0.6152960     2.3835930     0.5515720
  H        1.5214970     2.0586850     1.4854080
  H        0.2921320    -0.4400260    -1.7869590
  H        3.6942270     0.8828880     1.5683180
  H        2.4736480    -1.5998700    -1.7190670
  H       -1.0482340    -0.0434160     1.8839740
  H       -2.6776530     1.1110490    -1.9207770
  H        4.8944640    -1.4825890    -0.9952280
  H        5.3329890    -0.5734720     0.4595320
  H        4.4581780    -2.1030590     0.5999660
  H       -2.9412840    -1.6093450     2.2217140
  H       -4.5604750    -0.4701320    -1.5992930
  H       -4.7020430    -1.8337400     0.4769600
units angstrom
no_reorient  #important for SAPT in psi4, default
symmetry c1  #important for SAPT in psi4, default
}

set PROPERTIES_ORIGIN ["COM"]
properties('MP2/aug-cc-pvtz', properties = ['dipole'])
--------------------------------------------------------------------------

    Molecular point group: c1
  Charge       = 0
  Multiplicity = 1
  Basis Set: AUG-CC-PVTZ
    Blend: AUG-CC-PVTZ
  Basis Set: (AUG-CC-PVTZ AUX)
    Blend: AUG-CC-PVTZ-JKFIT

    Orbital Energies [Eh]
    ---------------------

    Doubly Occupied:

       1A    -11.241145     2A    -11.240870     3A    -11.237304
       4A    -11.235357     5A    -11.235043     6A    -11.234556
       7A    -11.232802     8A    -11.231520     9A    -11.231267
      10A    -11.230487    11A    -11.230094    12A    -11.229478
      13A    -11.228543    14A    -11.223013    15A     -1.160172
      16A     -1.144579    17A     -1.073323    18A     -1.024162
      19A     -1.010173    20A     -1.007446    21A     -0.957290
      22A     -0.895616    23A     -0.827383    24A     -0.822154
      25A     -0.802313    26A     -0.774541    27A     -0.693341
      28A     -0.667515    29A     -0.647175    30A     -0.635093
      31A     -0.629377    32A     -0.617428    33A     -0.582790
      34A     -0.578040    35A     -0.576192    36A     -0.570365
      37A     -0.558298    38A     -0.548667    39A     -0.528402
      40A     -0.499749    41A     -0.492695    42A     -0.490312
      43A     -0.477564    44A     -0.474750    45A     -0.466757
      46A     -0.336041    47A     -0.333185    48A     -0.329799
      49A     -0.305915

  @DF-RHF Final Energy:  -538.48487232987270

   => Energetics <=

    Nuclear Repulsion Energy =            785.8774267927074106
    One-Electron Energy =               -2287.1244401167414253
    Two-Electron Energy =                 962.7621409941613138
    Total Energy =                       -538.4848723298727009
  Basis Set: (AUG-CC-PVTZ AUX)
    Blend: AUG-CC-PVTZ-RI
    Molecular point group: c1

    Geometry (in Angstrom), charge = 0, multiplicity = 1:

       Center              X                  Y                   Z               Mass
    ------------   -----------------  -----------------  -----------------  -----------------
         C           -0.548882418554     1.603271271918    -0.227007360532    12.000000000000
         C            0.785306581446     0.896122271918    -0.164119360532    12.000000000000
         C           -1.705786418554     0.647481271918    -0.042851360532    12.000000000000
         C            1.757352581446     1.250648271918     0.776394639468    12.000000000000
         C            1.074856581446    -0.142402728082    -1.060536360532    12.000000000000
         C            3.218757281446    -0.561016528082     0.015578139468    12.000000000000
         C            2.985334581446     0.586088271918     0.822568639468    12.000000000000
         C            2.301279581446    -0.800830728082    -1.014845360532    12.000000000000
         C           -1.792591418554    -0.130028728082     1.121033639468    12.000000000000
         C           -2.700099418554     0.512266271918    -1.017707360532    12.000000000000
         C            4.587336581446    -1.190984728082    -0.003406360532    12.000000000000
         C           -2.853037418554    -1.015470728082     1.307130639468    12.000000000000
         C           -3.762930418554    -0.377206728082    -0.836456360532    12.000000000000
         C           -3.842722418554    -1.142198728082     0.327469639468    12.000000000000
         H           -0.655201418554     2.118301271918    -1.190840360532     1.007825032230
         H           -0.581698418554     2.382433271918     0.545885639468     1.007825032230
         H            1.555094581446     2.057525271918     1.479721639468     1.007825032230
         H            0.325729581446    -0.441185728082    -1.792645360532     1.007825032230
         H            3.727824581446     0.881728271918     1.562631639468     1.007825032230
         H            2.507245581446    -1.601029728082    -1.724753360532     1.007825032230
         H           -1.014636418554    -0.044575728082     1.878287639468     1.007825032230
         H           -2.644055418554     1.109889271918    -1.926463360532     1.007825032230
         H            4.928061581446    -1.483748728082    -1.000914360532     1.007825032230
         H            5.366586581446    -0.574631728082     0.453845639468     1.007825032230
         H            4.491775581446    -2.104218728082     0.594279639468     1.007825032230
         H           -2.907686418554    -1.610504728082     2.216027639468     1.007825032230
         H           -4.526877418554    -0.471291728082    -1.604979360532     1.007825032230
         H           -4.668445418554    -1.834899728082     0.471273639468     1.007825032230

  Basis Set: AUG-CC-PVTZ
    Blend: AUG-CC-PVTZ
  Basis Set: (AUG-CC-PVTZ AUX)
    Blend: AUG-CC-PVTZ-JKFIT
	 Reference Energy          =    -538.4848723298727009 [Eh]
	 Singles Energy            =      -0.0000000000000000 [Eh]
	 Same-Spin Energy          =      -0.6086376907826655 [Eh]
	 Opposite-Spin Energy      =      -1.9359527223826212 [Eh]
	 Correlation Energy        =      -2.5445904131652868 [Eh]
	 Total Energy              =    -541.0294627430380388 [Eh]

	 ================> DF-SCS-MP2 Energies <==================
	-----------------------------------------------------------
	 SCS Same-Spin Scale       =       0.3333333333333333 [-]
	 SCS Opposite-Spin Scale   =       1.2000000000000000 [-]
	 SCS Same-Spin Energy      =      -0.2028792302608885 [Eh]
	 SCS Opposite-Spin Energy  =      -2.3231432668591454 [Eh]
	 SCS Correlation Energy    =      -2.5260224971200338 [Eh]
	 SCS Total Energy          =    -541.0108948269927396 [Eh]
	-----------------------------------------------------------

  Dipole Moment: [D]
     X:     0.3911      Y:    -0.0792      Z:    -0.0308     Total:     0.4002

*** Psi4 exiting successfully. Buy a developer a beer!
