                               Psi4 1.4a3.dev225

  ==> Input File <==

--------------------------------------------------------------------------
#psi4
#
memory 32 gb

molecule  {
0 1
  C       -0.5824800     1.6044310    -0.2213210
  C        0.7517090     0.8972820    -0.1584330
  C       -1.7393840     0.6486410    -0.0371650
  C        1.7237550     1.2518080     0.7820810
  C        1.0412590    -0.1412430    -1.0548500
  C        3.2457950    -0.4451680    -0.0684180
  C        2.9517370     0.5872480     0.8282550
  C        2.2676820    -0.7996710    -1.0091590
  C       -1.8261890    -0.1288690     1.1267200
  C       -2.7336970     0.5134260    -1.0120210
  C        4.5537390    -1.1898250     0.0022800
  C       -2.9627082    -1.0778299     1.3261670
  C       -3.7965280    -0.3760470    -0.8307700
  C       -3.8763200    -1.1410390     0.3331560
  H       -0.6887990     2.1194610    -1.1851540
  H       -0.6152960     2.3835930     0.5515720
  H        1.5214970     2.0586850     1.4854080
  H        0.2921320    -0.4400260    -1.7869590
  H        3.6942270     0.8828880     1.5683180
  H        2.4736480    -1.5998700    -1.7190670
  H       -1.0482340    -0.0434160     1.8839740
  H       -2.6776530     1.1110490    -1.9207770
  H        4.8944640    -1.4825890    -0.9952280
  H        5.3329890    -0.5734720     0.4595320
  H        4.4581780    -2.1030590     0.5999660
  H       -2.9412840    -1.6093450     2.2217140
  H       -4.5604750    -0.4701320    -1.5992930
  H       -4.7020430    -1.8337400     0.4769600
units angstrom
no_reorient  #important for SAPT in psi4, default
symmetry c1  #important for SAPT in psi4, default
}

set PROPERTIES_ORIGIN ["COM"]
properties('MP2/aug-cc-pvtz', properties = ['dipole'])
--------------------------------------------------------------------------

    Molecular point group: c1
  Charge       = 0
  Multiplicity = 1
  Basis Set: AUG-CC-PVTZ
    Blend: AUG-CC-PVTZ
  Basis Set: (AUG-CC-PVTZ AUX)
    Blend: AUG-CC-PVTZ-JKFIT

    Orbital Energies [Eh]
    ---------------------

    Doubly Occupied:

       1A    -11.240408     2A    -11.238436     3A    -11.238071
       4A    -11.236715     5A    -11.235672     6A    -11.235537
       7A    -11.235112     8A    -11.233517     9A    -11.230863
      10A    -11.229664    11A    -11.228889    12A    -11.228437
      13A    -11.227659    14A    -11.222800    15A     -1.159080
      16A     -1.143034    17A     -1.075192    18A     -1.027874
      19A     -1.007942    20A     -1.001708    21A     -0.957055
      22A     -0.895340    23A     -0.832990    24A     -0.825449
      25A     -0.799451    26A     -0.773790    27A     -0.692741
      28A     -0.667369    29A     -0.649249    30A     -0.637958
      31A     -0.630168    32A     -0.620807    33A     -0.582328
      34A     -0.578319    35A     -0.575885    36A     -0.569426
      37A     -0.559482    38A     -0.547028    39A     -0.527024
      40A     -0.501448    41A     -0.496511    42A     -0.485660
      43A     -0.477295    44A     -0.474786    45A     -0.465438
      46A     -0.340405    47A     -0.332258    48A     -0.325735
      49A     -0.306064

  @DF-RHF Final Energy:  -538.48185717965578

   => Energetics <=

    Nuclear Repulsion Energy =            784.6624208226321571
    One-Electron Energy =               -2284.6804183313670364
    Two-Electron Energy =                 961.5361403290791031
    Total Energy =                       -538.4818571796557762
  Basis Set: (AUG-CC-PVTZ AUX)
    Blend: AUG-CC-PVTZ-RI
    Molecular point group: c1

    Geometry (in Angstrom), charge = 0, multiplicity = 1:

       Center              X                  Y                   Z               Mass
    ------------   -----------------  -----------------  -----------------  -----------------
         C           -0.547865147359     1.599899461936    -0.221977476061    12.000000000000
         C            0.786323852641     0.892750461936    -0.159089476061    12.000000000000
         C           -1.704769147359     0.644109461936    -0.037821476061    12.000000000000
         C            1.758369852641     1.247276461936     0.781424523939    12.000000000000
         C            1.075873852641    -0.145774538064    -1.055506476061    12.000000000000
         C            3.280409852641    -0.449699538064    -0.069074476061    12.000000000000
         C            2.986351852641     0.582716461936     0.827598523939    12.000000000000
         C            2.302296852641    -0.804202538064    -1.009815476061    12.000000000000
         C           -1.791574147359    -0.133400538064     1.126063523939    12.000000000000
         C           -2.699082147359     0.508894461936    -1.012677476061    12.000000000000
         C            4.588353852641    -1.194356538064     0.001623523939    12.000000000000
         C           -2.928093347359    -1.082361438064     1.325510523939    12.000000000000
         C           -3.761913147359    -0.380578538064    -0.831426476061    12.000000000000
         C           -3.841705147359    -1.145570538064     0.332499523939    12.000000000000
         H           -0.654184147359     2.114929461936    -1.185810476061     1.007825032230
         H           -0.580681147359     2.379061461936     0.550915523939     1.007825032230
         H            1.556111852641     2.054153461936     1.484751523939     1.007825032230
         H            0.326746852641    -0.444557538064    -1.787615476061     1.007825032230
         H            3.728841852641     0.878356461936     1.567661523939     1.007825032230
         H            2.508262852641    -1.604401538064    -1.719723476061     1.007825032230
         H           -1.013619147359    -0.047947538064     1.883317523939     1.007825032230
         H           -2.643038147359     1.106517461936    -1.921433476061     1.007825032230
         H            4.929078852641    -1.487120538064    -0.995884476061     1.007825032230
         H            5.367603852641    -0.578003538064     0.458875523939     1.007825032230
         H            4.492792852641    -2.107590538064     0.599309523939     1.007825032230
         H           -2.906669147359    -1.613876538064     2.221057523939     1.007825032230
         H           -4.525860147359    -0.474663538064    -1.599949476061     1.007825032230
         H           -4.667428147359    -1.838271538064     0.476303523939     1.007825032230

  Basis Set: AUG-CC-PVTZ
    Blend: AUG-CC-PVTZ
  Basis Set: (AUG-CC-PVTZ AUX)
    Blend: AUG-CC-PVTZ-JKFIT
	 Reference Energy          =    -538.4818571796557762 [Eh]
	 Singles Energy            =      -0.0000000000000000 [Eh]
	 Same-Spin Energy          =      -0.6081947984550933 [Eh]
	 Opposite-Spin Energy      =      -1.9356593913100941 [Eh]
	 Correlation Energy        =      -2.5438541897651872 [Eh]
	 Total Energy              =    -541.0257113694209465 [Eh]

	 ================> DF-SCS-MP2 Energies <==================
	-----------------------------------------------------------
	 SCS Same-Spin Scale       =       0.3333333333333333 [-]
	 SCS Opposite-Spin Scale   =       1.2000000000000000 [-]
	 SCS Same-Spin Energy      =      -0.2027315994850311 [Eh]
	 SCS Opposite-Spin Energy  =      -2.3227912695721127 [Eh]
	 SCS Correlation Energy    =      -2.5255228690571436 [Eh]
	 SCS Total Energy          =    -541.0073800487128892 [Eh]
	-----------------------------------------------------------

  Dipole Moment: [D]
     X:     0.3650      Y:    -0.1339      Z:     0.0296     Total:     0.3899

*** Psi4 exiting successfully. Buy a developer a beer!
