                               Psi4 1.4a3.dev225

  ==> Input File <==

--------------------------------------------------------------------------
#psi4
#
memory 32 gb

molecule  {
0 1
  C       -0.5824800     1.6044310    -0.2213210
  C        0.7517090     0.8972820    -0.1584330
  C       -1.7393840     0.6486410    -0.0371650
  C        1.7237550     1.2518080     0.7820810
  C        1.0412590    -0.1412430    -1.0548500
  C        3.2457950    -0.4451680    -0.0684180
  C        2.9517370     0.5872480     0.8282550
  C        2.2676820    -0.7996710    -1.0091590
  C       -1.8261890    -0.1288690     1.1267200
  C       -2.7336970     0.5134260    -1.0120210
  C        4.5537390    -1.1898250     0.0022800
  C       -2.8866350    -1.0143110     1.3128170
  C       -3.7965280    -0.3760470    -0.8307700
  C       -3.8763200    -1.1410390     0.3331560
  H       -0.6887990     2.1194610    -1.1851540
  H       -0.6152960     2.3835930     0.5515720
  H        1.5214970     2.0586850     1.4854080
  H        0.2921320    -0.4400260    -1.7869590
  H        3.6942270     0.8828880     1.5683180
  H        2.4736480    -1.5998700    -1.7190670
  H       -1.0482340    -0.0434160     1.8839740
  H       -2.6776530     1.1110490    -1.9207770
  H        4.8944640    -1.4825890    -0.9952280
  H        5.3329890    -0.5734720     0.4595320
  H        4.4581780    -2.1030590     0.5999660
  H       -2.9412840    -1.6093450     2.2217140
  H       -4.5604750    -0.4701320    -1.5992930
  H       -4.6261041    -1.7700346     0.4637348
units angstrom
no_reorient  #important for SAPT in psi4, default
symmetry c1  #important for SAPT in psi4, default
}

set PROPERTIES_ORIGIN ["COM"]
properties('MP2/aug-cc-pvtz', properties = ['dipole'])
--------------------------------------------------------------------------

    Molecular point group: c1
  Charge       = 0
  Multiplicity = 1
  Basis Set: AUG-CC-PVTZ
    Blend: AUG-CC-PVTZ
  Basis Set: (AUG-CC-PVTZ AUX)
    Blend: AUG-CC-PVTZ-JKFIT

    Orbital Energies [Eh]
    ---------------------

    Doubly Occupied:

       1A    -11.240784     2A    -11.238255     3A    -11.236790
       4A    -11.235069     5A    -11.234142     6A    -11.233659
       7A    -11.231050     8A    -11.230832     9A    -11.229767
      10A    -11.229032    11A    -11.228805    12A    -11.228540
      13A    -11.222895    14A    -11.219377    15A     -1.160535
      16A     -1.145324    17A     -1.074386    18A     -1.025707
      19A     -1.009563    20A     -1.007991    21A     -0.959126
      22A     -0.897773    23A     -0.828019    24A     -0.822490
      25A     -0.807539    26A     -0.775178    27A     -0.702266
      28A     -0.669025    29A     -0.648801    30A     -0.636606
      31A     -0.628884    32A     -0.617377    33A     -0.582532
      34A     -0.579244    35A     -0.577520    36A     -0.572702
      37A     -0.559918    38A     -0.548309    39A     -0.528436
      40A     -0.505020    41A     -0.491969    42A     -0.489823
      43A     -0.477386    44A     -0.473323    45A     -0.471847
      46A     -0.336793    47A     -0.333258    48A     -0.329053
      49A     -0.307105

  @DF-RHF Final Energy:  -538.48797622864288

   => Energetics <=

    Nuclear Repulsion Energy =            786.5231090854090326
    One-Electron Energy =               -2288.3825136393097637
    Two-Electron Energy =                 963.3714283252578525
    Total Energy =                       -538.4879762286428786
  Basis Set: (AUG-CC-PVTZ AUX)
    Blend: AUG-CC-PVTZ-RI
    Molecular point group: c1

    Geometry (in Angstrom), charge = 0, multiplicity = 1:

       Center              X                  Y                   Z               Mass
    ------------   -----------------  -----------------  -----------------  -----------------
         C           -0.553298204121     1.595361365528    -0.221024595296    12.000000000000
         C            0.780890795879     0.888212365528    -0.158136595296    12.000000000000
         C           -1.710202204121     0.639571365528    -0.036868595296    12.000000000000
         C            1.752936795879     1.242738365528     0.782377404704    12.000000000000
         C            1.070440795879    -0.150312634472    -1.054553595296    12.000000000000
         C            3.274976795879    -0.454237634472    -0.068121595296    12.000000000000
         C            2.980918795879     0.578178365528     0.828551404704    12.000000000000
         C            2.296863795879    -0.808740634472    -1.008862595296    12.000000000000
         C           -1.797007204121    -0.137938634472     1.127016404704    12.000000000000
         C           -2.704515204121     0.504356365528    -1.011724595296    12.000000000000
         C            4.582920795879    -1.198894634472     0.002576404704    12.000000000000
         C           -2.857453204121    -1.023380634472     1.313113404704    12.000000000000
         C           -3.767346204121    -0.385116634472    -0.830473595296    12.000000000000
         C           -3.847138204121    -1.150108634472     0.333452404704    12.000000000000
         H           -0.659617204121     2.110391365528    -1.184857595296     1.007825032230
         H           -0.586114204121     2.374523365528     0.551868404704     1.007825032230
         H            1.550678795879     2.049615365528     1.485704404704     1.007825032230
         H            0.321313795879    -0.449095634472    -1.786662595296     1.007825032230
         H            3.723408795879     0.873818365528     1.568614404704     1.007825032230
         H            2.502829795879    -1.608939634472    -1.718770595296     1.007825032230
         H           -1.019052204121    -0.052485634472     1.884270404704     1.007825032230
         H           -2.648471204121     1.101979365528    -1.920480595296     1.007825032230
         H            4.923645795879    -1.491658634472    -0.994931595296     1.007825032230
         H            5.362170795879    -0.582541634472     0.459828404704     1.007825032230
         H            4.487359795879    -2.112128634472     0.600262404704     1.007825032230
         H           -2.912102204121    -1.618414634472     2.222010404704     1.007825032230
         H           -4.531293204121    -0.479201634472    -1.598996595296     1.007825032230
         H           -4.596922304121    -1.779104234472     0.464031204704     1.007825032230

  Basis Set: AUG-CC-PVTZ
    Blend: AUG-CC-PVTZ
  Basis Set: (AUG-CC-PVTZ AUX)
    Blend: AUG-CC-PVTZ-JKFIT
	 Reference Energy          =    -538.4879762286428786 [Eh]
	 Singles Energy            =      -0.0000000000000000 [Eh]
	 Same-Spin Energy          =      -0.6080689003629929 [Eh]
	 Opposite-Spin Energy      =      -1.9342435965797127 [Eh]
	 Correlation Energy        =      -2.5423124969427056 [Eh]
	 Total Energy              =    -541.0302887255855921 [Eh]

	 ================> DF-SCS-MP2 Energies <==================
	-----------------------------------------------------------
	 SCS Same-Spin Scale       =       0.3333333333333333 [-]
	 SCS Opposite-Spin Scale   =       1.2000000000000000 [-]
	 SCS Same-Spin Energy      =      -0.2026896334543309 [Eh]
	 SCS Opposite-Spin Energy  =      -2.3210923158956551 [Eh]
	 SCS Correlation Energy    =      -2.5237819493499862 [Eh]
	 SCS Total Energy          =    -541.0117581779928742 [Eh]
	-----------------------------------------------------------

  Dipole Moment: [D]
     X:     0.3326      Y:    -0.1497      Z:     0.0147     Total:     0.3650

*** Psi4 exiting successfully. Buy a developer a beer!
