                               Psi4 1.4a3.dev225

  ==> Input File <==

--------------------------------------------------------------------------
#psi4
#
memory 32 gb

molecule  {
0 1
  C       -0.5824800     1.6044310    -0.2213210
  C        0.7517090     0.8972820    -0.1584330
  C       -1.7393840     0.6486410    -0.0371650
  C        1.7237550     1.2518080     0.7820810
  C        1.0412590    -0.1412430    -1.0548500
  C        3.2457950    -0.4451680    -0.0684180
  C        2.9517370     0.5872480     0.8282550
  C        2.2676820    -0.7996710    -1.0091590
  C       -1.7848066    -0.1081248     1.1426348
  C       -2.7336970     0.5134260    -1.0120210
  C        4.5537390    -1.1898250     0.0022800
  C       -2.8866350    -1.0143110     1.3128170
  C       -3.7965280    -0.3760470    -0.8307700
  C       -3.8763200    -1.1410390     0.3331560
  H       -0.6887990     2.1194610    -1.1851540
  H       -0.6152960     2.3835930     0.5515720
  H        1.5214970     2.0586850     1.4854080
  H        0.2921320    -0.4400260    -1.7869590
  H        3.6942270     0.8828880     1.5683180
  H        2.4736480    -1.5998700    -1.7190670
  H       -1.0482340    -0.0434160     1.8839740
  H       -2.6776530     1.1110490    -1.9207770
  H        4.8944640    -1.4825890    -0.9952280
  H        5.3329890    -0.5734720     0.4595320
  H        4.4581780    -2.1030590     0.5999660
  H       -2.9412840    -1.6093450     2.2217140
  H       -4.5604750    -0.4701320    -1.5992930
  H       -4.7020430    -1.8337400     0.4769600
units angstrom
no_reorient  #important for SAPT in psi4, default
symmetry c1  #important for SAPT in psi4, default
}

set PROPERTIES_ORIGIN ["COM"]
properties('MP2/aug-cc-pvtz', properties = ['dipole'])
--------------------------------------------------------------------------

    Molecular point group: c1
  Charge       = 0
  Multiplicity = 1
  Basis Set: AUG-CC-PVTZ
    Blend: AUG-CC-PVTZ
  Basis Set: (AUG-CC-PVTZ AUX)
    Blend: AUG-CC-PVTZ-JKFIT

    Orbital Energies [Eh]
    ---------------------

    Doubly Occupied:

       1A    -11.241741     2A    -11.239457     3A    -11.238216
       4A    -11.236673     5A    -11.236264     6A    -11.233965
       7A    -11.231948     8A    -11.231605     9A    -11.231015
      10A    -11.230618    11A    -11.229751    12A    -11.229049
      13A    -11.228522    14A    -11.222895    15A     -1.159670
      16A     -1.143078    17A     -1.073470    18A     -1.024294
      19A     -1.008190    20A     -1.006498    21A     -0.956942
      22A     -0.895744    23A     -0.830202    24A     -0.824580
      25A     -0.800767    26A     -0.773899    27A     -0.694517
      28A     -0.667621    29A     -0.648055    30A     -0.638248
      31A     -0.629113    32A     -0.618045    33A     -0.585105
      34A     -0.578666    35A     -0.574583    36A     -0.569291
      37A     -0.559341    38A     -0.547695    39A     -0.527815
      40A     -0.501881    41A     -0.494560    42A     -0.488300
      43A     -0.476723    44A     -0.474836    45A     -0.468779
      46A     -0.337209    47A     -0.330508    48A     -0.329502
      49A     -0.307130

  @DF-RHF Final Energy:  -538.49000859440753

   => Energetics <=

    Nuclear Repulsion Energy =            785.6745349613332792
    One-Electron Energy =               -2286.7159399918864437
    Two-Electron Energy =                 962.5513964361455237
    Total Energy =                       -538.4900085944075272
  Basis Set: (AUG-CC-PVTZ AUX)
    Blend: AUG-CC-PVTZ-RI
    Molecular point group: c1

    Geometry (in Angstrom), charge = 0, multiplicity = 1:

       Center              X                  Y                   Z               Mass
    ------------   -----------------  -----------------  -----------------  -----------------
         C           -0.555604813931     1.594346995316    -0.222146482024    12.000000000000
         C            0.778584186069     0.887197995316    -0.159258482024    12.000000000000
         C           -1.712508813931     0.638556995316    -0.037990482024    12.000000000000
         C            1.750630186069     1.241723995316     0.781255517976    12.000000000000
         C            1.068134186069    -0.151327004684    -1.055675482024    12.000000000000
         C            3.272670186069    -0.455252004684    -0.069243482024    12.000000000000
         C            2.978612186069     0.577163995316     0.827429517976    12.000000000000
         C            2.294557186069    -0.809755004684    -1.009984482024    12.000000000000
         C           -1.757931413931    -0.118208804684     1.141809317976    12.000000000000
         C           -2.706821813931     0.503341995316    -1.012846482024    12.000000000000
         C            4.580614186069    -1.199909004684     0.001454517976    12.000000000000
         C           -2.859759813931    -1.024395004684     1.311991517976    12.000000000000
         C           -3.769652813931    -0.386131004684    -0.831595482024    12.000000000000
         C           -3.849444813931    -1.151123004684     0.332330517976    12.000000000000
         H           -0.661923813931     2.109376995316    -1.185979482024     1.007825032230
         H           -0.588420813931     2.373508995316     0.550746517976     1.007825032230
         H            1.548372186069     2.048600995316     1.484582517976     1.007825032230
         H            0.319007186069    -0.450110004684    -1.787784482024     1.007825032230
         H            3.721102186069     0.872803995316     1.567492517976     1.007825032230
         H            2.500523186069    -1.609954004684    -1.719892482024     1.007825032230
         H           -1.021358813931    -0.053500004684     1.883148517976     1.007825032230
         H           -2.650777813931     1.100964995316    -1.921602482024     1.007825032230
         H            4.921339186069    -1.492673004684    -0.996053482024     1.007825032230
         H            5.359864186069    -0.583556004684     0.458706517976     1.007825032230
         H            4.485053186069    -2.113143004684     0.599140517976     1.007825032230
         H           -2.914408813931    -1.619429004684     2.220888517976     1.007825032230
         H           -4.533599813931    -0.480216004684    -1.600118482024     1.007825032230
         H           -4.675167813931    -1.843824004684     0.476134517976     1.007825032230

  Basis Set: AUG-CC-PVTZ
    Blend: AUG-CC-PVTZ
  Basis Set: (AUG-CC-PVTZ AUX)
    Blend: AUG-CC-PVTZ-JKFIT
	 Reference Energy          =    -538.4900085944075272 [Eh]
	 Singles Energy            =      -0.0000000000000000 [Eh]
	 Same-Spin Energy          =      -0.6082804704709106 [Eh]
	 Opposite-Spin Energy      =      -1.9352277888353755 [Eh]
	 Correlation Energy        =      -2.5435082593062859 [Eh]
	 Total Energy              =    -541.0335168537137633 [Eh]

	 ================> DF-SCS-MP2 Energies <==================
	-----------------------------------------------------------
	 SCS Same-Spin Scale       =       0.3333333333333333 [-]
	 SCS Opposite-Spin Scale   =       1.2000000000000000 [-]
	 SCS Same-Spin Energy      =      -0.2027601568236369 [Eh]
	 SCS Opposite-Spin Energy  =      -2.3222733466024503 [Eh]
	 SCS Correlation Energy    =      -2.5250335034260871 [Eh]
	 SCS Total Energy          =    -541.0150420978336570 [Eh]
	-----------------------------------------------------------

  Dipole Moment: [D]
     X:     0.3425      Y:    -0.1386      Z:     0.0146     Total:     0.3698

*** Psi4 exiting successfully. Buy a developer a beer!
