                               Psi4 1.4a3.dev225

  ==> Input File <==

--------------------------------------------------------------------------
#psi4
#
memory 32 gb

molecule  {
0 1
  C       -0.5824800     1.6044310    -0.2213210
  C        0.8134442     0.8293381    -0.1915628
  C       -1.7393840     0.6486410    -0.0371650
  C        1.7237550     1.2518080     0.7820810
  C        1.0412590    -0.1412430    -1.0548500
  C        3.2457950    -0.4451680    -0.0684180
  C        2.9517370     0.5872480     0.8282550
  C        2.2676820    -0.7996710    -1.0091590
  C       -1.8261890    -0.1288690     1.1267200
  C       -2.7336970     0.5134260    -1.0120210
  C        4.5537390    -1.1898250     0.0022800
  C       -2.8866350    -1.0143110     1.3128170
  C       -3.7965280    -0.3760470    -0.8307700
  C       -3.8763200    -1.1410390     0.3331560
  H       -0.6887990     2.1194610    -1.1851540
  H       -0.6152960     2.3835930     0.5515720
  H        1.5214970     2.0586850     1.4854080
  H        0.2921320    -0.4400260    -1.7869590
  H        3.6942270     0.8828880     1.5683180
  H        2.4736480    -1.5998700    -1.7190670
  H       -1.0482340    -0.0434160     1.8839740
  H       -2.6776530     1.1110490    -1.9207770
  H        4.8944640    -1.4825890    -0.9952280
  H        5.3329890    -0.5734720     0.4595320
  H        4.4581780    -2.1030590     0.5999660
  H       -2.9412840    -1.6093450     2.2217140
  H       -4.5604750    -0.4701320    -1.5992930
  H       -4.7020430    -1.8337400     0.4769600
units angstrom
no_reorient  #important for SAPT in psi4, default
symmetry c1  #important for SAPT in psi4, default
}

set PROPERTIES_ORIGIN ["COM"]
properties('MP2/aug-cc-pvtz', properties = ['dipole'])
--------------------------------------------------------------------------

    Molecular point group: c1
  Charge       = 0
  Multiplicity = 1
  Basis Set: AUG-CC-PVTZ
    Blend: AUG-CC-PVTZ
  Basis Set: (AUG-CC-PVTZ AUX)
    Blend: AUG-CC-PVTZ-JKFIT

    Orbital Energies [Eh]
    ---------------------

    Doubly Occupied:

       1A    -11.239427     2A    -11.237470     3A    -11.236472
       4A    -11.234078     5A    -11.233671     6A    -11.232504
       7A    -11.231409     8A    -11.230310     9A    -11.230128
      10A    -11.230064    11A    -11.229795    12A    -11.228230
      13A    -11.222887    14A    -11.219719    15A     -1.164627
      16A     -1.147091    17A     -1.068302    18A     -1.026618
      19A     -1.013207    20A     -1.009017    21A     -0.950319
      22A     -0.897122    23A     -0.832773    24A     -0.822483
      25A     -0.799660    26A     -0.776233    27A     -0.691283
      28A     -0.669228    29A     -0.647717    30A     -0.632953
      31A     -0.627192    32A     -0.617909    33A     -0.589017
      34A     -0.581686    35A     -0.575081    36A     -0.567219
      37A     -0.554564    38A     -0.542298    39A     -0.529084
      40A     -0.503618    41A     -0.493127    42A     -0.489868
      43A     -0.483771    44A     -0.476722    45A     -0.454935
      46A     -0.341133    47A     -0.333085    48A     -0.326704
      49A     -0.311823

  @DF-RHF Final Energy:  -538.48402972241274

   => Energetics <=

    Nuclear Repulsion Energy =            786.4591372769584723
    One-Electron Energy =               -2288.3190656866586323
    Two-Electron Energy =                 963.3758986872874175
    Total Energy =                       -538.4840297224127426
  Basis Set: (AUG-CC-PVTZ AUX)
    Blend: AUG-CC-PVTZ-RI
    Molecular point group: c1

    Geometry (in Angstrom), charge = 0, multiplicity = 1:

       Center              X                  Y                   Z               Mass
    ------------   -----------------  -----------------  -----------------  -----------------
         C           -0.556945949524     1.600191044667    -0.218914717415    12.000000000000
         C            0.838978250476     0.825098144667    -0.189156517415    12.000000000000
         C           -1.713849949524     0.644401044667    -0.034758717415    12.000000000000
         C            1.749289050476     1.247568044667     0.784487282585    12.000000000000
         C            1.066793050476    -0.145482955333    -1.052443717415    12.000000000000
         C            3.271329050476    -0.449407955333    -0.066011717415    12.000000000000
         C            2.977271050476     0.583008044667     0.830661282585    12.000000000000
         C            2.293216050476    -0.803910955333    -1.006752717415    12.000000000000
         C           -1.800654949524    -0.133108955333     1.129126282585    12.000000000000
         C           -2.708162949524     0.509186044667    -1.009614717415    12.000000000000
         C            4.579273050476    -1.194064955333     0.004686282585    12.000000000000
         C           -2.861100949524    -1.018550955333     1.315223282585    12.000000000000
         C           -3.770993949524    -0.380286955333    -0.828363717415    12.000000000000
         C           -3.850785949524    -1.145278955333     0.335562282585    12.000000000000
         H           -0.663264949524     2.115221044667    -1.182747717415     1.007825032230
         H           -0.589761949524     2.379353044667     0.553978282585     1.007825032230
         H            1.547031050476     2.054445044667     1.487814282585     1.007825032230
         H            0.317666050476    -0.444265955333    -1.784552717415     1.007825032230
         H            3.719761050476     0.878648044667     1.570724282585     1.007825032230
         H            2.499182050476    -1.604109955333    -1.716660717415     1.007825032230
         H           -1.022699949524    -0.047655955333     1.886380282585     1.007825032230
         H           -2.652118949524     1.106809044667    -1.918370717415     1.007825032230
         H            4.919998050476    -1.486828955333    -0.992821717415     1.007825032230
         H            5.358523050476    -0.577711955333     0.461938282585     1.007825032230
         H            4.483712050476    -2.107298955333     0.602372282585     1.007825032230
         H           -2.915749949524    -1.613584955333     2.224120282585     1.007825032230
         H           -4.534940949524    -0.474371955333    -1.596886717415     1.007825032230
         H           -4.676508949524    -1.837979955333     0.479366282585     1.007825032230

  Basis Set: AUG-CC-PVTZ
    Blend: AUG-CC-PVTZ
  Basis Set: (AUG-CC-PVTZ AUX)
    Blend: AUG-CC-PVTZ-JKFIT
	 Reference Energy          =    -538.4840297224127426 [Eh]
	 Singles Energy            =      -0.0000000000000000 [Eh]
	 Same-Spin Energy          =      -0.6077859075860808 [Eh]
	 Opposite-Spin Energy      =      -1.9342258054384560 [Eh]
	 Correlation Energy        =      -2.5420117130245368 [Eh]
	 Total Energy              =    -541.0260414354372642 [Eh]

	 ================> DF-SCS-MP2 Energies <==================
	-----------------------------------------------------------
	 SCS Same-Spin Scale       =       0.3333333333333333 [-]
	 SCS Opposite-Spin Scale   =       1.2000000000000000 [-]
	 SCS Same-Spin Energy      =      -0.2025953025286936 [Eh]
	 SCS Opposite-Spin Energy  =      -2.3210709665261473 [Eh]
	 SCS Correlation Energy    =      -2.5236662690548410 [Eh]
	 SCS Total Energy          =    -541.0076959914675854 [Eh]
	-----------------------------------------------------------

  Dipole Moment: [D]
     X:     0.4953      Y:    -0.1238      Z:     0.0252     Total:     0.5112

*** Psi4 exiting successfully. Buy a developer a beer!
