                               Psi4 1.4a3.dev225

  ==> Input File <==

--------------------------------------------------------------------------
#psi4
#
memory 32 gb

molecule  {
0 1
  C       -0.5824800     1.6044310    -0.2213210
  C        0.7517090     0.8972820    -0.1584330
  C       -1.7393840     0.6486410    -0.0371650
  C        1.7237550     1.2518080     0.7820810
  C        1.0412590    -0.1412430    -1.0548500
  C        3.2457950    -0.4451680    -0.0684180
  C        2.9517370     0.5872480     0.8282550
  C        2.2676820    -0.7996710    -1.0091590
  C       -1.8261890    -0.1288690     1.1267200
  C       -2.7336970     0.5134260    -1.0120210
  C        4.5537390    -1.1898250     0.0022800
  C       -2.8866350    -1.0143110     1.3128170
  C       -3.7965280    -0.3760470    -0.8307700
  C       -3.8763200    -1.1410390     0.3331560
  H       -0.6887990     2.1194610    -1.1851540
  H       -0.6152960     2.3835930     0.5515720
  H        1.5214970     2.0586850     1.4854080
  H        0.2921320    -0.4400260    -1.7869590
  H        3.6942270     0.8828880     1.5683180
  H        2.4736480    -1.5998700    -1.7190670
  H       -1.0482340    -0.0434160     1.8839740
  H       -2.6766238     1.1220237    -1.9374653
  H        4.8944640    -1.4825890    -0.9952280
  H        5.3329890    -0.5734720     0.4595320
  H        4.4581780    -2.1030590     0.5999660
  H       -2.9412840    -1.6093450     2.2217140
  H       -4.5604750    -0.4701320    -1.5992930
  H       -4.7020430    -1.8337400     0.4769600
units angstrom
no_reorient  #important for SAPT in psi4, default
symmetry c1  #important for SAPT in psi4, default
}

set PROPERTIES_ORIGIN ["COM"]
properties('MP2/aug-cc-pvtz', properties = ['dipole'])
--------------------------------------------------------------------------

    Molecular point group: c1
  Charge       = 0
  Multiplicity = 1
  Basis Set: AUG-CC-PVTZ
    Blend: AUG-CC-PVTZ
  Basis Set: (AUG-CC-PVTZ AUX)
    Blend: AUG-CC-PVTZ-JKFIT

    Orbital Energies [Eh]
    ---------------------

    Doubly Occupied:

       1A    -11.241309     2A    -11.238377     3A    -11.236931
       4A    -11.235373     5A    -11.235267     6A    -11.234658
       7A    -11.233681     8A    -11.231477     9A    -11.231189
      10A    -11.229890    11A    -11.229611    12A    -11.229154
      13A    -11.228662    14A    -11.222981    15A     -1.160655
      16A     -1.145270    17A     -1.073844    18A     -1.023983
      19A     -1.009801    20A     -1.008105    21A     -0.957235
      22A     -0.896195    23A     -0.827973    24A     -0.822144
      25A     -0.802757    26A     -0.774593    27A     -0.692466
      28A     -0.667686    29A     -0.648260    30A     -0.634725
      31A     -0.628199    32A     -0.617511    33A     -0.582240
      34A     -0.578760    35A     -0.574996    36A     -0.569102
      37A     -0.559796    38A     -0.548262    39A     -0.527973
      40A     -0.502926    41A     -0.491042    42A     -0.489868
      43A     -0.477625    44A     -0.473514    45A     -0.471307
      46A     -0.337169    47A     -0.333800    48A     -0.329342
      49A     -0.307356

  @DF-RHF Final Energy:  -538.49317802006021

   => Energetics <=

    Nuclear Repulsion Energy =            785.8636164606041348
    One-Electron Energy =               -2287.1035033890543673
    Two-Electron Energy =                 962.7467089083900191
    Total Energy =                       -538.4931780200602134
  Basis Set: (AUG-CC-PVTZ AUX)
    Blend: AUG-CC-PVTZ-RI
    Molecular point group: c1

    Geometry (in Angstrom), charge = 0, multiplicity = 1:

       Center              X                  Y                   Z               Mass
    ------------   -----------------  -----------------  -----------------  -----------------
         C           -0.552883641180     1.595653186134    -0.221005429916    12.000000000000
         C            0.781305358820     0.888504186134    -0.158117429916    12.000000000000
         C           -1.709787641180     0.639863186134    -0.036849429916    12.000000000000
         C            1.753351358820     1.243030186134     0.782396570084    12.000000000000
         C            1.070855358820    -0.150020813866    -1.054534429916    12.000000000000
         C            3.275391358820    -0.453945813866    -0.068102429916    12.000000000000
         C            2.981333358820     0.578470186134     0.828570570084    12.000000000000
         C            2.297278358820    -0.808448813866    -1.008843429916    12.000000000000
         C           -1.796592641180    -0.137646813866     1.127035570084    12.000000000000
         C           -2.704100641180     0.504648186134    -1.011705429916    12.000000000000
         C            4.583335358820    -1.198602813866     0.002595570084    12.000000000000
         C           -2.857038641180    -1.023088813866     1.313132570084    12.000000000000
         C           -3.766931641180    -0.384824813866    -0.830454429916    12.000000000000
         C           -3.846723641180    -1.149816813866     0.333471570084    12.000000000000
         H           -0.659202641180     2.110683186134    -1.184838429916     1.007825032230
         H           -0.585699641180     2.374815186134     0.551887570084     1.007825032230
         H            1.551093358820     2.049907186134     1.485723570084     1.007825032230
         H            0.321728358820    -0.448803813866    -1.786643429916     1.007825032230
         H            3.723823358820     0.874110186134     1.568633570084     1.007825032230
         H            2.503244358820    -1.608647813866    -1.718751429916     1.007825032230
         H           -1.018637641180    -0.052193813866     1.884289570084     1.007825032230
         H           -2.647027441180     1.113245886134    -1.937149729916     1.007825032230
         H            4.924060358820    -1.491366813866    -0.994912429916     1.007825032230
         H            5.362585358820    -0.582249813866     0.459847570084     1.007825032230
         H            4.487774358820    -2.111836813866     0.600281570084     1.007825032230
         H           -2.911687641180    -1.618122813866     2.222029570084     1.007825032230
         H           -4.530878641180    -0.478909813866    -1.598977429916     1.007825032230
         H           -4.672446641180    -1.842517813866     0.477275570084     1.007825032230

  Basis Set: AUG-CC-PVTZ
    Blend: AUG-CC-PVTZ
  Basis Set: (AUG-CC-PVTZ AUX)
    Blend: AUG-CC-PVTZ-JKFIT
	 Reference Energy          =    -538.4931780200602134 [Eh]
	 Singles Energy            =      -0.0000000000000000 [Eh]
	 Same-Spin Energy          =      -0.6082420667309688 [Eh]
	 Opposite-Spin Energy      =      -1.9349034335590052 [Eh]
	 Correlation Energy        =      -2.5431455002899739 [Eh]
	 Total Energy              =    -541.0363235203501517 [Eh]

	 ================> DF-SCS-MP2 Energies <==================
	-----------------------------------------------------------
	 SCS Same-Spin Scale       =       0.3333333333333333 [-]
	 SCS Opposite-Spin Scale   =       1.2000000000000000 [-]
	 SCS Same-Spin Energy      =      -0.2027473555769896 [Eh]
	 SCS Opposite-Spin Energy  =      -2.3218841202708060 [Eh]
	 SCS Correlation Energy    =      -2.5246314758477957 [Eh]
	 SCS Total Energy          =    -541.0178094959079544 [Eh]
	-----------------------------------------------------------

  Dipole Moment: [D]
     X:     0.3617      Y:    -0.1350      Z:     0.0170     Total:     0.3864

*** Psi4 exiting successfully. Buy a developer a beer!
