                               Psi4 1.4a3.dev225

  ==> Input File <==

--------------------------------------------------------------------------
#psi4
#
memory 32 gb

molecule  {
0 1
  C       -0.5824800     1.6044310    -0.2213210
  C        0.7517090     0.8972820    -0.1584330
  C       -1.7393840     0.6486410    -0.0371650
  C        1.7237550     1.2518080     0.7820810
  C        1.0412590    -0.1412430    -1.0548500
  C        3.2457950    -0.4451680    -0.0684180
  C        2.9517370     0.5872480     0.8282550
  C        2.2676820    -0.7996710    -1.0091590
  C       -1.8261890    -0.1288690     1.1267200
  C       -2.7336970     0.5134260    -1.0120210
  C        4.5537390    -1.1898250     0.0022800
  C       -2.8866350    -1.0143110     1.3128170
  C       -3.7965280    -0.3760470    -0.8307700
  C       -3.8026453    -1.0403463     0.2566355
  H       -0.6887990     2.1194610    -1.1851540
  H       -0.6152960     2.3835930     0.5515720
  H        1.5214970     2.0586850     1.4854080
  H        0.2921320    -0.4400260    -1.7869590
  H        3.6942270     0.8828880     1.5683180
  H        2.4736480    -1.5998700    -1.7190670
  H       -1.0482340    -0.0434160     1.8839740
  H       -2.6776530     1.1110490    -1.9207770
  H        4.8944640    -1.4825890    -0.9952280
  H        5.3329890    -0.5734720     0.4595320
  H        4.4581780    -2.1030590     0.5999660
  H       -2.9412840    -1.6093450     2.2217140
  H       -4.5604750    -0.4701320    -1.5992930
  H       -4.7020430    -1.8337400     0.4769600
units angstrom
no_reorient  #important for SAPT in psi4, default
symmetry c1  #important for SAPT in psi4, default
}

set PROPERTIES_ORIGIN ["COM"]
properties('MP2/aug-cc-pvtz', properties = ['dipole'])
--------------------------------------------------------------------------

    Molecular point group: c1
  Charge       = 0
  Multiplicity = 1
  Basis Set: AUG-CC-PVTZ
    Blend: AUG-CC-PVTZ
  Basis Set: (AUG-CC-PVTZ AUX)
    Blend: AUG-CC-PVTZ-JKFIT

    Orbital Energies [Eh]
    ---------------------

    Doubly Occupied:

       1A    -11.238865     2A    -11.238390     3A    -11.236653
       4A    -11.234932     5A    -11.234881     6A    -11.231997
       7A    -11.231141     8A    -11.230733     9A    -11.229867
      10A    -11.229158    11A    -11.229116    12A    -11.228637
      13A    -11.223025    14A    -11.219193    15A     -1.168662
      16A     -1.151278    17A     -1.077855    18A     -1.029498
      19A     -1.015647    20A     -1.008101    21A     -0.956644
      22A     -0.894454    23A     -0.833847    24A     -0.826192
      25A     -0.798344    26A     -0.773895    27A     -0.690981
      28A     -0.666191    29A     -0.649324    30A     -0.636057
      31A     -0.627455    32A     -0.621759    33A     -0.596258
      34A     -0.578696    35A     -0.574346    36A     -0.561613
      37A     -0.555096    38A     -0.547474    39A     -0.526220
      40A     -0.505450    41A     -0.502289    42A     -0.483517
      43A     -0.479589    44A     -0.474646    45A     -0.453078
      46A     -0.347236    47A     -0.333046    48A     -0.328313
      49A     -0.309666

  @DF-RHF Final Energy:  -538.46574622420076

   => Energetics <=

    Nuclear Repulsion Energy =            788.6650332233567724
    One-Electron Energy =               -2292.6229469353352215
    Two-Electron Energy =                 965.4921674877778059
    Total Energy =                       -538.4657462242007568
  Basis Set: (AUG-CC-PVTZ AUX)
    Blend: AUG-CC-PVTZ-RI
    Molecular point group: c1

    Geometry (in Angstrom), charge = 0, multiplicity = 1:

       Center              X                  Y                   Z               Mass
    ------------   -----------------  -----------------  -----------------  -----------------
         C           -0.557732695742     1.589078836685    -0.216055513169    12.000000000000
         C            0.776456304258     0.881929836685    -0.153167513169    12.000000000000
         C           -1.714636695742     0.633288836685    -0.031899513169    12.000000000000
         C            1.748502304258     1.236455836685     0.787346486831    12.000000000000
         C            1.066006304258    -0.156595163315    -1.049584513169    12.000000000000
         C            3.270542304258    -0.460520163315    -0.063152513169    12.000000000000
         C            2.976484304258     0.571895836685     0.833520486831    12.000000000000
         C            2.292429304258    -0.815023163315    -1.003893513169    12.000000000000
         C           -1.801441695742    -0.144221163315     1.131985486831    12.000000000000
         C           -2.708949695742     0.498073836685    -1.006755513169    12.000000000000
         C            4.578486304258    -1.205177163315     0.007545486831    12.000000000000
         C           -2.861887695742    -1.029663163315     1.318082486831    12.000000000000
         C           -3.771780695742    -0.391399163315    -0.825504513169    12.000000000000
         C           -3.777897995742    -1.055698463315     0.261900986831    12.000000000000
         H           -0.664051695742     2.104108836685    -1.179888513169     1.007825032230
         H           -0.590548695742     2.368240836685     0.556837486831     1.007825032230
         H            1.546244304258     2.043332836685     1.490673486831     1.007825032230
         H            0.316879304258    -0.455378163315    -1.781693513169     1.007825032230
         H            3.718974304258     0.867535836685     1.573583486831     1.007825032230
         H            2.498395304258    -1.615222163315    -1.713801513169     1.007825032230
         H           -1.023486695742    -0.058768163315     1.889239486831     1.007825032230
         H           -2.652905695742     1.095696836685    -1.915511513169     1.007825032230
         H            4.919211304258    -1.497941163315    -0.989962513169     1.007825032230
         H            5.357736304258    -0.588824163315     0.464797486831     1.007825032230
         H            4.482925304258    -2.118411163315     0.605231486831     1.007825032230
         H           -2.916536695742    -1.624697163315     2.226979486831     1.007825032230
         H           -4.535727695742    -0.485484163315    -1.594027513169     1.007825032230
         H           -4.677295695742    -1.849092163315     0.482225486831     1.007825032230

  Basis Set: AUG-CC-PVTZ
    Blend: AUG-CC-PVTZ
  Basis Set: (AUG-CC-PVTZ AUX)
    Blend: AUG-CC-PVTZ-JKFIT
	 Reference Energy          =    -538.4657462242007568 [Eh]
	 Singles Energy            =      -0.0000000000000000 [Eh]
	 Same-Spin Energy          =      -0.6084971487361055 [Eh]
	 Opposite-Spin Energy      =      -1.9354792361449644 [Eh]
	 Correlation Energy        =      -2.5439763848810699 [Eh]
	 Total Energy              =    -541.0097226090817912 [Eh]

	 ================> DF-SCS-MP2 Energies <==================
	-----------------------------------------------------------
	 SCS Same-Spin Scale       =       0.3333333333333333 [-]
	 SCS Opposite-Spin Scale   =       1.2000000000000000 [-]
	 SCS Same-Spin Energy      =      -0.2028323829120351 [Eh]
	 SCS Opposite-Spin Energy  =      -2.3225750833739571 [Eh]
	 SCS Correlation Energy    =      -2.5254074662859924 [Eh]
	 SCS Total Energy          =    -540.9911536904867262 [Eh]
	-----------------------------------------------------------

  Dipole Moment: [D]
     X:     0.4385      Y:    -0.0671      Z:     0.0145     Total:     0.4439

*** Psi4 exiting successfully. Buy a developer a beer!
