                               Psi4 1.4a3.dev225

  ==> Input File <==

--------------------------------------------------------------------------
#psi4
#
memory 32 gb

molecule  {
0 1
  C       -0.5824800     1.6044310    -0.2213210
  C        0.7517090     0.8972820    -0.1584330
  C       -1.7393840     0.6486410    -0.0371650
  C        1.7237550     1.2518080     0.7820810
  C        1.0412590    -0.1412430    -1.0548500
  C        3.2457950    -0.4451680    -0.0684180
  C        2.9517370     0.5872480     0.8282550
  C        2.2676820    -0.7996710    -1.0091590
  C       -1.8261890    -0.1288690     1.1267200
  C       -2.7336970     0.5134260    -1.0120210
  C        4.5537390    -1.1898250     0.0022800
  C       -2.8866350    -1.0143110     1.3128170
  C       -3.7965280    -0.3760470    -0.8307700
  C       -3.8763200    -1.1410390     0.3331560
  H       -0.6887990     2.1194610    -1.1851540
  H       -0.6152960     2.3835930     0.5515720
  H        1.5214970     2.0586850     1.4854080
  H        0.2921320    -0.4400260    -1.7869590
  H        3.6942270     0.8828880     1.5683180
  H        2.4736480    -1.5998700    -1.7190670
  H       -1.0482340    -0.0434160     1.8839740
  H       -2.6776530     1.1110490    -1.9207770
  H        4.8941691    -1.5550491    -0.9711393
  H        5.3329890    -0.5734720     0.4595320
  H        4.4581780    -2.1030590     0.5999660
  H       -2.9412840    -1.6093450     2.2217140
  H       -4.5604750    -0.4701320    -1.5992930
  H       -4.7020430    -1.8337400     0.4769600
units angstrom
no_reorient  #important for SAPT in psi4, default
symmetry c1  #important for SAPT in psi4, default
}

set PROPERTIES_ORIGIN ["COM"]
properties('MP2/aug-cc-pvtz', properties = ['dipole'])
--------------------------------------------------------------------------

    Molecular point group: c1
  Charge       = 0
  Multiplicity = 1
  Basis Set: AUG-CC-PVTZ
    Blend: AUG-CC-PVTZ
  Basis Set: (AUG-CC-PVTZ AUX)
    Blend: AUG-CC-PVTZ-JKFIT

    Orbital Energies [Eh]
    ---------------------

    Doubly Occupied:

       1A    -11.241099     2A    -11.238972     3A    -11.236998
       4A    -11.235324     5A    -11.235046     6A    -11.234559
       7A    -11.231535     8A    -11.231375     9A    -11.231285
      10A    -11.229955    11A    -11.229454    12A    -11.229437
      13A    -11.228727    14A    -11.223027    15A     -1.160712
      16A     -1.145305    17A     -1.073791    18A     -1.023946
      19A     -1.010195    20A     -1.008236    21A     -0.957350
      22A     -0.896589    23A     -0.828176    24A     -0.822901
      25A     -0.803160    26A     -0.774832    27A     -0.693443
      28A     -0.668396    29A     -0.648636    30A     -0.635219
      31A     -0.629012    32A     -0.617858    33A     -0.582812
      34A     -0.578897    35A     -0.572261    36A     -0.567612
      37A     -0.559618    38A     -0.550233    39A     -0.529598
      40A     -0.502893    41A     -0.491566    42A     -0.490310
      43A     -0.478166    44A     -0.473489    45A     -0.470858
      46A     -0.337132    47A     -0.333744    48A     -0.329260
      49A     -0.307191

  @DF-RHF Final Energy:  -538.49329990262879

   => Energetics <=

    Nuclear Repulsion Energy =            785.9127462554274643
    One-Electron Energy =               -2287.1917166204357272
    Two-Electron Energy =                 962.7856704623794712
    Total Energy =                       -538.4932999026287916
  Basis Set: (AUG-CC-PVTZ AUX)
    Blend: AUG-CC-PVTZ-RI
    Molecular point group: c1

    Geometry (in Angstrom), charge = 0, multiplicity = 1:

       Center              X                  Y                   Z               Mass
    ------------   -----------------  -----------------  -----------------  -----------------
         C           -0.552876313386     1.596114928419    -0.221231096726    12.000000000000
         C            0.781312686614     0.888965928419    -0.158343096726    12.000000000000
         C           -1.709780313386     0.640324928419    -0.037075096726    12.000000000000
         C            1.753358686614     1.243491928419     0.782170903274    12.000000000000
         C            1.070862686614    -0.149559071581    -1.054760096726    12.000000000000
         C            3.275398686614    -0.453484071581    -0.068328096726    12.000000000000
         C            2.981340686614     0.578931928419     0.828344903274    12.000000000000
         C            2.297285686614    -0.807987071581    -1.009069096726    12.000000000000
         C           -1.796585313386    -0.137185071581     1.126809903274    12.000000000000
         C           -2.704093313386     0.505109928419    -1.011931096726    12.000000000000
         C            4.583342686614    -1.198141071581     0.002369903274    12.000000000000
         C           -2.857031313386    -1.022627071581     1.312906903274    12.000000000000
         C           -3.766924313386    -0.384363071581    -0.830680096726    12.000000000000
         C           -3.846716313386    -1.149355071581     0.333245903274    12.000000000000
         H           -0.659195313386     2.111144928419    -1.185064096726     1.007825032230
         H           -0.585692313386     2.375276928419     0.551661903274     1.007825032230
         H            1.551100686614     2.050368928419     1.485497903274     1.007825032230
         H            0.321735686614    -0.448342071581    -1.786869096726     1.007825032230
         H            3.723830686614     0.874571928419     1.568407903274     1.007825032230
         H            2.503251686614    -1.608186071581    -1.718977096726     1.007825032230
         H           -1.018630313386    -0.051732071581     1.884063903274     1.007825032230
         H           -2.648049313386     1.102732928419    -1.920687096726     1.007825032230
         H            4.923772786614    -1.563365171581    -0.971049396726     1.007825032230
         H            5.362592686614    -0.581788071581     0.459621903274     1.007825032230
         H            4.487781686614    -2.111375071581     0.600055903274     1.007825032230
         H           -2.911680313386    -1.617661071581     2.221803903274     1.007825032230
         H           -4.530871313386    -0.478448071581    -1.599203096726     1.007825032230
         H           -4.672439313386    -1.842056071581     0.477049903274     1.007825032230

  Basis Set: AUG-CC-PVTZ
    Blend: AUG-CC-PVTZ
  Basis Set: (AUG-CC-PVTZ AUX)
    Blend: AUG-CC-PVTZ-JKFIT
	 Reference Energy          =    -538.4932999026287916 [Eh]
	 Singles Energy            =      -0.0000000000000000 [Eh]
	 Same-Spin Energy          =      -0.6082140269231459 [Eh]
	 Opposite-Spin Energy      =      -1.9347214149232494 [Eh]
	 Correlation Energy        =      -2.5429354418463954 [Eh]
	 Total Energy              =    -541.0362353444751307 [Eh]

	 ================> DF-SCS-MP2 Energies <==================
	-----------------------------------------------------------
	 SCS Same-Spin Scale       =       0.3333333333333333 [-]
	 SCS Opposite-Spin Scale   =       1.2000000000000000 [-]
	 SCS Same-Spin Energy      =      -0.2027380089743819 [Eh]
	 SCS Opposite-Spin Energy  =      -2.3216656979078993 [Eh]
	 SCS Correlation Energy    =      -2.5244037068822811 [Eh]
	 SCS Total Energy          =    -541.0177036095110452 [Eh]
	-----------------------------------------------------------

  Dipole Moment: [D]
     X:     0.3584      Y:    -0.1548      Z:     0.0113     Total:     0.3906

*** Psi4 exiting successfully. Buy a developer a beer!
