                               Psi4 1.4a3.dev225

  ==> Input File <==

--------------------------------------------------------------------------
#psi4
#
memory 32 gb

molecule  {
0 1
  C       -0.5824800     1.6044310    -0.2213210
  C        0.7517090     0.8972820    -0.1584330
  C       -1.7393840     0.6486410    -0.0371650
  C        1.7237550     1.2518080     0.7820810
  C        1.0412590    -0.1412430    -1.0548500
  C        3.2457950    -0.4451680    -0.0684180
  C        2.9517370     0.5872480     0.8282550
  C        2.2676820    -0.7996710    -1.0091590
  C       -1.8261890    -0.1288690     1.1267200
  C       -2.7336970     0.5134260    -1.0120210
  C        4.5537390    -1.1898250     0.0022800
  C       -2.8866350    -1.0143110     1.3128170
  C       -3.7965280    -0.3760470    -0.8307700
  C       -3.8763200    -1.1410390     0.3331560
  H       -0.6887990     2.1194610    -1.1851540
  H       -0.6152960     2.3835930     0.5515720
  H        1.5214970     2.0586850     1.4854080
  H        0.2921320    -0.4400260    -1.7869590
  H        3.6942270     0.8828880     1.5683180
  H        2.4736480    -1.5998700    -1.7190670
  H       -1.0482340    -0.0434160     1.8839740
  H       -2.6776530     1.1110490    -1.9207770
  H        4.8944640    -1.4825890    -0.9952280
  H        5.3329890    -0.5734720     0.4595320
  H        4.4581780    -2.1030590     0.5999660
  H       -2.9362598    -1.5546405     2.1381546
  H       -4.5604750    -0.4701320    -1.5992930
  H       -4.7020430    -1.8337400     0.4769600
units angstrom
no_reorient  #important for SAPT in psi4, default
symmetry c1  #important for SAPT in psi4, default
}

set PROPERTIES_ORIGIN ["COM"]
properties('MP2/aug-cc-pvtz', properties = ['dipole'])
--------------------------------------------------------------------------

    Molecular point group: c1
  Charge       = 0
  Multiplicity = 1
  Basis Set: AUG-CC-PVTZ
    Blend: AUG-CC-PVTZ
  Basis Set: (AUG-CC-PVTZ AUX)
    Blend: AUG-CC-PVTZ-JKFIT

    Orbital Energies [Eh]
    ---------------------

    Doubly Occupied:

       1A    -11.240481     2A    -11.238281     3A    -11.236796
       4A    -11.234964     5A    -11.234403     6A    -11.231198
       7A    -11.231074     8A    -11.230661     9A    -11.229792
      10A    -11.229065    11A    -11.228812    12A    -11.228565
      13A    -11.222926    14A    -11.222203    15A     -1.160575
      16A     -1.145356    17A     -1.073971    18A     -1.024679
      19A     -1.012699    20A     -1.008075    21A     -0.957150
      22A     -0.896031    23A     -0.831267    24A     -0.825906
      25A     -0.804681    26A     -0.775231    27A     -0.696638
      28A     -0.667721    29A     -0.648351    30A     -0.642740
      31A     -0.629635    32A     -0.618923    33A     -0.586515
      34A     -0.578653    35A     -0.575480    36A     -0.569405
      37A     -0.559689    38A     -0.548186    39A     -0.527790
      40A     -0.503020    41A     -0.494339    42A     -0.490072
      43A     -0.477516    44A     -0.473856    45A     -0.471195
      46A     -0.336799    47A     -0.333418    48A     -0.329030
      49A     -0.307064

  @DF-RHF Final Energy:  -538.48799767152150

   => Energetics <=

    Nuclear Repulsion Energy =            786.5180639258595647
    One-Electron Energy =               -2288.3703699521611270
    Two-Electron Energy =                 963.3643083547799506
    Total Energy =                       -538.4879976715214980
  Basis Set: (AUG-CC-PVTZ AUX)
    Blend: AUG-CC-PVTZ-RI
    Molecular point group: c1

    Geometry (in Angstrom), charge = 0, multiplicity = 1:

       Center              X                  Y                   Z               Mass
    ------------   -----------------  -----------------  -----------------  -----------------
         C           -0.552905750185     1.595411178030    -0.220635353946    12.000000000000
         C            0.781283249815     0.888262178030    -0.157747353946    12.000000000000
         C           -1.709809750185     0.639621178030    -0.036479353946    12.000000000000
         C            1.753329249815     1.242788178030     0.782766646054    12.000000000000
         C            1.070833249815    -0.150262821970    -1.054164353946    12.000000000000
         C            3.275369249815    -0.454187821970    -0.067732353946    12.000000000000
         C            2.981311249815     0.578228178030     0.828940646054    12.000000000000
         C            2.297256249815    -0.808690821970    -1.008473353946    12.000000000000
         C           -1.796614750185    -0.137888821970     1.127405646054    12.000000000000
         C           -2.704122750185     0.504406178030    -1.011335353946    12.000000000000
         C            4.583313249815    -1.198844821970     0.002965646054    12.000000000000
         C           -2.857060750185    -1.023330821970     1.313502646054    12.000000000000
         C           -3.766953750185    -0.385066821970    -0.830084353946    12.000000000000
         C           -3.846745750185    -1.150058821970     0.333841646054    12.000000000000
         H           -0.659224750185     2.110441178030    -1.184468353946     1.007825032230
         H           -0.585721750185     2.374573178030     0.552257646054     1.007825032230
         H            1.551071249815     2.049665178030     1.486093646054     1.007825032230
         H            0.321706249815    -0.449045821970    -1.786273353946     1.007825032230
         H            3.723801249815     0.873868178030     1.569003646054     1.007825032230
         H            2.503222249815    -1.608889821970    -1.718381353946     1.007825032230
         H           -1.018659750185    -0.052435821970     1.884659646054     1.007825032230
         H           -2.648078750185     1.102029178030    -1.920091353946     1.007825032230
         H            4.924038249815    -1.491608821970    -0.994542353946     1.007825032230
         H            5.362563249815    -0.582491821970     0.460217646054     1.007825032230
         H            4.487752249815    -2.112078821970     0.600651646054     1.007825032230
         H           -2.906685550185    -1.563660321970     2.138840246054     1.007825032230
         H           -4.530900750185    -0.479151821970    -1.598607353946     1.007825032230
         H           -4.672468750185    -1.842759821970     0.477645646054     1.007825032230

  Basis Set: AUG-CC-PVTZ
    Blend: AUG-CC-PVTZ
  Basis Set: (AUG-CC-PVTZ AUX)
    Blend: AUG-CC-PVTZ-JKFIT
	 Reference Energy          =    -538.4879976715214980 [Eh]
	 Singles Energy            =      -0.0000000000000000 [Eh]
	 Same-Spin Energy          =      -0.6080603234989992 [Eh]
	 Opposite-Spin Energy      =      -1.9342205481025336 [Eh]
	 Correlation Energy        =      -2.5422808716015330 [Eh]
	 Total Energy              =    -541.0302785431230177 [Eh]

	 ================> DF-SCS-MP2 Energies <==================
	-----------------------------------------------------------
	 SCS Same-Spin Scale       =       0.3333333333333333 [-]
	 SCS Opposite-Spin Scale   =       1.2000000000000000 [-]
	 SCS Same-Spin Energy      =      -0.2026867744996664 [Eh]
	 SCS Opposite-Spin Energy  =      -2.3210646577230403 [Eh]
	 SCS Correlation Energy    =      -2.5237514322227068 [Eh]
	 SCS Total Energy          =    -541.0117491037442505 [Eh]
	-----------------------------------------------------------

  Dipole Moment: [D]
     X:     0.3525      Y:    -0.1478      Z:     0.0378     Total:     0.3841

*** Psi4 exiting successfully. Buy a developer a beer!
