                               Psi4 1.4a3.dev225

  ==> Input File <==

--------------------------------------------------------------------------
#psi4
#
memory 32 gb

molecule  {
0 1
  C       -0.5824800     1.6044310    -0.2213210
  C        0.7517090     0.8972820    -0.1584330
  C       -1.7393840     0.6486410    -0.0371650
  C        1.7237550     1.2518080     0.7820810
  C        1.0412590    -0.1412430    -1.0548500
  C        3.2457950    -0.4451680    -0.0684180
  C        2.9517370     0.5872480     0.8282550
  C        2.2676820    -0.7996710    -1.0091590
  C       -1.8261890    -0.1288690     1.1267200
  C       -2.7336970     0.5134260    -1.0120210
  C        4.5537390    -1.1898250     0.0022800
  C       -2.8866350    -1.0143110     1.3128170
  C       -3.7965280    -0.3760470    -0.8307700
  C       -3.8763200    -1.1410390     0.3331560
  H       -0.6887990     2.1194610    -1.1851540
  H       -0.6152960     2.3835930     0.5515720
  H        1.5214970     2.0586850     1.4854080
  H        0.2921320    -0.4400260    -1.7869590
  H        3.6942270     0.8828880     1.5683180
  H        2.4736480    -1.5998700    -1.7190670
  H       -1.0482340    -0.0434160     1.8839740
  H       -2.6776530     1.1110490    -1.9207770
  H        4.9567540    -1.5361110    -1.1775885
  H        5.3329890    -0.5734720     0.4595320
  H        4.4581780    -2.1030590     0.5999660
  H       -2.9412840    -1.6093450     2.2217140
  H       -4.5604750    -0.4701320    -1.5992930
  H       -4.7020430    -1.8337400     0.4769600
units angstrom
no_reorient  #important for SAPT in psi4, default
symmetry c1  #important for SAPT in psi4, default
}

set PROPERTIES_ORIGIN ["COM"]
properties('MP2/aug-cc-pvtz', properties = ['dipole'])
--------------------------------------------------------------------------

    Molecular point group: c1
  Charge       = 0
  Multiplicity = 1
  Basis Set: AUG-CC-PVTZ
    Blend: AUG-CC-PVTZ
  Basis Set: (AUG-CC-PVTZ AUX)
    Blend: AUG-CC-PVTZ-JKFIT

    Orbital Energies [Eh]
    ---------------------

    Doubly Occupied:

       1A    -11.245871     2A    -11.241516     3A    -11.240425
       4A    -11.237978     5A    -11.235905     6A    -11.235376
       7A    -11.234907     8A    -11.232325     9A    -11.231901
      10A    -11.231630    11A    -11.230940    12A    -11.230528
      13A    -11.229853    14A    -11.229295    15A     -1.161338
      16A     -1.145842    17A     -1.073758    18A     -1.022752
      19A     -1.010556    20A     -1.009062    21A     -0.953178
      22A     -0.891191    23A     -0.828846    24A     -0.823216
      25A     -0.802280    26A     -0.774514    27A     -0.693718
      28A     -0.667884    29A     -0.647765    30A     -0.635383
      31A     -0.628399    32A     -0.617826    33A     -0.583214
      34A     -0.579682    35A     -0.571828    36A     -0.570543
      37A     -0.560830    38A     -0.540703    39A     -0.511217
      40A     -0.504080    41A     -0.491049    42A     -0.488663
      43A     -0.476861    44A     -0.473600    45A     -0.469429
      46A     -0.337812    47A     -0.334166    48A     -0.329638
      49A     -0.307968

  @DF-RHF Final Energy:  -538.47376425351308

   => Energetics <=

    Nuclear Repulsion Energy =            785.1811546728431495
    One-Electron Energy =               -2285.6953576077721664
    Two-Electron Energy =                 962.0404386814159352
    Total Energy =                       -538.4737642535130817
  Basis Set: (AUG-CC-PVTZ AUX)
    Blend: AUG-CC-PVTZ-RI
    Molecular point group: c1

    Geometry (in Angstrom), charge = 0, multiplicity = 1:

       Center              X                  Y                   Z               Mass
    ------------   -----------------  -----------------  -----------------  -----------------
         C           -0.553222668801     1.596010121773    -0.220088571959    12.000000000000
         C            0.780966331199     0.888861121773    -0.157200571959    12.000000000000
         C           -1.710126668801     0.640220121773    -0.035932571959    12.000000000000
         C            1.753012331199     1.243387121773     0.783313428041    12.000000000000
         C            1.070516331199    -0.149663878227    -1.053617571959    12.000000000000
         C            3.275052331199    -0.453588878227    -0.067185571959    12.000000000000
         C            2.980994331199     0.578827121773     0.829487428041    12.000000000000
         C            2.296939331199    -0.808091878227    -1.007926571959    12.000000000000
         C           -1.796931668801    -0.137289878227     1.127952428041    12.000000000000
         C           -2.704439668801     0.505005121773    -1.010788571959    12.000000000000
         C            4.582996331199    -1.198245878227     0.003512428041    12.000000000000
         C           -2.857377668801    -1.022731878227     1.314049428041    12.000000000000
         C           -3.767270668801    -0.384467878227    -0.829537571959    12.000000000000
         C           -3.847062668801    -1.149459878227     0.334388428041    12.000000000000
         H           -0.659541668801     2.111040121773    -1.183921571959     1.007825032230
         H           -0.586038668801     2.375172121773     0.552804428041     1.007825032230
         H            1.550754331199     2.050264121773     1.486640428041     1.007825032230
         H            0.321389331199    -0.448446878227    -1.785726571959     1.007825032230
         H            3.723484331199     0.874467121773     1.569550428041     1.007825032230
         H            2.502905331199    -1.608290878227    -1.717834571959     1.007825032230
         H           -1.018976668801    -0.051836878227     1.885206428041     1.007825032230
         H           -2.648395668801     1.102628121773    -1.919544571959     1.007825032230
         H            4.986011331199    -1.544531878227    -1.176356071959     1.007825032230
         H            5.362246331199    -0.581892878227     0.460764428041     1.007825032230
         H            4.487435331199    -2.111479878227     0.601198428041     1.007825032230
         H           -2.912026668801    -1.617765878227     2.222946428041     1.007825032230
         H           -4.531217668801    -0.478552878227    -1.598060571959     1.007825032230
         H           -4.672785668801    -1.842160878227     0.478192428041     1.007825032230

  Basis Set: AUG-CC-PVTZ
    Blend: AUG-CC-PVTZ
  Basis Set: (AUG-CC-PVTZ AUX)
    Blend: AUG-CC-PVTZ-JKFIT
	 Reference Energy          =    -538.4737642535130817 [Eh]
	 Singles Energy            =      -0.0000000000000000 [Eh]
	 Same-Spin Energy          =      -0.6082072623392163 [Eh]
	 Opposite-Spin Energy      =      -1.9363690639617808 [Eh]
	 Correlation Energy        =      -2.5445763263009971 [Eh]
	 Total Energy              =    -541.0183405798140939 [Eh]

	 ================> DF-SCS-MP2 Energies <==================
	-----------------------------------------------------------
	 SCS Same-Spin Scale       =       0.3333333333333333 [-]
	 SCS Opposite-Spin Scale   =       1.2000000000000000 [-]
	 SCS Same-Spin Energy      =      -0.2027357541130721 [Eh]
	 SCS Opposite-Spin Energy  =      -2.3236428767541368 [Eh]
	 SCS Correlation Energy    =      -2.5263786308672089 [Eh]
	 SCS Total Energy          =    -541.0001428843802387 [Eh]
	-----------------------------------------------------------

  Dipole Moment: [D]
     X:     0.2498      Y:    -0.0646      Z:     0.1044     Total:     0.2784

*** Psi4 exiting successfully. Buy a developer a beer!
