                               Psi4 1.4a3.dev225

  ==> Input File <==

--------------------------------------------------------------------------
#psi4
#
memory 32 gb

molecule  {
0 1
  C       -0.5824800     1.6044310    -0.2213210
  C        0.7517090     0.8972820    -0.1584330
  C       -1.7393840     0.6486410    -0.0371650
  C        1.7237550     1.2518080     0.7820810
  C        1.0412590    -0.1412430    -1.0548500
  C        3.2457950    -0.4451680    -0.0684180
  C        2.9517370     0.5872480     0.8282550
  C        2.2676820    -0.7996710    -1.0091590
  C       -1.8261890    -0.1288690     1.1267200
  C       -2.7336970     0.5134260    -1.0120210
  C        4.5537390    -1.1898250     0.0022800
  C       -2.8866350    -1.0143110     1.3128170
  C       -3.7965280    -0.3760470    -0.8307700
  C       -3.8763200    -1.1410390     0.3331560
  H       -0.6887990     2.1194610    -1.1851540
  H       -0.6152960     2.3835930     0.5515720
  H        1.5214970     2.0586850     1.4854080
  H        0.2921320    -0.4400260    -1.7869590
  H        3.6942270     0.8828880     1.5683180
  H        2.4736480    -1.5998700    -1.7190670
  H       -1.0482340    -0.0434160     1.8839740
  H       -2.6776530     1.1110490    -1.9207770
  H        4.8944640    -1.4825890    -0.9952280
  H        5.3329890    -0.5734720     0.4595320
  H        4.4581780    -2.1030590     0.5999660
  H       -2.9412840    -1.6093450     2.2217140
  H       -4.5604750    -0.4701320    -1.5992930
  H       -4.7779819    -1.8974454     0.4901852
units angstrom
no_reorient  #important for SAPT in psi4, default
symmetry c1  #important for SAPT in psi4, default
}

set PROPERTIES_ORIGIN ["COM"]
properties('MP2/aug-cc-pvtz', properties = ['dipole'])
--------------------------------------------------------------------------

    Molecular point group: c1
  Charge       = 0
  Multiplicity = 1
  Basis Set: AUG-CC-PVTZ
    Blend: AUG-CC-PVTZ
  Basis Set: (AUG-CC-PVTZ AUX)
    Blend: AUG-CC-PVTZ-JKFIT

    Orbital Energies [Eh]
    ---------------------

    Doubly Occupied:

       1A    -11.243038     2A    -11.241563     3A    -11.238564
       4A    -11.237170     5A    -11.235951     6A    -11.235614
       7A    -11.235502     8A    -11.232260     9A    -11.231399
      10A    -11.230238    11A    -11.230096    12A    -11.229342
      13A    -11.228868    14A    -11.223112    15A     -1.160971
      16A     -1.145497    17A     -1.073645    18A     -1.023086
      19A     -1.010981    20A     -1.008330    21A     -0.956189
      22A     -0.895317    23A     -0.828377    24A     -0.823352
      25A     -0.800133    26A     -0.774267    27A     -0.687331
      28A     -0.666534    29A     -0.648121    30A     -0.633945
      31A     -0.627997    32A     -0.618132    33A     -0.583510
      34A     -0.578885    35A     -0.574712    36A     -0.563852
      37A     -0.559142    38A     -0.548516    39A     -0.527498
      40A     -0.500756    41A     -0.491230    42A     -0.489316
      43A     -0.477952    44A     -0.473804    45A     -0.470123
      46A     -0.337554    47A     -0.334292    48A     -0.329658
      49A     -0.307641

  @DF-RHF Final Energy:  -538.48648365962288

   => Energetics <=

    Nuclear Repulsion Energy =            785.4690266970212633
    One-Electron Energy =               -2286.3042969012713002
    Two-Electron Energy =                 962.3487865446271599
    Total Energy =                       -538.4864836596228770
  Basis Set: (AUG-CC-PVTZ AUX)
    Blend: AUG-CC-PVTZ-RI
    Molecular point group: c1

    Geometry (in Angstrom), charge = 0, multiplicity = 1:

       Center              X                  Y                   Z               Mass
    ------------   -----------------  -----------------  -----------------  -----------------
         C           -0.552457686705     1.596066478430    -0.221170976281    12.000000000000
         C            0.781731313295     0.888917478430    -0.158282976281    12.000000000000
         C           -1.709361686705     0.640276478430    -0.037014976281    12.000000000000
         C            1.753777313295     1.243443478430     0.782231023719    12.000000000000
         C            1.071281313295    -0.149607521570    -1.054699976281    12.000000000000
         C            3.275817313295    -0.453532521570    -0.068267976281    12.000000000000
         C            2.981759313295     0.578883478430     0.828405023719    12.000000000000
         C            2.297704313295    -0.808035521570    -1.009008976281    12.000000000000
         C           -1.796166686705    -0.137233521570     1.126870023719    12.000000000000
         C           -2.703674686705     0.505061478430    -1.011870976281    12.000000000000
         C            4.583761313295    -1.198189521570     0.002430023719    12.000000000000
         C           -2.856612686705    -1.022675521570     1.312967023719    12.000000000000
         C           -3.766505686705    -0.384411521570    -0.830619976281    12.000000000000
         C           -3.846297686705    -1.149403521570     0.333306023719    12.000000000000
         H           -0.658776686705     2.111096478430    -1.185003976281     1.007825032230
         H           -0.585273686705     2.375228478430     0.551722023719     1.007825032230
         H            1.551519313295     2.050320478430     1.485558023719     1.007825032230
         H            0.322154313295    -0.448390521570    -1.786808976281     1.007825032230
         H            3.724249313295     0.874523478430     1.568468023719     1.007825032230
         H            2.503670313295    -1.608234521570    -1.718916976281     1.007825032230
         H           -1.018211686705    -0.051780521570     1.884124023719     1.007825032230
         H           -2.647630686705     1.102684478430    -1.920626976281     1.007825032230
         H            4.924486313295    -1.490953521570    -0.995077976281     1.007825032230
         H            5.363011313295    -0.581836521570     0.459682023719     1.007825032230
         H            4.488200313295    -2.111423521570     0.600116023719     1.007825032230
         H           -2.911261686705    -1.617709521570     2.221864023719     1.007825032230
         H           -4.530452686705    -0.478496521570    -1.599142976281     1.007825032230
         H           -4.747959586705    -1.905809921570     0.490335223719     1.007825032230

  Basis Set: AUG-CC-PVTZ
    Blend: AUG-CC-PVTZ
  Basis Set: (AUG-CC-PVTZ AUX)
    Blend: AUG-CC-PVTZ-JKFIT
	 Reference Energy          =    -538.4864836596228770 [Eh]
	 Singles Energy            =      -0.0000000000000000 [Eh]
	 Same-Spin Energy          =      -0.6083909896901812 [Eh]
	 Opposite-Spin Energy      =      -1.9356490154847821 [Eh]
	 Correlation Energy        =      -2.5440400051749634 [Eh]
	 Total Energy              =    -541.0305236647977836 [Eh]

	 ================> DF-SCS-MP2 Energies <==================
	-----------------------------------------------------------
	 SCS Same-Spin Scale       =       0.3333333333333333 [-]
	 SCS Opposite-Spin Scale   =       1.2000000000000000 [-]
	 SCS Same-Spin Energy      =      -0.2027969965633937 [Eh]
	 SCS Opposite-Spin Energy  =      -2.3227788185817384 [Eh]
	 SCS Correlation Energy    =      -2.5255758151451322 [Eh]
	 SCS Total Energy          =    -541.0120594747679661 [Eh]
	-----------------------------------------------------------

  Dipole Moment: [D]
     X:     0.4089      Y:    -0.0984      Z:     0.0029     Total:     0.4206

*** Psi4 exiting successfully. Buy a developer a beer!
