                               Psi4 1.4a3.dev225

  ==> Input File <==

--------------------------------------------------------------------------
#psi4
#
memory 32 gb

molecule  {
0 1
  C       -0.5824800     1.6044310    -0.2213210
  C        0.7517090     0.8972820    -0.1584330
  C       -1.7011243     0.6802497    -0.0432552
  C        1.7237550     1.2518080     0.7820810
  C        1.0412590    -0.1412430    -1.0548500
  C        3.2457950    -0.4451680    -0.0684180
  C        2.9517370     0.5872480     0.8282550
  C        2.2676820    -0.7996710    -1.0091590
  C       -1.8261890    -0.1288690     1.1267200
  C       -2.7336970     0.5134260    -1.0120210
  C        4.5537390    -1.1898250     0.0022800
  C       -2.8866350    -1.0143110     1.3128170
  C       -3.7965280    -0.3760470    -0.8307700
  C       -3.8763200    -1.1410390     0.3331560
  H       -0.6887990     2.1194610    -1.1851540
  H       -0.6152960     2.3835930     0.5515720
  H        1.5214970     2.0586850     1.4854080
  H        0.2921320    -0.4400260    -1.7869590
  H        3.6942270     0.8828880     1.5683180
  H        2.4736480    -1.5998700    -1.7190670
  H       -1.0482340    -0.0434160     1.8839740
  H       -2.6776530     1.1110490    -1.9207770
  H        4.8944640    -1.4825890    -0.9952280
  H        5.3329890    -0.5734720     0.4595320
  H        4.4581780    -2.1030590     0.5999660
  H       -2.9412840    -1.6093450     2.2217140
  H       -4.5604750    -0.4701320    -1.5992930
  H       -4.7020430    -1.8337400     0.4769600
units angstrom
no_reorient  #important for SAPT in psi4, default
symmetry c1  #important for SAPT in psi4, default
}

set PROPERTIES_ORIGIN ["COM"]
properties('MP2/aug-cc-pvtz', properties = ['dipole'])
--------------------------------------------------------------------------

    Molecular point group: c1
  Charge       = 0
  Multiplicity = 1
  Basis Set: AUG-CC-PVTZ
    Blend: AUG-CC-PVTZ
  Basis Set: (AUG-CC-PVTZ AUX)
    Blend: AUG-CC-PVTZ-JKFIT

    Orbital Energies [Eh]
    ---------------------

    Doubly Occupied:

       1A    -11.244517     2A    -11.238913     3A    -11.237852
       4A    -11.235112     5A    -11.234425     6A    -11.234102
       7A    -11.233839     8A    -11.231899     9A    -11.231845
      10A    -11.231499    11A    -11.230473    12A    -11.229651
      13A    -11.229229    14A    -11.223313    15A     -1.160999
      16A     -1.142573    17A     -1.078250    18A     -1.025428
      19A     -1.008827    20A     -1.007383    21A     -0.956518
      22A     -0.899489    23A     -0.828260    24A     -0.820206
      25A     -0.802917    26A     -0.774409    27A     -0.692269
      28A     -0.669505    29A     -0.650178    30A     -0.637800
      31A     -0.629392    32A     -0.616747    33A     -0.579390
      34A     -0.579037    35A     -0.576579    36A     -0.571991
      37A     -0.562008    38A     -0.548888    39A     -0.528838
      40A     -0.504668    41A     -0.491908    42A     -0.487043
      43A     -0.477987    44A     -0.474931    45A     -0.469319
      46A     -0.336694    47A     -0.332973    48A     -0.327860
      49A     -0.305772

  @DF-RHF Final Energy:  -538.48913445758512

   => Energetics <=

    Nuclear Repulsion Energy =            785.8912510691525313
    One-Electron Energy =               -2287.1133579635006754
    Two-Electron Energy =                 962.7329724367630206
    Total Energy =                       -538.4891344575851235
  Basis Set: (AUG-CC-PVTZ AUX)
    Blend: AUG-CC-PVTZ-RI
    Molecular point group: c1

    Geometry (in Angstrom), charge = 0, multiplicity = 1:

       Center              X                  Y                   Z               Mass
    ------------   -----------------  -----------------  -----------------  -----------------
         C           -0.555399045481     1.593631085581    -0.220696475699    12.000000000000
         C            0.778789954519     0.886482085581    -0.157808475699    12.000000000000
         C           -1.674043345481     0.669449785581    -0.042630675699    12.000000000000
         C            1.750835954519     1.241008085581     0.782705524301    12.000000000000
         C            1.068339954519    -0.152042914419    -1.054225475699    12.000000000000
         C            3.272875954519    -0.455967914419    -0.067793475699    12.000000000000
         C            2.978817954519     0.576448085581     0.828879524301    12.000000000000
         C            2.294762954519    -0.810470914419    -1.008534475699    12.000000000000
         C           -1.799108045481    -0.139668914419     1.127344524301    12.000000000000
         C           -2.706616045481     0.502626085581    -1.011396475699    12.000000000000
         C            4.580819954519    -1.200624914419     0.002904524301    12.000000000000
         C           -2.859554045481    -1.025110914419     1.313441524301    12.000000000000
         C           -3.769447045481    -0.386846914419    -0.830145475699    12.000000000000
         C           -3.849239045481    -1.151838914419     0.333780524301    12.000000000000
         H           -0.661718045481     2.108661085581    -1.184529475699     1.007825032230
         H           -0.588215045481     2.372793085581     0.552196524301     1.007825032230
         H            1.548577954519     2.047885085581     1.486032524301     1.007825032230
         H            0.319212954519    -0.450825914419    -1.786334475699     1.007825032230
         H            3.721307954519     0.872088085581     1.568942524301     1.007825032230
         H            2.500728954519    -1.610669914419    -1.718442475699     1.007825032230
         H           -1.021153045481    -0.054215914419     1.884598524301     1.007825032230
         H           -2.650572045481     1.100249085581    -1.920152475699     1.007825032230
         H            4.921544954519    -1.493388914419    -0.994603475699     1.007825032230
         H            5.360069954519    -0.584271914419     0.460156524301     1.007825032230
         H            4.485258954519    -2.113858914419     0.600590524301     1.007825032230
         H           -2.914203045481    -1.620144914419     2.222338524301     1.007825032230
         H           -4.533394045481    -0.480931914419    -1.598668475699     1.007825032230
         H           -4.674962045481    -1.844539914419     0.477584524301     1.007825032230

  Basis Set: AUG-CC-PVTZ
    Blend: AUG-CC-PVTZ
  Basis Set: (AUG-CC-PVTZ AUX)
    Blend: AUG-CC-PVTZ-JKFIT
	 Reference Energy          =    -538.4891344575851235 [Eh]
	 Singles Energy            =      -0.0000000000000000 [Eh]
	 Same-Spin Energy          =      -0.6088527733764053 [Eh]
	 Opposite-Spin Energy      =      -1.9358142279662363 [Eh]
	 Correlation Energy        =      -2.5446670013426416 [Eh]
	 Total Energy              =    -541.0338014589277691 [Eh]

	 ================> DF-SCS-MP2 Energies <==================
	-----------------------------------------------------------
	 SCS Same-Spin Scale       =       0.3333333333333333 [-]
	 SCS Opposite-Spin Scale   =       1.2000000000000000 [-]
	 SCS Same-Spin Energy      =      -0.2029509244588018 [Eh]
	 SCS Opposite-Spin Energy  =      -2.3229770735594832 [Eh]
	 SCS Correlation Energy    =      -2.5259279980182852 [Eh]
	 SCS Total Energy          =    -541.0150624556033563 [Eh]
	-----------------------------------------------------------

  Dipole Moment: [D]
     X:     0.4430      Y:    -0.1042      Z:     0.0099     Total:     0.4552

*** Psi4 exiting successfully. Buy a developer a beer!
