                               Psi4 1.4a3.dev225

  ==> Input File <==

--------------------------------------------------------------------------
#psi4
#
memory 32 gb

molecule  {
0 1
  C       -0.5824800     1.6044310    -0.2213210
  C        0.7517090     0.8972820    -0.1584330
  C       -1.6628647     0.7118583    -0.0493453
  C        1.7237550     1.2518080     0.7820810
  C        1.0412590    -0.1412430    -1.0548500
  C        3.2457950    -0.4451680    -0.0684180
  C        2.9517370     0.5872480     0.8282550
  C        2.2676820    -0.7996710    -1.0091590
  C       -1.8261890    -0.1288690     1.1267200
  C       -2.7336970     0.5134260    -1.0120210
  C        4.5537390    -1.1898250     0.0022800
  C       -2.8866350    -1.0143110     1.3128170
  C       -3.7965280    -0.3760470    -0.8307700
  C       -3.8763200    -1.1410390     0.3331560
  H       -0.6887990     2.1194610    -1.1851540
  H       -0.6152960     2.3835930     0.5515720
  H        1.5214970     2.0586850     1.4854080
  H        0.2921320    -0.4400260    -1.7869590
  H        3.6942270     0.8828880     1.5683180
  H        2.4736480    -1.5998700    -1.7190670
  H       -1.0482340    -0.0434160     1.8839740
  H       -2.6776530     1.1110490    -1.9207770
  H        4.8944640    -1.4825890    -0.9952280
  H        5.3329890    -0.5734720     0.4595320
  H        4.4581780    -2.1030590     0.5999660
  H       -2.9412840    -1.6093450     2.2217140
  H       -4.5604750    -0.4701320    -1.5992930
  H       -4.7020430    -1.8337400     0.4769600
units angstrom
no_reorient  #important for SAPT in psi4, default
symmetry c1  #important for SAPT in psi4, default
}

set PROPERTIES_ORIGIN ["COM"]
properties('MP2/aug-cc-pvtz', properties = ['dipole'])
--------------------------------------------------------------------------

    Molecular point group: c1
  Charge       = 0
  Multiplicity = 1
  Basis Set: AUG-CC-PVTZ
    Blend: AUG-CC-PVTZ
  Basis Set: (AUG-CC-PVTZ AUX)
    Blend: AUG-CC-PVTZ-JKFIT

    Orbital Energies [Eh]
    ---------------------

    Doubly Occupied:

       1A    -11.248206     2A    -11.239492     3A    -11.238933
       4A    -11.237128     5A    -11.234956     6A    -11.234405
       7A    -11.233666     8A    -11.232584     9A    -11.232498
      10A    -11.231660    11A    -11.231114    12A    -11.230185
      13A    -11.229817    14A    -11.223672    15A     -1.162374
      16A     -1.140096    17A     -1.083442    18A     -1.027208
      19A     -1.009387    20A     -1.005094    21A     -0.955235
      22A     -0.902764    23A     -0.828841    24A     -0.817288
      25A     -0.802866    26A     -0.773983    27A     -0.691440
      28A     -0.671302    29A     -0.652364    30A     -0.641495
      31A     -0.630287    32A     -0.616081    33A     -0.580384
      34A     -0.579110    35A     -0.575138    36A     -0.573413
      37A     -0.564385    38A     -0.549201    39A     -0.529728
      40A     -0.507638    41A     -0.492570    42A     -0.485574
      43A     -0.479884    44A     -0.474709    45A     -0.461700
      46A     -0.336573    47A     -0.332521    48A     -0.326485
      49A     -0.303270

  @DF-RHF Final Energy:  -538.47751824029785

   => Energetics <=

    Nuclear Repulsion Energy =            785.8608040095493834
    One-Electron Energy =               -2286.9923570461401141
    Two-Electron Energy =                 962.6540347962928763
    Total Energy =                       -538.4775182402978544
  Basis Set: (AUG-CC-PVTZ AUX)
    Blend: AUG-CC-PVTZ-RI
    Molecular point group: c1

    Geometry (in Angstrom), charge = 0, multiplicity = 1:

       Center              X                  Y                   Z               Mass
    ------------   -----------------  -----------------  -----------------  -----------------
         C           -0.557920138959     1.591548255773    -0.220295172199    12.000000000000
         C            0.776268861041     0.884399255773    -0.157407172199    12.000000000000
         C           -1.638304838959     0.698975555773    -0.048319472199    12.000000000000
         C            1.748314861041     1.238925255773     0.783106827801    12.000000000000
         C            1.065818861041    -0.154125744227    -1.053824172199    12.000000000000
         C            3.270354861041    -0.458050744227    -0.067392172199    12.000000000000
         C            2.976296861041     0.574365255773     0.829280827801    12.000000000000
         C            2.292241861041    -0.812553744227    -1.008133172199    12.000000000000
         C           -1.801629138959    -0.141751744227     1.127745827801    12.000000000000
         C           -2.709137138959     0.500543255773    -1.010995172199    12.000000000000
         C            4.578298861041    -1.202707744227     0.003305827801    12.000000000000
         C           -2.862075138959    -1.027193744227     1.313842827801    12.000000000000
         C           -3.771968138959    -0.388929744227    -0.829744172199    12.000000000000
         C           -3.851760138959    -1.153921744227     0.334181827801    12.000000000000
         H           -0.664239138959     2.106578255773    -1.184128172199     1.007825032230
         H           -0.590736138959     2.370710255773     0.552597827801     1.007825032230
         H            1.546056861041     2.045802255773     1.486433827801     1.007825032230
         H            0.316691861041    -0.452908744227    -1.785933172199     1.007825032230
         H            3.718786861041     0.870005255773     1.569343827801     1.007825032230
         H            2.498207861041    -1.612752744227    -1.718041172199     1.007825032230
         H           -1.023674138959    -0.056298744227     1.884999827801     1.007825032230
         H           -2.653093138959     1.098166255773    -1.919751172199     1.007825032230
         H            4.919023861041    -1.495471744227    -0.994202172199     1.007825032230
         H            5.357548861041    -0.586354744227     0.460557827801     1.007825032230
         H            4.482737861041    -2.115941744227     0.600991827801     1.007825032230
         H           -2.916724138959    -1.622227744227     2.222739827801     1.007825032230
         H           -4.535915138959    -0.483014744227    -1.598267172199     1.007825032230
         H           -4.677483138959    -1.846622744227     0.477985827801     1.007825032230

  Basis Set: AUG-CC-PVTZ
    Blend: AUG-CC-PVTZ
  Basis Set: (AUG-CC-PVTZ AUX)
    Blend: AUG-CC-PVTZ-JKFIT
	 Reference Energy          =    -538.4775182402978544 [Eh]
	 Singles Energy            =      -0.0000000000000000 [Eh]
	 Same-Spin Energy          =      -0.6098236592280319 [Eh]
	 Opposite-Spin Energy      =      -1.9373938308399170 [Eh]
	 Correlation Energy        =      -2.5472174900679487 [Eh]
	 Total Energy              =    -541.0247357303658191 [Eh]

	 ================> DF-SCS-MP2 Energies <==================
	-----------------------------------------------------------
	 SCS Same-Spin Scale       =       0.3333333333333333 [-]
	 SCS Opposite-Spin Scale   =       1.2000000000000000 [-]
	 SCS Same-Spin Energy      =      -0.2032745530760106 [Eh]
	 SCS Opposite-Spin Energy  =      -2.3248725970079005 [Eh]
	 SCS Correlation Energy    =      -2.5281471500839112 [Eh]
	 SCS Total Energy          =    -541.0056653903817505 [Eh]
	-----------------------------------------------------------

  Dipole Moment: [D]
     X:     0.5308      Y:    -0.0766      Z:     0.0100     Total:     0.5364

*** Psi4 exiting successfully. Buy a developer a beer!
