                               Psi4 1.4a3.dev225

  ==> Input File <==

--------------------------------------------------------------------------
#psi4
#
memory 32 gb

molecule  {
0 1
  C       -0.5824800     1.6044310    -0.2213210
  C        0.7517090     0.8972820    -0.1584330
  C       -1.7393840     0.6486410    -0.0371650
  C        1.7237550     1.2518080     0.7820810
  C        1.0412590    -0.1412430    -1.0548500
  C        3.2457950    -0.4451680    -0.0684180
  C        2.9517370     0.5872480     0.8282550
  C        2.2676820    -0.7996710    -1.0091590
  C       -1.8261890    -0.1288690     1.1267200
  C       -2.7336970     0.5134260    -1.0120210
  C        4.5537390    -1.1898250     0.0022800
  C       -2.8866350    -1.0143110     1.3128170
  C       -3.7965280    -0.3760470    -0.8307700
  C       -3.8763200    -1.1410390     0.3331560
  H       -0.6887990     2.1194610    -1.1851540
  H       -0.6152960     2.3835930     0.5515720
  H        1.5214970     2.0586850     1.4854080
  H        0.2921320    -0.4400260    -1.7869590
  H        3.6942270     0.8828880     1.5683180
  H        2.4736480    -1.5998700    -1.7190670
  H       -1.0482340    -0.0434160     1.8839740
  H       -2.6776530     1.1110490    -1.9207770
  H        4.8944640    -1.4825890    -0.9952280
  H        5.3329890    -0.5734720     0.4595320
  H        4.4581780    -2.1030590     0.5999660
  H       -2.9412840    -1.6093450     2.2217140
  H       -4.5604750    -0.4701320    -1.5992930
  H       -4.5501651    -1.7063293     0.4505097
units angstrom
no_reorient  #important for SAPT in psi4, default
symmetry c1  #important for SAPT in psi4, default
}

set PROPERTIES_ORIGIN ["COM"]
properties('MP2/aug-cc-pvtz', properties = ['dipole'])
--------------------------------------------------------------------------

    Molecular point group: c1
  Charge       = 0
  Multiplicity = 1
  Basis Set: AUG-CC-PVTZ
    Blend: AUG-CC-PVTZ
  Basis Set: (AUG-CC-PVTZ AUX)
    Blend: AUG-CC-PVTZ-JKFIT

    Orbital Energies [Eh]
    ---------------------

    Doubly Occupied:

       1A    -11.240674     2A    -11.238188     3A    -11.236711
       4A    -11.234955     5A    -11.233660     6A    -11.233151
       7A    -11.230974     8A    -11.230368     9A    -11.229695
      10A    -11.228963    11A    -11.228468    12A    -11.228333
      13A    -11.222848    14A    -11.207321    15A     -1.160644
      16A     -1.145772    17A     -1.075564    18A     -1.028476
      19A     -1.009143    20A     -1.007907    21A     -0.961907
      22A     -0.900074    23A     -0.828279    24A     -0.822368
      25A     -0.814228    26A     -0.775945    27A     -0.712854
      28A     -0.669907    29A     -0.649334    30A     -0.638043
      31A     -0.629084    32A     -0.617203    33A     -0.584357
      34A     -0.580876    35A     -0.578199    36A     -0.573332
      37A     -0.559905    38A     -0.548251    39A     -0.528813
      40A     -0.506734    41A     -0.492272    42A     -0.489520
      43A     -0.477256    44A     -0.473245    45A     -0.472139
      46A     -0.336626    47A     -0.332938    48A     -0.328966
      49A     -0.307018

  @DF-RHF Final Energy:  -538.45914380972818

   => Energetics <=

    Nuclear Repulsion Energy =            787.1601027685909457
    One-Electron Energy =               -2289.5555193269765368
    Two-Electron Energy =                 963.9362727486573021
    Total Energy =                       -538.4591438097281753
  Basis Set: (AUG-CC-PVTZ AUX)
    Blend: AUG-CC-PVTZ-RI
    Molecular point group: c1

    Geometry (in Angstrom), charge = 0, multiplicity = 1:

       Center              X                  Y                   Z               Mass
    ------------   -----------------  -----------------  -----------------  -----------------
         C           -0.553718463382     1.595008809630    -0.220951405358    12.000000000000
         C            0.780470536618     0.887859809630    -0.158063405358    12.000000000000
         C           -1.710622463382     0.639218809630    -0.036795405358    12.000000000000
         C            1.752516536618     1.242385809630     0.782450594642    12.000000000000
         C            1.070020536618    -0.150665190370    -1.054480405358    12.000000000000
         C            3.274556536618    -0.454590190370    -0.068048405358    12.000000000000
         C            2.980498536618     0.577825809630     0.828624594642    12.000000000000
         C            2.296443536618    -0.809093190370    -1.008789405358    12.000000000000
         C           -1.797427463382    -0.138291190370     1.127089594642    12.000000000000
         C           -2.704935463382     0.504003809630    -1.011651405358    12.000000000000
         C            4.582500536618    -1.199247190370     0.002649594642    12.000000000000
         C           -2.857873463382    -1.023733190370     1.313186594642    12.000000000000
         C           -3.767766463382    -0.385469190370    -0.830400405358    12.000000000000
         C           -3.847558463382    -1.150461190370     0.333525594642    12.000000000000
         H           -0.660037463382     2.110038809630    -1.184784405358     1.007825032230
         H           -0.586534463382     2.374170809630     0.551941594642     1.007825032230
         H            1.550258536618     2.049262809630     1.485777594642     1.007825032230
         H            0.320893536618    -0.449448190370    -1.786589405358     1.007825032230
         H            3.722988536618     0.873465809630     1.568687594642     1.007825032230
         H            2.502409536618    -1.609292190370    -1.718697405358     1.007825032230
         H           -1.019472463382    -0.052838190370     1.884343594642     1.007825032230
         H           -2.648891463382     1.101626809630    -1.920407405358     1.007825032230
         H            4.923225536618    -1.492011190370    -0.994858405358     1.007825032230
         H            5.361750536618    -0.582894190370     0.459901594642     1.007825032230
         H            4.486939536618    -2.112481190370     0.600335594642     1.007825032230
         H           -2.912522463382    -1.618767190370     2.222083594642     1.007825032230
         H           -4.531713463382    -0.479554190370    -1.598923405358     1.007825032230
         H           -4.521403563382    -1.715751490370     0.450879294642     1.007825032230

  Basis Set: AUG-CC-PVTZ
    Blend: AUG-CC-PVTZ
  Basis Set: (AUG-CC-PVTZ AUX)
    Blend: AUG-CC-PVTZ-JKFIT
	 Reference Energy          =    -538.4591438097281753 [Eh]
	 Singles Energy            =      -0.0000000000000000 [Eh]
	 Same-Spin Energy          =      -0.6080487483946247 [Eh]
	 Opposite-Spin Energy      =      -1.9342198485915816 [Eh]
	 Correlation Energy        =      -2.5422685969862062 [Eh]
	 Total Energy              =    -541.0014124067143939 [Eh]

	 ================> DF-SCS-MP2 Energies <==================
	-----------------------------------------------------------
	 SCS Same-Spin Scale       =       0.3333333333333333 [-]
	 SCS Opposite-Spin Scale   =       1.2000000000000000 [-]
	 SCS Same-Spin Energy      =      -0.2026829161315416 [Eh]
	 SCS Opposite-Spin Energy  =      -2.3210638183098977 [Eh]
	 SCS Correlation Energy    =      -2.5237467344414393 [Eh]
	 SCS Total Energy          =    -540.9828905441696634 [Eh]
	-----------------------------------------------------------

  Dipole Moment: [D]
     X:     0.3182      Y:    -0.1585      Z:     0.0169     Total:     0.3559

*** Psi4 exiting successfully. Buy a developer a beer!
