                               Psi4 1.4a3.dev225

  ==> Input File <==

--------------------------------------------------------------------------
#psi4
#
memory 32 gb

molecule  {
0 1
  C       -0.5824800     1.6044310    -0.2213210
  C        0.7517090     0.8972820    -0.1584330
  C       -1.7393840     0.6486410    -0.0371650
  C        1.7237550     1.2518080     0.7820810
  C        1.0412590    -0.1412430    -1.0548500
  C        3.2457950    -0.4451680    -0.0684180
  C        2.9517370     0.5872480     0.8282550
  C        2.2676820    -0.7996710    -1.0091590
  C       -1.8261890    -0.1288690     1.1267200
  C       -2.7336970     0.5134260    -1.0120210
  C        4.5537390    -1.1898250     0.0022800
  C       -2.8981810    -1.0310270     1.3263395
  C       -3.7965280    -0.3760470    -0.8307700
  C       -3.8763200    -1.1410390     0.3331560
  H       -0.6887990     2.1194610    -1.1851540
  H       -0.6152960     2.3835930     0.5515720
  H        1.5214970     2.0586850     1.4854080
  H        0.2921320    -0.4400260    -1.7869590
  H        3.6942270     0.8828880     1.5683180
  H        2.4736480    -1.5998700    -1.7190670
  H       -1.0482340    -0.0434160     1.8839740
  H       -2.6776530     1.1110490    -1.9207770
  H        4.8944640    -1.4825890    -0.9952280
  H        5.3329890    -0.5734720     0.4595320
  H        4.4581780    -2.1030590     0.5999660
  H       -2.9412840    -1.6093450     2.2217140
  H       -4.5604750    -0.4701320    -1.5992930
  H       -4.7020430    -1.8337400     0.4769600
units angstrom
no_reorient  #important for SAPT in psi4, default
symmetry c1  #important for SAPT in psi4, default
}

set PROPERTIES_ORIGIN ["COM"]
properties('MP2/aug-cc-pvtz', properties = ['dipole'])
--------------------------------------------------------------------------

    Molecular point group: c1
  Charge       = 0
  Multiplicity = 1
  Basis Set: AUG-CC-PVTZ
    Blend: AUG-CC-PVTZ
  Basis Set: (AUG-CC-PVTZ AUX)
    Blend: AUG-CC-PVTZ-JKFIT

    Orbital Energies [Eh]
    ---------------------

    Doubly Occupied:

       1A    -11.240961     2A    -11.238295     3A    -11.236864
       4A    -11.235312     5A    -11.235293     6A    -11.235066
       7A    -11.232102     8A    -11.231872     9A    -11.231629
      10A    -11.231097    11A    -11.229824    12A    -11.229076
      13A    -11.228597    14A    -11.222929    15A     -1.159957
      16A     -1.144107    17A     -1.073680    18A     -1.024216
      19A     -1.008457    20A     -1.007902    21A     -0.957070
      22A     -0.895885    23A     -0.828649    24A     -0.824167
      25A     -0.802395    26A     -0.774472    27A     -0.692957
      28A     -0.667671    29A     -0.648216    30A     -0.636406
      31A     -0.629213    32A     -0.618186    33A     -0.583398
      34A     -0.578660    35A     -0.575399    36A     -0.569312
      37A     -0.559766    38A     -0.547917    39A     -0.527432
      40A     -0.501351    41A     -0.494045    42A     -0.489319
      43A     -0.477335    44A     -0.473984    45A     -0.470549
      46A     -0.336677    47A     -0.332270    48A     -0.329569
      49A     -0.307191

  @DF-RHF Final Energy:  -538.49280877606577

   => Energetics <=

    Nuclear Repulsion Energy =            785.5085890623281557
    One-Electron Energy =               -2286.3894006312802958
    Two-Electron Energy =                 962.3880027928863683
    Total Energy =                       -538.4928087760657718
  Basis Set: (AUG-CC-PVTZ AUX)
    Blend: AUG-CC-PVTZ-RI
    Molecular point group: c1

    Geometry (in Angstrom), charge = 0, multiplicity = 1:

       Center              X                  Y                   Z               Mass
    ------------   -----------------  -----------------  -----------------  -----------------
         C           -0.552117128643     1.596815412809    -0.221988842845    12.000000000000
         C            0.782071871357     0.889666412809    -0.159100842845    12.000000000000
         C           -1.709021128643     0.641025412809    -0.037832842845    12.000000000000
         C            1.754117871357     1.244192412809     0.781413157155    12.000000000000
         C            1.071621871357    -0.148858587191    -1.055517842845    12.000000000000
         C            3.276157871357    -0.452783587191    -0.069085842845    12.000000000000
         C            2.982099871357     0.579632412809     0.827587157155    12.000000000000
         C            2.298044871357    -0.807286587191    -1.009826842845    12.000000000000
         C           -1.795826128643    -0.136484587191     1.126052157155    12.000000000000
         C           -2.703334128643     0.505810412809    -1.012688842845    12.000000000000
         C            4.584101871357    -1.197440587191     0.001612157155    12.000000000000
         C           -2.867818128643    -1.038642587191     1.325671657155    12.000000000000
         C           -3.766165128643    -0.383662587191    -0.831437842845    12.000000000000
         C           -3.845957128643    -1.148654587191     0.332488157155    12.000000000000
         H           -0.658436128643     2.111845412809    -1.185821842845     1.007825032230
         H           -0.584933128643     2.375977412809     0.550904157155     1.007825032230
         H            1.551859871357     2.051069412809     1.484740157155     1.007825032230
         H            0.322494871357    -0.447641587191    -1.787626842845     1.007825032230
         H            3.724589871357     0.875272412809     1.567650157155     1.007825032230
         H            2.504010871357    -1.607485587191    -1.719734842845     1.007825032230
         H           -1.017871128643    -0.051031587191     1.883306157155     1.007825032230
         H           -2.647290128643     1.103433412809    -1.921444842845     1.007825032230
         H            4.924826871357    -1.490204587191    -0.995895842845     1.007825032230
         H            5.363351871357    -0.581087587191     0.458864157155     1.007825032230
         H            4.488540871357    -2.110674587191     0.599298157155     1.007825032230
         H           -2.910921128643    -1.616960587191     2.221046157155     1.007825032230
         H           -4.530112128643    -0.477747587191    -1.599960842845     1.007825032230
         H           -4.671680128643    -1.841355587191     0.476292157155     1.007825032230

  Basis Set: AUG-CC-PVTZ
    Blend: AUG-CC-PVTZ
  Basis Set: (AUG-CC-PVTZ AUX)
    Blend: AUG-CC-PVTZ-JKFIT
	 Reference Energy          =    -538.4928087760657718 [Eh]
	 Singles Energy            =      -0.0000000000000000 [Eh]
	 Same-Spin Energy          =      -0.6082097063531775 [Eh]
	 Opposite-Spin Energy      =      -1.9349215528907733 [Eh]
	 Correlation Energy        =      -2.5431312592439506 [Eh]
	 Total Energy              =    -541.0359400353097499 [Eh]

	 ================> DF-SCS-MP2 Energies <==================
	-----------------------------------------------------------
	 SCS Same-Spin Scale       =       0.3333333333333333 [-]
	 SCS Opposite-Spin Scale   =       1.2000000000000000 [-]
	 SCS Same-Spin Energy      =      -0.2027365687843925 [Eh]
	 SCS Opposite-Spin Energy  =      -2.3219058634689280 [Eh]
	 SCS Correlation Energy    =      -2.5246424322533203 [Eh]
	 SCS Total Energy          =    -541.0174512083191303 [Eh]
	-----------------------------------------------------------

  Dipole Moment: [D]
     X:     0.3633      Y:    -0.1328      Z:     0.0183     Total:     0.3872

*** Psi4 exiting successfully. Buy a developer a beer!
