                               Psi4 1.4a3.dev225

  ==> Input File <==

--------------------------------------------------------------------------
#psi4
#
memory 32 gb

molecule  {
0 1
  C       -0.5824800     1.6044310    -0.2213210
  C        0.7517090     0.8972820    -0.1584330
  C       -1.7393840     0.6486410    -0.0371650
  C        1.7237550     1.2518080     0.7820810
  C        1.0412590    -0.1412430    -1.0548500
  C        3.2457950    -0.4451680    -0.0684180
  C        2.9517370     0.5872480     0.8282550
  C        2.2676820    -0.7996710    -1.0091590
  C       -1.8261890    -0.1288690     1.1267200
  C       -2.7336970     0.5134260    -1.0120210
  C        4.5537390    -1.1898250     0.0022800
  C       -2.8866350    -1.0143110     1.3128170
  C       -3.7965280    -0.3760470    -0.8307700
  C       -3.8763200    -1.1410390     0.3331560
  H       -0.6887990     2.1194610    -1.1851540
  H       -0.6152960     2.3835930     0.5515720
  H        1.5029297     2.1327563     1.5499734
  H        0.2921320    -0.4400260    -1.7869590
  H        3.6942270     0.8828880     1.5683180
  H        2.4736480    -1.5998700    -1.7190670
  H       -1.0482340    -0.0434160     1.8839740
  H       -2.6776530     1.1110490    -1.9207770
  H        4.8944640    -1.4825890    -0.9952280
  H        5.3329890    -0.5734720     0.4595320
  H        4.4581780    -2.1030590     0.5999660
  H       -2.9412840    -1.6093450     2.2217140
  H       -4.5604750    -0.4701320    -1.5992930
  H       -4.7020430    -1.8337400     0.4769600
units angstrom
no_reorient  #important for SAPT in psi4, default
symmetry c1  #important for SAPT in psi4, default
}

set PROPERTIES_ORIGIN ["COM"]
properties('MP2/aug-cc-pvtz', properties = ['dipole'])
--------------------------------------------------------------------------

    Molecular point group: c1
  Charge       = 0
  Multiplicity = 1
  Basis Set: AUG-CC-PVTZ
    Blend: AUG-CC-PVTZ
  Basis Set: (AUG-CC-PVTZ AUX)
    Blend: AUG-CC-PVTZ-JKFIT

    Orbital Energies [Eh]
    ---------------------

    Doubly Occupied:

       1A    -11.242655     2A    -11.241027     3A    -11.239240
       4A    -11.237981     5A    -11.235218     6A    -11.235010
       7A    -11.234506     8A    -11.231506     9A    -11.231256
      10A    -11.230682    11A    -11.230473    12A    -11.229388
      13A    -11.229369    14A    -11.223513    15A     -1.160775
      16A     -1.145425    17A     -1.074026    18A     -1.023823
      19A     -1.010143    20A     -1.006573    21A     -0.957574
      22A     -0.896230    23A     -0.826761    24A     -0.821352
      25A     -0.801483    26A     -0.773325    27A     -0.693283
      28A     -0.665694    29A     -0.648862    30A     -0.634819
      31A     -0.623130    32A     -0.616460    33A     -0.582785
      34A     -0.576130    35A     -0.573931    36A     -0.568922
      37A     -0.557366    38A     -0.548703    39A     -0.528368
      40A     -0.502970    41A     -0.491041    42A     -0.489162
      43A     -0.474457    44A     -0.473960    45A     -0.471831
      46A     -0.337485    47A     -0.333858    48A     -0.329660
      49A     -0.307837

  @DF-RHF Final Energy:  -538.48646226120616

   => Energetics <=

    Nuclear Repulsion Energy =            785.4654756564945046
    One-Electron Energy =               -2286.3038236161601162
    Two-Electron Energy =                 962.3518856984593413
    Total Energy =                       -538.4864622612061567
  Basis Set: (AUG-CC-PVTZ AUX)
    Blend: AUG-CC-PVTZ-RI
    Molecular point group: c1

    Geometry (in Angstrom), charge = 0, multiplicity = 1:

       Center              X                  Y                   Z               Mass
    ------------   -----------------  -----------------  -----------------  -----------------
         C           -0.552775190836     1.595303998885    -0.221455101625    12.000000000000
         C            0.781413809164     0.888154998885    -0.158567101625    12.000000000000
         C           -1.709679190836     0.639513998885    -0.037299101625    12.000000000000
         C            1.753459809164     1.242680998885     0.781946898375    12.000000000000
         C            1.070963809164    -0.150370001115    -1.054984101625    12.000000000000
         C            3.275499809164    -0.454295001115    -0.068552101625    12.000000000000
         C            2.981441809164     0.578120998885     0.828120898375    12.000000000000
         C            2.297386809164    -0.808798001115    -1.009293101625    12.000000000000
         C           -1.796484190836    -0.137996001115     1.126585898375    12.000000000000
         C           -2.703992190836     0.504298998885    -1.012155101625    12.000000000000
         C            4.583443809164    -1.198952001115     0.002145898375    12.000000000000
         C           -2.856930190836    -1.023438001115     1.312682898375    12.000000000000
         C           -3.766823190836    -0.385174001115    -0.830904101625    12.000000000000
         C           -3.846615190836    -1.150166001115     0.333021898375    12.000000000000
         H           -0.659094190836     2.110333998885    -1.185288101625     1.007825032230
         H           -0.585591190836     2.374465998885     0.551437898375     1.007825032230
         H            1.532634509164     2.123629298885     1.549839298375     1.007825032230
         H            0.321836809164    -0.449153001115    -1.787093101625     1.007825032230
         H            3.723931809164     0.873760998885     1.568183898375     1.007825032230
         H            2.503352809164    -1.608997001115    -1.719201101625     1.007825032230
         H           -1.018529190836    -0.052543001115     1.883839898375     1.007825032230
         H           -2.647948190836     1.101921998885    -1.920911101625     1.007825032230
         H            4.924168809164    -1.491716001115    -0.995362101625     1.007825032230
         H            5.362693809164    -0.582599001115     0.459397898375     1.007825032230
         H            4.487882809164    -2.112186001115     0.599831898375     1.007825032230
         H           -2.911579190836    -1.618472001115     2.221579898375     1.007825032230
         H           -4.530770190836    -0.479259001115    -1.599427101625     1.007825032230
         H           -4.672338190836    -1.842867001115     0.476825898375     1.007825032230

  Basis Set: AUG-CC-PVTZ
    Blend: AUG-CC-PVTZ
  Basis Set: (AUG-CC-PVTZ AUX)
    Blend: AUG-CC-PVTZ-JKFIT
	 Reference Energy          =    -538.4864622612061567 [Eh]
	 Singles Energy            =      -0.0000000000000000 [Eh]
	 Same-Spin Energy          =      -0.6084656874420082 [Eh]
	 Opposite-Spin Energy      =      -1.9357688216925528 [Eh]
	 Correlation Energy        =      -2.5442345091345611 [Eh]
	 Total Energy              =    -541.0306967703406826 [Eh]

	 ================> DF-SCS-MP2 Energies <==================
	-----------------------------------------------------------
	 SCS Same-Spin Scale       =       0.3333333333333333 [-]
	 SCS Opposite-Spin Scale   =       1.2000000000000000 [-]
	 SCS Same-Spin Energy      =      -0.2028218958140027 [Eh]
	 SCS Opposite-Spin Energy  =      -2.3229225860310634 [Eh]
	 SCS Correlation Energy    =      -2.5257444818450661 [Eh]
	 SCS Total Energy          =    -541.0122067430512516 [Eh]
	-----------------------------------------------------------

  Dipole Moment: [D]
     X:     0.3808      Y:    -0.1716      Z:    -0.0208     Total:     0.4182

*** Psi4 exiting successfully. Buy a developer a beer!
