                               Psi4 1.4a3.dev225

  ==> Input File <==

--------------------------------------------------------------------------
#psi4
#
memory 32 gb

molecule  {
0 1
  C       -0.5824800     1.6044310    -0.2213210
  C        0.7517090     0.8972820    -0.1584330
  C       -1.7393840     0.6486410    -0.0371650
  C        1.7237550     1.2518080     0.7820810
  C        1.0412590    -0.1412430    -1.0548500
  C        3.2457950    -0.4451680    -0.0684180
  C        3.0390182     0.5719133     0.8692197
  C        2.2676820    -0.7996710    -1.0091590
  C       -1.8261890    -0.1288690     1.1267200
  C       -2.7336970     0.5134260    -1.0120210
  C        4.5537390    -1.1898250     0.0022800
  C       -2.8866350    -1.0143110     1.3128170
  C       -3.7965280    -0.3760470    -0.8307700
  C       -3.8763200    -1.1410390     0.3331560
  H       -0.6887990     2.1194610    -1.1851540
  H       -0.6152960     2.3835930     0.5515720
  H        1.5214970     2.0586850     1.4854080
  H        0.2921320    -0.4400260    -1.7869590
  H        3.6942270     0.8828880     1.5683180
  H        2.4736480    -1.5998700    -1.7190670
  H       -1.0482340    -0.0434160     1.8839740
  H       -2.6776530     1.1110490    -1.9207770
  H        4.8944640    -1.4825890    -0.9952280
  H        5.3329890    -0.5734720     0.4595320
  H        4.4581780    -2.1030590     0.5999660
  H       -2.9412840    -1.6093450     2.2217140
  H       -4.5604750    -0.4701320    -1.5992930
  H       -4.7020430    -1.8337400     0.4769600
units angstrom
no_reorient  #important for SAPT in psi4, default
symmetry c1  #important for SAPT in psi4, default
}

set PROPERTIES_ORIGIN ["COM"]
properties('MP2/aug-cc-pvtz', properties = ['dipole'])
--------------------------------------------------------------------------

    Molecular point group: c1
  Charge       = 0
  Multiplicity = 1
  Basis Set: AUG-CC-PVTZ
    Blend: AUG-CC-PVTZ
  Basis Set: (AUG-CC-PVTZ AUX)
    Blend: AUG-CC-PVTZ-JKFIT

    Orbital Energies [Eh]
    ---------------------

    Doubly Occupied:

       1A    -11.241145     2A    -11.240335     3A    -11.239811
       4A    -11.237074     5A    -11.235678     6A    -11.235177
       7A    -11.234643     8A    -11.232486     9A    -11.231735
      10A    -11.231456    11A    -11.230861    12A    -11.230125
      13A    -11.229494    14A    -11.220357    15A     -1.158436
      16A     -1.142082    17A     -1.074817    18A     -1.023927
      19A     -1.010322    20A     -1.002075    21A     -0.954241
      22A     -0.895875    23A     -0.835279    24A     -0.823790
      25A     -0.800735    26A     -0.775054    27A     -0.693865
      28A     -0.668405    29A     -0.644599    30A     -0.641145
      31A     -0.634357    32A     -0.617634    33A     -0.583308
      34A     -0.582287    35A     -0.574026    36A     -0.569075
      37A     -0.561281    38A     -0.546949    39A     -0.526135
      40A     -0.501176    41A     -0.495511    42A     -0.489419
      43A     -0.481007    44A     -0.468096    45A     -0.465243
      46A     -0.336161    47A     -0.332683    48A     -0.324471
      49A     -0.310049

  @DF-RHF Final Energy:  -538.48070756618313

   => Energetics <=

    Nuclear Repulsion Energy =            784.4163132393711066
    One-Electron Energy =               -2284.1662589038637634
    Two-Electron Energy =                 961.2692380983096427
    Total Energy =                       -538.4807075661831277
  Basis Set: (AUG-CC-PVTZ AUX)
    Blend: AUG-CC-PVTZ-RI
    Molecular point group: c1

    Geometry (in Angstrom), charge = 0, multiplicity = 1:

       Center              X                  Y                   Z               Mass
    ------------   -----------------  -----------------  -----------------  -----------------
         C           -0.558629287928     1.596724392871    -0.223797130215    12.000000000000
         C            0.775559712072     0.889575392871    -0.160909130215    12.000000000000
         C           -1.715533287928     0.640934392871    -0.039641130215    12.000000000000
         C            1.747605712072     1.244101392871     0.779604869785    12.000000000000
         C            1.065109712072    -0.148949607129    -1.057326130215    12.000000000000
         C            3.269645712072    -0.452874607129    -0.070894130215    12.000000000000
         C            3.062868912072     0.564206692871     0.866743569785    12.000000000000
         C            2.291532712072    -0.807377607129    -1.011635130215    12.000000000000
         C           -1.802338287928    -0.136575607129     1.124243869785    12.000000000000
         C           -2.709846287928     0.505719392871    -1.014497130215    12.000000000000
         C            4.577589712072    -1.197531607129    -0.000196130215    12.000000000000
         C           -2.862784287928    -1.022017607129     1.310340869785    12.000000000000
         C           -3.772677287928    -0.383753607129    -0.833246130215    12.000000000000
         C           -3.852469287928    -1.148745607129     0.330679869785    12.000000000000
         H           -0.664948287928     2.111754392871    -1.187630130215     1.007825032230
         H           -0.591445287928     2.375886392871     0.549095869785     1.007825032230
         H            1.545347712072     2.050978392871     1.482931869785     1.007825032230
         H            0.315982712072    -0.447732607129    -1.789435130215     1.007825032230
         H            3.718077712072     0.875181392871     1.565841869785     1.007825032230
         H            2.497498712072    -1.607576607129    -1.721543130215     1.007825032230
         H           -1.024383287928    -0.051122607129     1.881497869785     1.007825032230
         H           -2.653802287928     1.103342392871    -1.923253130215     1.007825032230
         H            4.918314712072    -1.490295607129    -0.997704130215     1.007825032230
         H            5.356839712072    -0.581178607129     0.457055869785     1.007825032230
         H            4.482028712072    -2.110765607129     0.597489869785     1.007825032230
         H           -2.917433287928    -1.617051607129     2.219237869785     1.007825032230
         H           -4.536624287928    -0.477838607129    -1.601769130215     1.007825032230
         H           -4.678192287928    -1.841446607129     0.474483869785     1.007825032230

  Basis Set: AUG-CC-PVTZ
    Blend: AUG-CC-PVTZ
  Basis Set: (AUG-CC-PVTZ AUX)
    Blend: AUG-CC-PVTZ-JKFIT
	 Reference Energy          =    -538.4807075661831277 [Eh]
	 Singles Energy            =      -0.0000000000000000 [Eh]
	 Same-Spin Energy          =      -0.6080940185345205 [Eh]
	 Opposite-Spin Energy      =      -1.9357709174612032 [Eh]
	 Correlation Energy        =      -2.5438649359957237 [Eh]
	 Total Energy              =    -541.0245725021788985 [Eh]

	 ================> DF-SCS-MP2 Energies <==================
	-----------------------------------------------------------
	 SCS Same-Spin Scale       =       0.3333333333333333 [-]
	 SCS Opposite-Spin Scale   =       1.2000000000000000 [-]
	 SCS Same-Spin Energy      =      -0.2026980061781735 [Eh]
	 SCS Opposite-Spin Energy  =      -2.3229251009534440 [Eh]
	 SCS Correlation Energy    =      -2.5256231071316173 [Eh]
	 SCS Total Energy          =    -541.0063306733147783 [Eh]
	-----------------------------------------------------------

  Dipole Moment: [D]
     X:     0.3253      Y:    -0.1104      Z:     0.0206     Total:     0.3442

*** Psi4 exiting successfully. Buy a developer a beer!
