                               Psi4 1.4a3.dev225

  ==> Input File <==

--------------------------------------------------------------------------
#psi4
#
memory 32 gb

molecule  {
0 1
  C       -0.5824800     1.6044310    -0.2213210
  C        0.6680733     1.0023306    -0.1002035
  C       -1.7393840     0.6486410    -0.0371650
  C        1.7237550     1.2518080     0.7820810
  C        1.0412590    -0.1412430    -1.0548500
  C        3.2457950    -0.4451680    -0.0684180
  C        2.9517370     0.5872480     0.8282550
  C        2.2676820    -0.7996710    -1.0091590
  C       -1.8261890    -0.1288690     1.1267200
  C       -2.7336970     0.5134260    -1.0120210
  C        4.5537390    -1.1898250     0.0022800
  C       -2.8866350    -1.0143110     1.3128170
  C       -3.7965280    -0.3760470    -0.8307700
  C       -3.8763200    -1.1410390     0.3331560
  H       -0.6887990     2.1194610    -1.1851540
  H       -0.6152960     2.3835930     0.5515720
  H        1.5214970     2.0586850     1.4854080
  H        0.2921320    -0.4400260    -1.7869590
  H        3.6942270     0.8828880     1.5683180
  H        2.4736480    -1.5998700    -1.7190670
  H       -1.0482340    -0.0434160     1.8839740
  H       -2.6776530     1.1110490    -1.9207770
  H        4.8944640    -1.4825890    -0.9952280
  H        5.3329890    -0.5734720     0.4595320
  H        4.4581780    -2.1030590     0.5999660
  H       -2.9412840    -1.6093450     2.2217140
  H       -4.5604750    -0.4701320    -1.5992930
  H       -4.7020430    -1.8337400     0.4769600
units angstrom
no_reorient  #important for SAPT in psi4, default
symmetry c1  #important for SAPT in psi4, default
}

set PROPERTIES_ORIGIN ["COM"]
properties('MP2/aug-cc-pvtz', properties = ['dipole'])
--------------------------------------------------------------------------

    Molecular point group: c1
  Charge       = 0
  Multiplicity = 1
  Basis Set: AUG-CC-PVTZ
    Blend: AUG-CC-PVTZ
  Basis Set: (AUG-CC-PVTZ AUX)
    Blend: AUG-CC-PVTZ-JKFIT

    Orbital Energies [Eh]
    ---------------------

    Doubly Occupied:

       1A    -11.244282     2A    -11.243912     3A    -11.240882
       4A    -11.240107     5A    -11.236444     6A    -11.235814
       7A    -11.233499     8A    -11.232798     9A    -11.232114
      10A    -11.232036    11A    -11.231148    12A    -11.228688
      13A    -11.228143    14A    -11.223369    15A     -1.162232
      16A     -1.140843    17A     -1.086755    18A     -1.022403
      19A     -1.011605    20A     -1.000787    21A     -0.968367
      22A     -0.895213    23A     -0.827314    24A     -0.819147
      25A     -0.807244    26A     -0.770141    27A     -0.697258
      28A     -0.668616    29A     -0.650832    30A     -0.639204
      31A     -0.632605    32A     -0.617134    33A     -0.584560
      34A     -0.577167    35A     -0.575301    36A     -0.571810
      37A     -0.562447    38A     -0.558332    39A     -0.524775
      40A     -0.503922    41A     -0.495036    42A     -0.492406
      43A     -0.486802    44A     -0.465654    45A     -0.450450
      46A     -0.336221    47A     -0.334937    48A     -0.332108
      49A     -0.297604

  @DF-RHF Final Energy:  -538.46543858930625

   => Energetics <=

    Nuclear Repulsion Energy =            785.4194203433662551
    One-Electron Energy =               -2286.0687830316146574
    Two-Electron Energy =                 962.1839240989421569
    Total Energy =                       -538.4654385893062454
  Basis Set: (AUG-CC-PVTZ AUX)
    Blend: AUG-CC-PVTZ-RI
    Molecular point group: c1

    Geometry (in Angstrom), charge = 0, multiplicity = 1:

       Center              X                  Y                   Z               Mass
    ------------   -----------------  -----------------  -----------------  -----------------
         C           -0.547366820941     1.588791807258    -0.224934783893    12.000000000000
         C            0.703186479059     0.986691407258    -0.103817283893    12.000000000000
         C           -1.704270820941     0.633001807258    -0.040778783893    12.000000000000
         C            1.758868179059     1.236168807258     0.778467216107    12.000000000000
         C            1.076372179059    -0.156882192742    -1.058463783893    12.000000000000
         C            3.280908179059    -0.460807192742    -0.072031783893    12.000000000000
         C            2.986850179059     0.571608807258     0.824641216107    12.000000000000
         C            2.302795179059    -0.815310192742    -1.012772783893    12.000000000000
         C           -1.791075820941    -0.144508192742     1.123106216107    12.000000000000
         C           -2.698583820941     0.497786807258    -1.015634783893    12.000000000000
         C            4.588852179059    -1.205464192742    -0.001333783893    12.000000000000
         C           -2.851521820941    -1.029950192742     1.309203216107    12.000000000000
         C           -3.761414820941    -0.391686192742    -0.834383783893    12.000000000000
         C           -3.841206820941    -1.156678192742     0.329542216107    12.000000000000
         H           -0.653685820941     2.103821807258    -1.188767783893     1.007825032230
         H           -0.580182820941     2.367953807258     0.547958216107     1.007825032230
         H            1.556610179059     2.043045807258     1.481794216107     1.007825032230
         H            0.327245179059    -0.455665192742    -1.790572783893     1.007825032230
         H            3.729340179059     0.867248807258     1.564704216107     1.007825032230
         H            2.508761179059    -1.615509192742    -1.722680783893     1.007825032230
         H           -1.013120820941    -0.059055192742     1.880360216107     1.007825032230
         H           -2.642539820941     1.095409807258    -1.924390783893     1.007825032230
         H            4.929577179059    -1.498228192742    -0.998841783893     1.007825032230
         H            5.368102179059    -0.589111192742     0.455918216107     1.007825032230
         H            4.493291179059    -2.118698192742     0.596352216107     1.007825032230
         H           -2.906170820941    -1.624984192742     2.218100216107     1.007825032230
         H           -4.525361820941    -0.485771192742    -1.602906783893     1.007825032230
         H           -4.666929820941    -1.849379192742     0.473346216107     1.007825032230

  Basis Set: AUG-CC-PVTZ
    Blend: AUG-CC-PVTZ
  Basis Set: (AUG-CC-PVTZ AUX)
    Blend: AUG-CC-PVTZ-JKFIT
	 Reference Energy          =    -538.4654385893062454 [Eh]
	 Singles Energy            =      -0.0000000000000000 [Eh]
	 Same-Spin Energy          =      -0.6098337026394718 [Eh]
	 Opposite-Spin Energy      =      -1.9382902185262054 [Eh]
	 Correlation Energy        =      -2.5481239211656774 [Eh]
	 Total Energy              =    -541.0135625104719566 [Eh]

	 ================> DF-SCS-MP2 Energies <==================
	-----------------------------------------------------------
	 SCS Same-Spin Scale       =       0.3333333333333333 [-]
	 SCS Opposite-Spin Scale   =       1.2000000000000000 [-]
	 SCS Same-Spin Energy      =      -0.2032779008798239 [Eh]
	 SCS Opposite-Spin Energy  =      -2.3259482622314462 [Eh]
	 SCS Correlation Energy    =      -2.5292261631112702 [Eh]
	 SCS Total Energy          =    -540.9946647524175205 [Eh]
	-----------------------------------------------------------

  Dipole Moment: [D]
     X:     0.1743      Y:    -0.1456      Z:    -0.0158     Total:     0.2277

*** Psi4 exiting successfully. Buy a developer a beer!
