                               Psi4 1.4a3.dev225

  ==> Input File <==

--------------------------------------------------------------------------
#psi4
#
memory 32 gb

molecule  {
0 1
  C       -0.5824800     1.6044310    -0.2213210
  C        0.7517090     0.8972820    -0.1584330
  C       -1.7393840     0.6486410    -0.0371650
  C        1.7237550     1.2518080     0.7820810
  C        1.0412590    -0.1412430    -1.0548500
  C        3.2457950    -0.4451680    -0.0684180
  C        2.9517370     0.5872480     0.8282550
  C        2.2676820    -0.7996710    -1.0091590
  C       -1.8261890    -0.1288690     1.1267200
  C       -2.7336970     0.5134260    -1.0120210
  C        4.5537390    -1.1898250     0.0022800
  C       -2.8866350    -1.0143110     1.3128170
  C       -3.7965280    -0.3760470    -0.8307700
  C       -3.8763200    -1.1410390     0.3331560
  H       -0.6887990     2.1194610    -1.1851540
  H       -0.6152960     2.3835930     0.5515720
  H        1.5214970     2.0586850     1.4854080
  H        0.2921320    -0.4400260    -1.7869590
  H        3.6942270     0.8828880     1.5683180
  H        2.4736480    -1.5998700    -1.7190670
  H       -1.0482340    -0.0434160     1.8839740
  H       -2.6776530     1.1110490    -1.9207770
  H        4.8321740    -1.4290670    -0.8128675
  H        5.3329890    -0.5734720     0.4595320
  H        4.4581780    -2.1030590     0.5999660
  H       -2.9412840    -1.6093450     2.2217140
  H       -4.5604750    -0.4701320    -1.5992930
  H       -4.7020430    -1.8337400     0.4769600
units angstrom
no_reorient  #important for SAPT in psi4, default
symmetry c1  #important for SAPT in psi4, default
}

set PROPERTIES_ORIGIN ["COM"]
properties('MP2/aug-cc-pvtz', properties = ['dipole'])
--------------------------------------------------------------------------

    Molecular point group: c1
  Charge       = 0
  Multiplicity = 1
  Basis Set: AUG-CC-PVTZ
    Blend: AUG-CC-PVTZ
  Basis Set: (AUG-CC-PVTZ AUX)
    Blend: AUG-CC-PVTZ-JKFIT

    Orbital Energies [Eh]
    ---------------------

    Doubly Occupied:

       1A    -11.240869     2A    -11.237105     3A    -11.236468
       4A    -11.234992     5A    -11.234861     6A    -11.234366
       7A    -11.231332     8A    -11.231092     9A    -11.230599
      10A    -11.229694    11A    -11.229232    12A    -11.228472
      13A    -11.228101    14A    -11.198269    15A     -1.160494
      16A     -1.145267    17A     -1.075998    18A     -1.028942
      19A     -1.010034    20A     -1.007650    21A     -0.967683
      22A     -0.904633    23A     -0.827732    24A     -0.822802
      25A     -0.804638    26A     -0.775586    27A     -0.693450
      28A     -0.670770    29A     -0.651142    30A     -0.635435
      31A     -0.630417    32A     -0.618495    33A     -0.591761
      34A     -0.582586    35A     -0.578293    36A     -0.569425
      37A     -0.560483    38A     -0.555949    39A     -0.532159
      40A     -0.502287    41A     -0.492096    42A     -0.489887
      43A     -0.477991    44A     -0.473328    45A     -0.471027
      46A     -0.336735    47A     -0.333476    48A     -0.329201
      49A     -0.307061

  @DF-RHF Final Energy:  -538.45996688267860

   => Energetics <=

    Nuclear Repulsion Energy =            786.9645232867276263
    One-Electron Energy =               -2289.1682498116392708
    Two-Electron Energy =                 963.7437596422330444
    Total Energy =                       -538.4599668826786001
  Basis Set: (AUG-CC-PVTZ AUX)
    Blend: AUG-CC-PVTZ-RI
    Molecular point group: c1

    Geometry (in Angstrom), charge = 0, multiplicity = 1:

       Center              X                  Y                   Z               Mass
    ------------   -----------------  -----------------  -----------------  -----------------
         C           -0.552533222025     1.595417722184    -0.222106999618    12.000000000000
         C            0.781655777975     0.888268722184    -0.159218999618    12.000000000000
         C           -1.709437222025     0.639627722184    -0.037950999618    12.000000000000
         C            1.753701777975     1.242794722184     0.781295000382    12.000000000000
         C            1.071205777975    -0.150256277816    -1.055635999618    12.000000000000
         C            3.275741777975    -0.454181277816    -0.069203999618    12.000000000000
         C            2.981683777975     0.578234722184     0.827469000382    12.000000000000
         C            2.297628777975    -0.808684277816    -1.009944999618    12.000000000000
         C           -1.796242222025    -0.137882277816     1.125934000382    12.000000000000
         C           -2.703750222025     0.504412722184    -1.012806999618    12.000000000000
         C            4.583685777975    -1.198838277816     0.001494000382    12.000000000000
         C           -2.856688222025    -1.023324277816     1.312031000382    12.000000000000
         C           -3.766581222025    -0.385060277816    -0.831555999618    12.000000000000
         C           -3.846373222025    -1.150052277816     0.332370000382    12.000000000000
         H           -0.658852222025     2.110447722184    -1.185939999618     1.007825032230
         H           -0.585349222025     2.374579722184     0.550786000382     1.007825032230
         H            1.551443777975     2.049671722184     1.484622000382     1.007825032230
         H            0.322078777975    -0.449039277816    -1.787744999618     1.007825032230
         H            3.724173777975     0.873874722184     1.567532000382     1.007825032230
         H            2.503594777975    -1.608883277816    -1.719852999618     1.007825032230
         H           -1.018287222025    -0.052429277816     1.883188000382     1.007825032230
         H           -2.647706222025     1.102035722184    -1.921562999618     1.007825032230
         H            4.862120777975    -1.438080277816    -0.813653499618     1.007825032230
         H            5.362935777975    -0.582485277816     0.458746000382     1.007825032230
         H            4.488124777975    -2.112072277816     0.599180000382     1.007825032230
         H           -2.911337222025    -1.618358277816     2.220928000382     1.007825032230
         H           -4.530528222025    -0.479145277816    -1.600078999618     1.007825032230
         H           -4.672096222025    -1.842753277816     0.476174000382     1.007825032230

  Basis Set: AUG-CC-PVTZ
    Blend: AUG-CC-PVTZ
  Basis Set: (AUG-CC-PVTZ AUX)
    Blend: AUG-CC-PVTZ-JKFIT
	 Reference Energy          =    -538.4599668826786001 [Eh]
	 Singles Energy            =      -0.0000000000000000 [Eh]
	 Same-Spin Energy          =      -0.6082810894660828 [Eh]
	 Opposite-Spin Energy      =      -1.9340829977052114 [Eh]
	 Correlation Energy        =      -2.5423640871712943 [Eh]
	 Total Energy              =    -541.0023309698499361 [Eh]

	 ================> DF-SCS-MP2 Energies <==================
	-----------------------------------------------------------
	 SCS Same-Spin Scale       =       0.3333333333333333 [-]
	 SCS Opposite-Spin Scale   =       1.2000000000000000 [-]
	 SCS Same-Spin Energy      =      -0.2027603631553609 [Eh]
	 SCS Opposite-Spin Energy  =      -2.3208995972462536 [Eh]
	 SCS Correlation Energy    =      -2.5236599604016146 [Eh]
	 SCS Total Energy          =    -540.9836268430801738 [Eh]
	-----------------------------------------------------------

  Dipole Moment: [D]
     X:     0.4253      Y:    -0.1678      Z:    -0.0387     Total:     0.4588

*** Psi4 exiting successfully. Buy a developer a beer!
