                               Psi4 1.4a3.dev225

  ==> Input File <==

--------------------------------------------------------------------------
#psi4
#
memory 32 gb

molecule  {
0 1
  C       -0.5824800     1.6044310    -0.2213210
  C        0.7517090     0.8972820    -0.1584330
  C       -1.7393840     0.6486410    -0.0371650
  C        1.7237550     1.2518080     0.7820810
  C        1.0412590    -0.1412430    -1.0548500
  C        3.2457950    -0.4451680    -0.0684180
  C        2.9517370     0.5872480     0.8282550
  C        2.2676820    -0.7996710    -1.0091590
  C       -1.8261890    -0.1288690     1.1267200
  C       -2.7336970     0.5134260    -1.0120210
  C        4.5537390    -1.1898250     0.0022800
  C       -2.8866350    -1.0143110     1.3128170
  C       -3.7965280    -0.3760470    -0.8307700
  C       -3.8763200    -1.1410390     0.3331560
  H       -0.6887990     2.1194610    -1.1851540
  H       -0.6152960     2.3835930     0.5515720
  H        1.5214970     2.0586850     1.4854080
  H        0.2921320    -0.4400260    -1.7869590
  H        3.6942270     0.8828880     1.5683180
  H        2.4736480    -1.5998700    -1.7190670
  H       -1.0482340    -0.0434160     1.8839740
  H       -2.6776530     1.1110490    -1.9207770
  H        4.8944640    -1.4825890    -0.9952280
  H        5.3329890    -0.5734720     0.4595320
  H        4.4581780    -2.1030590     0.5999660
  H       -2.9422888    -1.6202859     2.2384259
  H       -4.5604750    -0.4701320    -1.5992930
  H       -4.7020430    -1.8337400     0.4769600
units angstrom
no_reorient  #important for SAPT in psi4, default
symmetry c1  #important for SAPT in psi4, default
}

set PROPERTIES_ORIGIN ["COM"]
properties('MP2/aug-cc-pvtz', properties = ['dipole'])
--------------------------------------------------------------------------

    Molecular point group: c1
  Charge       = 0
  Multiplicity = 1
  Basis Set: AUG-CC-PVTZ
    Blend: AUG-CC-PVTZ
  Basis Set: (AUG-CC-PVTZ AUX)
    Blend: AUG-CC-PVTZ-JKFIT

    Orbital Energies [Eh]
    ---------------------

    Doubly Occupied:

       1A    -11.241217     2A    -11.238404     3A    -11.236977
       4A    -11.236840     5A    -11.235364     6A    -11.235149
       7A    -11.231655     8A    -11.231443     9A    -11.231220
      10A    -11.229926    11A    -11.229647    12A    -11.229180
      13A    -11.228699    14A    -11.222997    15A     -1.160699
      16A     -1.145277    17A     -1.073814    18A     -1.023967
      19A     -1.009790    20A     -1.008134    21A     -0.957335
      22A     -0.896294    23A     -0.827974    24A     -0.822143
      25A     -0.802577    26A     -0.774480    27A     -0.692898
      28A     -0.667910    29A     -0.648408    30A     -0.634203
      31A     -0.628088    32A     -0.617281    33A     -0.581935
      34A     -0.578791    35A     -0.575112    36A     -0.569396
      37A     -0.559925    38A     -0.548478    39A     -0.528056
      40A     -0.502922    41A     -0.491026    42A     -0.489904
      43A     -0.477642    44A     -0.473417    45A     -0.471298
      46A     -0.337173    47A     -0.333790    48A     -0.329348
      49A     -0.307371

  @DF-RHF Final Energy:  -538.49319169024784

   => Energetics <=

    Nuclear Repulsion Energy =            785.8623603093997190
    One-Electron Energy =               -2287.0999540612451710
    Two-Electron Energy =                 962.7444020615976115
    Total Energy =                       -538.4931916902478406
  Basis Set: (AUG-CC-PVTZ AUX)
    Blend: AUG-CC-PVTZ-RI
    Molecular point group: c1

    Geometry (in Angstrom), charge = 0, multiplicity = 1:

       Center              X                  Y                   Z               Mass
    ------------   -----------------  -----------------  -----------------  -----------------
         C           -0.552872384680     1.595774470769    -0.221190272268    12.000000000000
         C            0.781316615320     0.888625470769    -0.158302272268    12.000000000000
         C           -1.709776384680     0.639984470769    -0.037034272268    12.000000000000
         C            1.753362615320     1.243151470769     0.782211727732    12.000000000000
         C            1.070866615320    -0.149899529231    -1.054719272268    12.000000000000
         C            3.275402615320    -0.453824529231    -0.068287272268    12.000000000000
         C            2.981344615320     0.578591470769     0.828385727732    12.000000000000
         C            2.297289615320    -0.808327529231    -1.009028272268    12.000000000000
         C           -1.796581384680    -0.137525529231     1.126850727732    12.000000000000
         C           -2.704089384680     0.504769470769    -1.011890272268    12.000000000000
         C            4.583346615320    -1.198481529231     0.002410727732    12.000000000000
         C           -2.857027384680    -1.022967529231     1.312947727732    12.000000000000
         C           -3.766920384680    -0.384703529231    -0.830639272268    12.000000000000
         C           -3.846712384680    -1.149695529231     0.333286727732    12.000000000000
         H           -0.659191384680     2.110804470769    -1.185023272268     1.007825032230
         H           -0.585688384680     2.374936470769     0.551702727732     1.007825032230
         H            1.551104615320     2.050028470769     1.485538727732     1.007825032230
         H            0.321739615320    -0.448682529231    -1.786828272268     1.007825032230
         H            3.723834615320     0.874231470769     1.568448727732     1.007825032230
         H            2.503255615320    -1.608526529231    -1.718936272268     1.007825032230
         H           -1.018626384680    -0.052072529231     1.884104727732     1.007825032230
         H           -2.648045384680     1.102392470769    -1.920646272268     1.007825032230
         H            4.924071615320    -1.491245529231    -0.995097272268     1.007825032230
         H            5.362596615320    -0.582128529231     0.459662727732     1.007825032230
         H            4.487785615320    -2.111715529231     0.600096727732     1.007825032230
         H           -2.912681184680    -1.628942429231     2.238556627732     1.007825032230
         H           -4.530867384680    -0.478788529231    -1.599162272268     1.007825032230
         H           -4.672435384680    -1.842396529231     0.477090727732     1.007825032230

  Basis Set: AUG-CC-PVTZ
    Blend: AUG-CC-PVTZ
  Basis Set: (AUG-CC-PVTZ AUX)
    Blend: AUG-CC-PVTZ-JKFIT
	 Reference Energy          =    -538.4931916902478406 [Eh]
	 Singles Energy            =      -0.0000000000000000 [Eh]
	 Same-Spin Energy          =      -0.6082309673403740 [Eh]
	 Opposite-Spin Energy      =      -1.9349000294295717 [Eh]
	 Correlation Energy        =      -2.5431309967699458 [Eh]
	 Total Energy              =    -541.0363226870177868 [Eh]

	 ================> DF-SCS-MP2 Energies <==================
	-----------------------------------------------------------
	 SCS Same-Spin Scale       =       0.3333333333333333 [-]
	 SCS Opposite-Spin Scale   =       1.2000000000000000 [-]
	 SCS Same-Spin Energy      =      -0.2027436557801247 [Eh]
	 SCS Opposite-Spin Energy  =      -2.3218800353154858 [Eh]
	 SCS Correlation Energy    =      -2.5246236910956106 [Eh]
	 SCS Total Energy          =    -541.0178153813434392 [Eh]
	-----------------------------------------------------------

  Dipole Moment: [D]
     X:     0.3654      Y:    -0.1249      Z:     0.0028     Total:     0.3861

*** Psi4 exiting successfully. Buy a developer a beer!
