                               Psi4 1.4a3.dev225

  ==> Input File <==

--------------------------------------------------------------------------
#psi4
#
memory 32 gb

molecule  {
0 1
  C       -0.6242272     1.6311882    -0.3144756
  C        0.7517090     0.8972820    -0.1584330
  C       -1.7393840     0.6486410    -0.0371650
  C        1.7237550     1.2518080     0.7820810
  C        1.0412590    -0.1412430    -1.0548500
  C        3.2457950    -0.4451680    -0.0684180
  C        2.9517370     0.5872480     0.8282550
  C        2.2676820    -0.7996710    -1.0091590
  C       -1.8261890    -0.1288690     1.1267200
  C       -2.7336970     0.5134260    -1.0120210
  C        4.5537390    -1.1898250     0.0022800
  C       -2.8866350    -1.0143110     1.3128170
  C       -3.7965280    -0.3760470    -0.8307700
  C       -3.8763200    -1.1410390     0.3331560
  H       -0.6887990     2.1194610    -1.1851540
  H       -0.6152960     2.3835930     0.5515720
  H        1.5214970     2.0586850     1.4854080
  H        0.2921320    -0.4400260    -1.7869590
  H        3.6942270     0.8828880     1.5683180
  H        2.4736480    -1.5998700    -1.7190670
  H       -1.0482340    -0.0434160     1.8839740
  H       -2.6776530     1.1110490    -1.9207770
  H        4.8944640    -1.4825890    -0.9952280
  H        5.3329890    -0.5734720     0.4595320
  H        4.4581780    -2.1030590     0.5999660
  H       -2.9412840    -1.6093450     2.2217140
  H       -4.5604750    -0.4701320    -1.5992930
  H       -4.7020430    -1.8337400     0.4769600
units angstrom
no_reorient  #important for SAPT in psi4, default
symmetry c1  #important for SAPT in psi4, default
}

set PROPERTIES_ORIGIN ["COM"]
properties('MP2/aug-cc-pvtz', properties = ['dipole'])
--------------------------------------------------------------------------

    Molecular point group: c1
  Charge       = 0
  Multiplicity = 1
  Basis Set: AUG-CC-PVTZ
    Blend: AUG-CC-PVTZ
  Basis Set: (AUG-CC-PVTZ AUX)
    Blend: AUG-CC-PVTZ-JKFIT

    Orbital Energies [Eh]
    ---------------------

    Doubly Occupied:

       1A    -11.242196     2A    -11.239276     3A    -11.238419
       4A    -11.235476     5A    -11.235324     6A    -11.234461
       7A    -11.232111     8A    -11.230865     9A    -11.230672
      10A    -11.229764    11A    -11.229433    12A    -11.229164
      13A    -11.227926    14A    -11.222960    15A     -1.159106
      16A     -1.145087    17A     -1.070733    18A     -1.024684
      19A     -1.010031    20A     -1.007803    21A     -0.955428
      22A     -0.899439    23A     -0.827024    24A     -0.822818
      25A     -0.802317    26A     -0.776337    27A     -0.693070
      28A     -0.669150    29A     -0.646863    30A     -0.638929
      31A     -0.627701    32A     -0.616661    33A     -0.584677
      34A     -0.578745    35A     -0.578134    36A     -0.572700
      37A     -0.555216    38A     -0.548213    39A     -0.529240
      40A     -0.502429    41A     -0.492197    42A     -0.487479
      43A     -0.479477    44A     -0.472707    45A     -0.465268
      46A     -0.337064    47A     -0.333426    48A     -0.328904
      49A     -0.307242

  @DF-RHF Final Energy:  -538.48118497761789

   => Energetics <=

    Nuclear Repulsion Energy =            785.1473887182277167
    One-Electron Energy =               -2285.6484484700054054
    Two-Electron Energy =                 962.0198747741596890
    Total Energy =                       -538.4811849776178860
  Basis Set: (AUG-CC-PVTZ AUX)
    Blend: AUG-CC-PVTZ-RI
    Molecular point group: c1

    Geometry (in Angstrom), charge = 0, multiplicity = 1:

       Center              X                  Y                   Z               Mass
    ------------   -----------------  -----------------  -----------------  -----------------
         C           -0.591874238617     1.620707972275    -0.308114019090    12.000000000000
         C            0.784061961383     0.886801772275    -0.152071419090    12.000000000000
         C           -1.707031038617     0.638160772275    -0.030803419090    12.000000000000
         C            1.756107961383     1.241327772275     0.788442580910    12.000000000000
         C            1.073611961383    -0.151723227725    -1.048488419090    12.000000000000
         C            3.278147961383    -0.455648227725    -0.062056419090    12.000000000000
         C            2.984089961383     0.576767772275     0.834616580910    12.000000000000
         C            2.300034961383    -0.810151227725    -1.002797419090    12.000000000000
         C           -1.793836038617    -0.139349227725     1.133081580910    12.000000000000
         C           -2.701344038617     0.502945772275    -1.005659419090    12.000000000000
         C            4.586091961383    -1.200305227725     0.008641580910    12.000000000000
         C           -2.854282038617    -1.024791227725     1.319178580910    12.000000000000
         C           -3.764175038617    -0.386527227725    -0.824408419090    12.000000000000
         C           -3.843967038617    -1.151519227725     0.339517580910    12.000000000000
         H           -0.656446038617     2.108980772275    -1.178792419090     1.007825032230
         H           -0.582943038617     2.373112772275     0.557933580910     1.007825032230
         H            1.553849961383     2.048204772275     1.491769580910     1.007825032230
         H            0.324484961383    -0.450506227725    -1.780597419090     1.007825032230
         H            3.726579961383     0.872407772275     1.574679580910     1.007825032230
         H            2.506000961383    -1.610350227725    -1.712705419090     1.007825032230
         H           -1.015881038617    -0.053896227725     1.890335580910     1.007825032230
         H           -2.645300038617     1.100568772275    -1.914415419090     1.007825032230
         H            4.926816961383    -1.493069227725    -0.988866419090     1.007825032230
         H            5.365341961383    -0.583952227725     0.465893580910     1.007825032230
         H            4.490530961383    -2.113539227725     0.606327580910     1.007825032230
         H           -2.908931038617    -1.619825227725     2.228075580910     1.007825032230
         H           -4.528122038617    -0.480612227725    -1.592931419090     1.007825032230
         H           -4.669690038617    -1.844220227725     0.483321580910     1.007825032230

  Basis Set: AUG-CC-PVTZ
    Blend: AUG-CC-PVTZ
  Basis Set: (AUG-CC-PVTZ AUX)
    Blend: AUG-CC-PVTZ-JKFIT
	 Reference Energy          =    -538.4811849776178860 [Eh]
	 Singles Energy            =      -0.0000000000000000 [Eh]
	 Same-Spin Energy          =      -0.6080820946262556 [Eh]
	 Opposite-Spin Energy      =      -1.9350359509793544 [Eh]
	 Correlation Energy        =      -2.5431180456056102 [Eh]
	 Total Energy              =    -541.0243030232235242 [Eh]

	 ================> DF-SCS-MP2 Energies <==================
	-----------------------------------------------------------
	 SCS Same-Spin Scale       =       0.3333333333333333 [-]
	 SCS Opposite-Spin Scale   =       1.2000000000000000 [-]
	 SCS Same-Spin Energy      =      -0.2026940315420852 [Eh]
	 SCS Opposite-Spin Energy  =      -2.3220431411752251 [Eh]
	 SCS Correlation Energy    =      -2.5247371727173102 [Eh]
	 SCS Total Energy          =    -541.0059221503352092 [Eh]
	-----------------------------------------------------------

  Dipole Moment: [D]
     X:     0.3969      Y:    -0.1166      Z:    -0.0466     Total:     0.4163

*** Psi4 exiting successfully. Buy a developer a beer!
