                               Psi4 1.4a3.dev225

  ==> Input File <==

--------------------------------------------------------------------------
#psi4
#
memory 32 gb

molecule  {
0 1
  C       -0.5824800     1.6044310    -0.2213210
  C        0.7517090     0.8972820    -0.1584330
  C       -1.7393840     0.6486410    -0.0371650
  C        1.7237550     1.2518080     0.7820810
  C        1.0412590    -0.1412430    -1.0548500
  C        3.2457950    -0.4451680    -0.0684180
  C        2.9517370     0.5872480     0.8282550
  C        2.2676820    -0.7996710    -1.0091590
  C       -1.8261890    -0.1288690     1.1267200
  C       -2.7336970     0.5134260    -1.0120210
  C        4.5537390    -1.1898250     0.0022800
  C       -2.8866350    -1.0143110     1.3128170
  C       -3.7965280    -0.3760470    -0.8307700
  C       -3.9194575    -1.2074637     0.3901894
  H       -0.6887990     2.1194610    -1.1851540
  H       -0.6152960     2.3835930     0.5515720
  H        1.5214970     2.0586850     1.4854080
  H        0.2921320    -0.4400260    -1.7869590
  H        3.6942270     0.8828880     1.5683180
  H        2.4736480    -1.5998700    -1.7190670
  H       -1.0482340    -0.0434160     1.8839740
  H       -2.6776530     1.1110490    -1.9207770
  H        4.8944640    -1.4825890    -0.9952280
  H        5.3329890    -0.5734720     0.4595320
  H        4.4581780    -2.1030590     0.5999660
  H       -2.9412840    -1.6093450     2.2217140
  H       -4.5604750    -0.4701320    -1.5992930
  H       -4.7020430    -1.8337400     0.4769600
units angstrom
no_reorient  #important for SAPT in psi4, default
symmetry c1  #important for SAPT in psi4, default
}

set PROPERTIES_ORIGIN ["COM"]
properties('MP2/aug-cc-pvtz', properties = ['dipole'])
--------------------------------------------------------------------------

    Molecular point group: c1
  Charge       = 0
  Multiplicity = 1
  Basis Set: AUG-CC-PVTZ
    Blend: AUG-CC-PVTZ
  Basis Set: (AUG-CC-PVTZ AUX)
    Blend: AUG-CC-PVTZ-JKFIT

    Orbital Energies [Eh]
    ---------------------

    Doubly Occupied:

       1A    -11.244577     2A    -11.243222     3A    -11.238580
       4A    -11.237410     5A    -11.236146     6A    -11.235971
       7A    -11.233833     8A    -11.231981     9A    -11.231456
      10A    -11.230152    11A    -11.229362    12A    -11.229220
      13A    -11.228920    14A    -11.223101    15A     -1.159339
      16A     -1.141089    17A     -1.072018    18A     -1.023915
      19A     -1.008414    20A     -1.005596    21A     -0.958118
      22A     -0.898211    23A     -0.828089    24A     -0.818386
      25A     -0.807541    26A     -0.775686    27A     -0.698654
      28A     -0.669444    29A     -0.648946    30A     -0.638509
      31A     -0.628676    32A     -0.615455    33A     -0.582792
      34A     -0.578711    35A     -0.575124    36A     -0.572060
      37A     -0.560124    38A     -0.548566    39A     -0.530319
      40A     -0.508604    41A     -0.490228    42A     -0.482321
      43A     -0.476087    44A     -0.473064    45A     -0.469109
      46A     -0.336495    47A     -0.334903    48A     -0.326876
      49A     -0.304845

  @DF-RHF Final Energy:  -538.48036679404743

   => Energetics <=

    Nuclear Repulsion Energy =            784.3613156161803772
    One-Electron Energy =               -2284.0428766876725604
    Two-Electron Energy =                 961.2011942774446425
    Total Energy =                       -538.4803667940474270
  Basis Set: (AUG-CC-PVTZ AUX)
    Blend: AUG-CC-PVTZ-RI
    Molecular point group: c1

    Geometry (in Angstrom), charge = 0, multiplicity = 1:

       Center              X                  Y                   Z               Mass
    ------------   -----------------  -----------------  -----------------  -----------------
         C           -0.550035425629     1.600090937890    -0.224855967599    12.000000000000
         C            0.784153574371     0.892941937890    -0.161967967599    12.000000000000
         C           -1.706939425629     0.644300937890    -0.040699967599    12.000000000000
         C            1.756199574371     1.247467937890     0.778546032401    12.000000000000
         C            1.073703574371    -0.145583062110    -1.058384967599    12.000000000000
         C            3.278239574371    -0.449508062110    -0.071952967599    12.000000000000
         C            2.984181574371     0.582907937890     0.824720032401    12.000000000000
         C            2.300126574371    -0.804011062110    -1.012693967599    12.000000000000
         C           -1.793744425629    -0.133209062110     1.123185032401    12.000000000000
         C           -2.701252425629     0.509085937890    -1.015555967599    12.000000000000
         C            4.586183574371    -1.194165062110    -0.001254967599    12.000000000000
         C           -2.854190425629    -1.018651062110     1.309282032401    12.000000000000
         C           -3.764083425629    -0.380387062110    -0.834304967599    12.000000000000
         C           -3.887012925629    -1.211803762110     0.386654432401    12.000000000000
         H           -0.656354425629     2.115120937890    -1.188688967599     1.007825032230
         H           -0.582851425629     2.379252937890     0.548037032401     1.007825032230
         H            1.553941574371     2.054344937890     1.481873032401     1.007825032230
         H            0.324576574371    -0.444366062110    -1.790493967599     1.007825032230
         H            3.726671574371     0.878547937890     1.564783032401     1.007825032230
         H            2.506092574371    -1.604210062110    -1.722601967599     1.007825032230
         H           -1.015789425629    -0.047756062110     1.880439032401     1.007825032230
         H           -2.645208425629     1.106708937890    -1.924311967599     1.007825032230
         H            4.926908574371    -1.486929062110    -0.998762967599     1.007825032230
         H            5.365433574371    -0.577812062110     0.455997032401     1.007825032230
         H            4.490622574371    -2.107399062110     0.596431032401     1.007825032230
         H           -2.908839425629    -1.613685062110     2.218179032401     1.007825032230
         H           -4.528030425629    -0.474472062110    -1.602827967599     1.007825032230
         H           -4.669598425629    -1.838080062110     0.473425032401     1.007825032230

  Basis Set: AUG-CC-PVTZ
    Blend: AUG-CC-PVTZ
  Basis Set: (AUG-CC-PVTZ AUX)
    Blend: AUG-CC-PVTZ-JKFIT
	 Reference Energy          =    -538.4803667940474270 [Eh]
	 Singles Energy            =      -0.0000000000000000 [Eh]
	 Same-Spin Energy          =      -0.6082946111373237 [Eh]
	 Opposite-Spin Energy      =      -1.9358501222610249 [Eh]
	 Correlation Energy        =      -2.5441447333983485 [Eh]
	 Total Energy              =    -541.0245115274457248 [Eh]

	 ================> DF-SCS-MP2 Energies <==================
	-----------------------------------------------------------
	 SCS Same-Spin Scale       =       0.3333333333333333 [-]
	 SCS Opposite-Spin Scale   =       1.2000000000000000 [-]
	 SCS Same-Spin Energy      =      -0.2027648703791079 [Eh]
	 SCS Opposite-Spin Energy  =      -2.3230201467132297 [Eh]
	 SCS Correlation Energy    =      -2.5257850170923377 [Eh]
	 SCS Total Energy          =    -541.0061518111397163 [Eh]
	-----------------------------------------------------------

  Dipole Moment: [D]
     X:     0.3706      Y:    -0.1296      Z:    -0.0009     Total:     0.3926

*** Psi4 exiting successfully. Buy a developer a beer!
