                               Psi4 1.4a3.dev225

  ==> Input File <==

--------------------------------------------------------------------------
#psi4
#
memory 32 gb

molecule  {
0 1
  C       -0.5824800     1.6044310    -0.2213210
  C        0.7517090     0.8972820    -0.1584330
  C       -1.7393840     0.6486410    -0.0371650
  C        1.7237550     1.2518080     0.7820810
  C        1.0412590    -0.1412430    -1.0548500
  C        3.2457950    -0.4451680    -0.0684180
  C        2.9517370     0.5872480     0.8282550
  C        2.2676820    -0.7996710    -1.0091590
  C       -1.8261890    -0.1288690     1.1267200
  C       -2.7525669     0.5258227    -1.0552696
  C        4.5537390    -1.1898250     0.0022800
  C       -2.8866350    -1.0143110     1.3128170
  C       -3.7965280    -0.3760470    -0.8307700
  C       -3.8763200    -1.1410390     0.3331560
  H       -0.6887990     2.1194610    -1.1851540
  H       -0.6152960     2.3835930     0.5515720
  H        1.5214970     2.0586850     1.4854080
  H        0.2921320    -0.4400260    -1.7869590
  H        3.6942270     0.8828880     1.5683180
  H        2.4736480    -1.5998700    -1.7190670
  H       -1.0482340    -0.0434160     1.8839740
  H       -2.6776530     1.1110490    -1.9207770
  H        4.8944640    -1.4825890    -0.9952280
  H        5.3329890    -0.5734720     0.4595320
  H        4.4581780    -2.1030590     0.5999660
  H       -2.9412840    -1.6093450     2.2217140
  H       -4.5604750    -0.4701320    -1.5992930
  H       -4.7020430    -1.8337400     0.4769600
units angstrom
no_reorient  #important for SAPT in psi4, default
symmetry c1  #important for SAPT in psi4, default
}

set PROPERTIES_ORIGIN ["COM"]
properties('MP2/aug-cc-pvtz', properties = ['dipole'])
--------------------------------------------------------------------------

    Molecular point group: c1
  Charge       = 0
  Multiplicity = 1
  Basis Set: AUG-CC-PVTZ
    Blend: AUG-CC-PVTZ
  Basis Set: (AUG-CC-PVTZ AUX)
    Blend: AUG-CC-PVTZ-JKFIT

    Orbital Energies [Eh]
    ---------------------

    Doubly Occupied:

       1A    -11.246025     2A    -11.238287     3A    -11.236893
       4A    -11.235759     5A    -11.235595     6A    -11.235154
       7A    -11.232572     8A    -11.231229     9A    -11.231095
      10A    -11.229812    11A    -11.229093    12A    -11.229081
      13A    -11.228585    14A    -11.222930    15A     -1.158993
      16A     -1.142768    17A     -1.073455    18A     -1.022061
      19A     -1.011505    20A     -1.008046    21A     -0.955997
      22A     -0.896287    23A     -0.827838    24A     -0.824190
      25A     -0.802083    26A     -0.773318    27A     -0.695024
      28A     -0.668412    29A     -0.648459    30A     -0.638611
      31A     -0.628546    32A     -0.614661    33A     -0.585587
      34A     -0.578619    35A     -0.575667    36A     -0.569391
      37A     -0.559705    38A     -0.548664    39A     -0.527951
      40A     -0.503599    41A     -0.494457    42A     -0.487893
      43A     -0.477353    44A     -0.473217    45A     -0.468146
      46A     -0.338016    47A     -0.333052    48A     -0.327031
      49A     -0.306218

  @DF-RHF Final Energy:  -538.49021226558727

   => Energetics <=

    Nuclear Repulsion Energy =            785.0892069515858793
    One-Electron Energy =               -2285.5449769162755729
    Two-Electron Energy =                 961.9655576991025328
    Total Energy =                       -538.4902122655872745
  Basis Set: (AUG-CC-PVTZ AUX)
    Blend: AUG-CC-PVTZ-RI
    Molecular point group: c1

    Geometry (in Angstrom), charge = 0, multiplicity = 1:

       Center              X                  Y                   Z               Mass
    ------------   -----------------  -----------------  -----------------  -----------------
         C           -0.551634524629     1.594897048840    -0.218247945136    12.000000000000
         C            0.782554475371     0.887748048840    -0.155359945136    12.000000000000
         C           -1.708538524629     0.639107048840    -0.034091945136    12.000000000000
         C            1.754600475371     1.242274048840     0.785154054864    12.000000000000
         C            1.072104475371    -0.150776951160    -1.051776945136    12.000000000000
         C            3.276640475371    -0.454701951160    -0.065344945136    12.000000000000
         C            2.982582475371     0.577714048840     0.831328054864    12.000000000000
         C            2.298527475371    -0.809204951160    -1.006085945136    12.000000000000
         C           -1.795343524629    -0.138402951160     1.129793054864    12.000000000000
         C           -2.721721424629     0.516288748840    -1.052196545136    12.000000000000
         C            4.584584475371    -1.199358951160     0.005353054864    12.000000000000
         C           -2.855789524629    -1.023844951160     1.315890054864    12.000000000000
         C           -3.765682524629    -0.385580951160    -0.827696945136    12.000000000000
         C           -3.845474524629    -1.150572951160     0.336229054864    12.000000000000
         H           -0.657953524629     2.109927048840    -1.182080945136     1.007825032230
         H           -0.584450524629     2.374059048840     0.554645054864     1.007825032230
         H            1.552342475371     2.049151048840     1.488481054864     1.007825032230
         H            0.322977475371    -0.449559951160    -1.783885945136     1.007825032230
         H            3.725072475371     0.873354048840     1.571391054864     1.007825032230
         H            2.504493475371    -1.609403951160    -1.715993945136     1.007825032230
         H           -1.017388524629    -0.052949951160     1.887047054864     1.007825032230
         H           -2.646807524629     1.101515048840    -1.917703945136     1.007825032230
         H            4.925309475371    -1.492122951160    -0.992154945136     1.007825032230
         H            5.363834475371    -0.583005951160     0.462605054864     1.007825032230
         H            4.489023475371    -2.112592951160     0.603039054864     1.007825032230
         H           -2.910438524629    -1.618878951160     2.224787054864     1.007825032230
         H           -4.529629524629    -0.479665951160    -1.596219945136     1.007825032230
         H           -4.671197524629    -1.843273951160     0.480033054864     1.007825032230

  Basis Set: AUG-CC-PVTZ
    Blend: AUG-CC-PVTZ
  Basis Set: (AUG-CC-PVTZ AUX)
    Blend: AUG-CC-PVTZ-JKFIT
	 Reference Energy          =    -538.4902122655872745 [Eh]
	 Singles Energy            =      -0.0000000000000000 [Eh]
	 Same-Spin Energy          =      -0.6082324834461025 [Eh]
	 Opposite-Spin Energy      =      -1.9350559537878425 [Eh]
	 Correlation Energy        =      -2.5432884372339450 [Eh]
	 Total Energy              =    -541.0335007028212431 [Eh]

	 ================> DF-SCS-MP2 Energies <==================
	-----------------------------------------------------------
	 SCS Same-Spin Scale       =       0.3333333333333333 [-]
	 SCS Opposite-Spin Scale   =       1.2000000000000000 [-]
	 SCS Same-Spin Energy      =      -0.2027441611487008 [Eh]
	 SCS Opposite-Spin Energy  =      -2.3220671445454109 [Eh]
	 SCS Correlation Energy    =      -2.5248113056941115 [Eh]
	 SCS Total Energy          =    -541.0150235712814037 [Eh]
	-----------------------------------------------------------

  Dipole Moment: [D]
     X:     0.3624      Y:    -0.1159      Z:     0.0046     Total:     0.3805

*** Psi4 exiting successfully. Buy a developer a beer!
