                               Psi4 1.4a3.dev225

  ==> Input File <==

--------------------------------------------------------------------------
#psi4
#
memory 32 gb

molecule  {
0 1
  C       -0.6059850    -0.4050260    -0.0000030
  C        0.5644163     0.3772438    -0.0000030
  C       -1.8474080     0.1098660     0.0000030
  C        1.8474080    -0.1098670     0.0000030
  H       -0.4724680    -1.4868200    -0.0000080
  H        0.4724700     1.4868220    -0.0000080
  H       -2.7280470    -0.5233260     0.0000030
  H       -2.0152570     1.1834530     0.0000060
  H        2.7280490     0.5233230     0.0000030
  H        2.0152540    -1.1834540     0.0000060
units angstrom
no_reorient  #important for SAPT in psi4, default
symmetry c1  #important for SAPT in psi4, default
}

set PROPERTIES_ORIGIN ["COM"]
properties('MP2/aug-cc-pvtz', properties = ['dipole'])
--------------------------------------------------------------------------

    Molecular point group: c1
  Charge       = 0
  Multiplicity = 1
  Basis Set: AUG-CC-PVTZ
    Blend: AUG-CC-PVTZ
  Basis Set: (AUG-CC-PVTZ AUX)
    Blend: AUG-CC-PVTZ-JKFIT

    Orbital Energies [Eh]
    ---------------------

    Doubly Occupied:

       1A    -11.244680     2A    -11.239570     3A    -11.236269
       4A    -11.233755     5A     -1.097261     6A     -0.994219
       7A     -0.835746     8A     -0.752353     9A     -0.645893
      10A     -0.636194    11A     -0.556113    12A     -0.540858
      13A     -0.500043    14A     -0.448305    15A     -0.315830

  @DF-RHF Final Energy:  -154.97269409085072

   => Energetics <=

    Nuclear Repulsion Energy =            103.7889190692010573
    One-Electron Energy =                -412.9690501606774546
    Two-Electron Energy =                 154.2074370006256459
    Total Energy =                       -154.9726940908507231
  Basis Set: (AUG-CC-PVTZ AUX)
    Blend: AUG-CC-PVTZ-RI
    Molecular point group: c1

    Geometry (in Angstrom), charge = 0, multiplicity = 1:

       Center              X                  Y                   Z               Mass
    ------------   -----------------  -----------------  -----------------  -----------------
         C           -0.596755554298    -0.398857281609    -0.000003037294    12.000000000000
         C            0.573645745702     0.383412518391    -0.000003037294    12.000000000000
         C           -1.838178554298     0.116034718391     0.000002962706    12.000000000000
         C            1.856637445702    -0.103698281609     0.000002962706    12.000000000000
         H           -0.463238554298    -1.480651281609    -0.000008037294     1.007825032230
         H            0.481699445702     1.492990718391    -0.000008037294     1.007825032230
         H           -2.718817554298    -0.517157281609     0.000002962706     1.007825032230
         H           -2.006027554298     1.189621718391     0.000005962706     1.007825032230
         H            2.737278445702     0.529491718391     0.000002962706     1.007825032230
         H            2.024483445702    -1.177285281609     0.000005962706     1.007825032230

  Basis Set: AUG-CC-PVTZ
    Blend: AUG-CC-PVTZ
  Basis Set: (AUG-CC-PVTZ AUX)
    Blend: AUG-CC-PVTZ-JKFIT
	 Reference Energy          =    -154.9726940908507231 [Eh]
	 Singles Energy            =      -0.0000000000000000 [Eh]
	 Same-Spin Energy          =      -0.1602273380990077 [Eh]
	 Opposite-Spin Energy      =      -0.5749629226761618 [Eh]
	 Correlation Energy        =      -0.7351902607751695 [Eh]
	 Total Energy              =    -155.7078843516258928 [Eh]

	 ================> DF-SCS-MP2 Energies <==================
	-----------------------------------------------------------
	 SCS Same-Spin Scale       =       0.3333333333333333 [-]
	 SCS Opposite-Spin Scale   =       1.2000000000000000 [-]
	 SCS Same-Spin Energy      =      -0.0534091126996692 [Eh]
	 SCS Opposite-Spin Energy  =      -0.6899555072113941 [Eh]
	 SCS Correlation Energy    =      -0.7433646199110633 [Eh]
	 SCS Total Energy          =    -155.7160587107617857 [Eh]
	-----------------------------------------------------------

  Dipole Moment: [D]
     X:    -0.0350      Y:    -0.0093      Z:    -0.0000     Total:     0.0362

*** Psi4 exiting successfully. Buy a developer a beer!
