                               Psi4 1.3.2 release

  ==> Input File <==

--------------------------------------------------------------------------
#psi4
#
memory 32 gb

molecule  {
0 1
  C       -0.6059800    -0.4049620    -0.0000070
  C        0.6335098     0.3621767    -0.0000075
  C       -1.8474020     0.1098690     0.0000050
  C        1.8474010    -0.1098720     0.0000050
  H       -0.4725230    -1.4867800    -0.0000150
  H        0.4725330     1.4867860    -0.0000150
  H       -2.7279640    -0.5234220     0.0000090
  H       -2.0152630     1.1834510     0.0000160
  H        2.7279690     0.5234090     0.0000090
  H        2.0152500    -1.1834560     0.0000160
units angstrom
no_reorient  #important for SAPT in psi4, default
symmetry c1  #important for SAPT in psi4, default
}

set PROPERTIES_ORIGIN ["COM"]
properties('MP2/aug-cc-pvtz', properties = ['dipole'])
--------------------------------------------------------------------------

    Molecular point group: c1
  Charge       = 0
  Multiplicity = 1
  Basis Set: AUG-CC-PVTZ
    Blend: AUG-CC-PVTZ
  Basis Set: (AUG-CC-PVTZ AUX)
    Blend: AUG-CC-PVTZ-JKFIT

    Orbital Energies [Eh]
    ---------------------

    Doubly Occupied:

       1A    -11.242650     2A    -11.239912     3A    -11.233483
       4A    -11.226263     5A     -1.094680     6A     -1.006232
       7A     -0.828750     8A     -0.747096     9A     -0.648252
      10A     -0.634184    11A     -0.565557    12A     -0.541539
      13A     -0.483310    14A     -0.448393    15A     -0.329713

  @DF-RHF Final Energy:  -154.97570598833187

   => Energetics <=

    Nuclear Repulsion Energy =            103.8301891022667007
    One-Electron Energy =                -413.0717621632117584
    Two-Electron Energy =                 154.2658670726131618
    Total Energy =                       -154.9757059883318675
  Basis Set: (AUG-CC-PVTZ AUX)
    Blend: AUG-CC-PVTZ-RI
    Molecular point group: c1

    Geometry (in Angstrom), charge = 0, multiplicity = 1:

       Center              X                  Y                   Z               Mass
    ------------   -----------------  -----------------  -----------------  -----------------
         C           -0.612092234168    -0.395461525097    -0.000006373813    12.000000000000
         C            0.627397565832     0.371677174903    -0.000006873813    12.000000000000
         C           -1.853514234168     0.119369474903     0.000005626187    12.000000000000
         C            1.841288765832    -0.100371525097     0.000005626187    12.000000000000
         H           -0.478635234168    -1.477279525097    -0.000014373813     1.007825032230
         H            0.466420765832     1.496286474903    -0.000014373813     1.007825032230
         H           -2.734076234168    -0.513921525097     0.000009626187     1.007825032230
         H           -2.021375234168     1.192951474903     0.000016626187     1.007825032230
         H            2.721856765832     0.532909474903     0.000009626187     1.007825032230
         H            2.009137765832    -1.173955525097     0.000016626187     1.007825032230

  Basis Set: AUG-CC-PVTZ
    Blend: AUG-CC-PVTZ
  Basis Set: (AUG-CC-PVTZ AUX)
    Blend: AUG-CC-PVTZ-JKFIT
	 Reference Energy          =    -154.9757059883318675 [Eh]
	 Singles Energy            =      -0.0000000000000000 [Eh]
	 Same-Spin Energy          =      -0.1589964820091512 [Eh]
	 Opposite-Spin Energy      =      -0.5727110393259656 [Eh]
	 Correlation Energy        =      -0.7317075213351167 [Eh]
	 Total Energy              =    -155.7074135096669920 [Eh]

	 ================> DF-SCS-MP2 Energies <==================
	-----------------------------------------------------------
	 SCS Same-Spin Scale       =       0.3333333333333333 [-]
	 SCS Opposite-Spin Scale   =       1.2000000000000000 [-]
	 SCS Same-Spin Energy      =      -0.0529988273363837 [Eh]
	 SCS Opposite-Spin Energy  =      -0.6872532471911587 [Eh]
	 SCS Correlation Energy    =      -0.7402520745275424 [Eh]
	 SCS Total Energy          =    -155.7159580628594142 [Eh]
	-----------------------------------------------------------

  Dipole Moment: [D]
     X:     0.0035      Y:    -0.0184      Z:     0.0000     Total:     0.0188

*** Psi4 exiting successfully. Buy a developer a beer!
