                               Psi4 1.3.2 release

  ==> Input File <==

--------------------------------------------------------------------------
#psi4
#
memory 32 gb

molecule  {
0 1
  C       -0.6059800    -0.4049620    -0.0000070
  C        0.6059820     0.4049670    -0.0000070
  C       -1.8474020     0.1098690     0.0000050
  C        1.8646124    -0.0662335     0.0000048
  H       -0.4725230    -1.4867800    -0.0000150
  H        0.4725330     1.4867860    -0.0000150
  H       -2.7279640    -0.5234220     0.0000090
  H       -2.0152630     1.1834510     0.0000160
  H        2.7279690     0.5234090     0.0000090
  H        2.0152500    -1.1834560     0.0000160
units angstrom
no_reorient  #important for SAPT in psi4, default
symmetry c1  #important for SAPT in psi4, default
}

set PROPERTIES_ORIGIN ["COM"]
properties('MP2/aug-cc-pvtz', properties = ['dipole'])
--------------------------------------------------------------------------

    Molecular point group: c1
  Charge       = 0
  Multiplicity = 1
  Basis Set: AUG-CC-PVTZ
    Blend: AUG-CC-PVTZ
  Basis Set: (AUG-CC-PVTZ AUX)
    Blend: AUG-CC-PVTZ-JKFIT

    Orbital Energies [Eh]
    ---------------------

    Doubly Occupied:

       1A    -11.243703     2A    -11.242268     3A    -11.233419
       4A    -11.232255     5A     -1.090906     6A     -1.000113
       7A     -0.830004     8A     -0.753059     9A     -0.650911
      10A     -0.631495    11A     -0.563749    12A     -0.538522
      13A     -0.494361    14A     -0.443922    15A     -0.323853

  @DF-RHF Final Energy:  -154.97544866717544

   => Energetics <=

    Nuclear Repulsion Energy =            103.4268139185875981
    One-Electron Energy =                -412.2594443740352403
    Two-Electron Energy =                 153.8571817882722144
    Total Energy =                       -154.9754486671754421
  Basis Set: (AUG-CC-PVTZ AUX)
    Blend: AUG-CC-PVTZ-RI
    Molecular point group: c1

    Geometry (in Angstrom), charge = 0, multiplicity = 1:

       Center              X                  Y                   Z               Mass
    ------------   -----------------  -----------------  -----------------  -----------------
         C           -0.609801692342    -0.414651240637    -0.000006440422    12.000000000000
         C            0.602160307658     0.395277759363    -0.000006440422    12.000000000000
         C           -1.851223692342     0.100179759363     0.000005559578    12.000000000000
         C            1.860790707658    -0.075922740637     0.000005359578    12.000000000000
         H           -0.476344692342    -1.496469240637    -0.000014440422     1.007825032230
         H            0.468711307658     1.477096759363    -0.000014440422     1.007825032230
         H           -2.731785692342    -0.533111240637     0.000009559578     1.007825032230
         H           -2.019084692342     1.173761759363     0.000016559578     1.007825032230
         H            2.724147307658     0.513719759363     0.000009559578     1.007825032230
         H            2.011428307658    -1.193145240637     0.000016559578     1.007825032230

  Basis Set: AUG-CC-PVTZ
    Blend: AUG-CC-PVTZ
  Basis Set: (AUG-CC-PVTZ AUX)
    Blend: AUG-CC-PVTZ-JKFIT
	 Reference Energy          =    -154.9754486671754421 [Eh]
	 Singles Energy            =      -0.0000000000000000 [Eh]
	 Same-Spin Energy          =      -0.1592409997750778 [Eh]
	 Opposite-Spin Energy      =      -0.5735791794242984 [Eh]
	 Correlation Energy        =      -0.7328201791993761 [Eh]
	 Total Energy              =    -155.7082688463748070 [Eh]

	 ================> DF-SCS-MP2 Energies <==================
	-----------------------------------------------------------
	 SCS Same-Spin Scale       =       0.3333333333333333 [-]
	 SCS Opposite-Spin Scale   =       1.2000000000000000 [-]
	 SCS Same-Spin Energy      =      -0.0530803332583593 [Eh]
	 SCS Opposite-Spin Energy  =      -0.6882950153091580 [Eh]
	 SCS Correlation Energy    =      -0.7413753485675173 [Eh]
	 SCS Total Energy          =    -155.7168240157429580 [Eh]
	-----------------------------------------------------------

  Dipole Moment: [D]
     X:    -0.0218      Y:     0.0247      Z:     0.0000     Total:     0.0329

*** Psi4 exiting successfully. Buy a developer a beer!
