                               Psi4 1.3.2 release

  ==> Input File <==

--------------------------------------------------------------------------
#psi4
#
memory 32 gb

molecule  {
0 1
  C       -0.6059800    -0.4049620    -0.0000070
  C        0.6059820     0.4049670    -0.0000070
  C       -1.8474020     0.1098690     0.0000050
  C        1.8382267    -0.1314593     0.0000051
  H       -0.4725230    -1.4867800    -0.0000150
  H        0.4725330     1.4867860    -0.0000150
  H       -2.7279640    -0.5234220     0.0000090
  H       -2.0152630     1.1834510     0.0000160
  H        2.7279690     0.5234090     0.0000090
  H        2.0152500    -1.1834560     0.0000160
units angstrom
no_reorient  #important for SAPT in psi4, default
symmetry c1  #important for SAPT in psi4, default
}

set PROPERTIES_ORIGIN ["COM"]
properties('MP2/aug-cc-pvtz', properties = ['dipole'])
--------------------------------------------------------------------------

    Molecular point group: c1
  Charge       = 0
  Multiplicity = 1
  Basis Set: AUG-CC-PVTZ
    Blend: AUG-CC-PVTZ
  Basis Set: (AUG-CC-PVTZ AUX)
    Blend: AUG-CC-PVTZ-JKFIT

    Orbital Energies [Eh]
    ---------------------

    Doubly Occupied:

       1A    -11.242701     2A    -11.241585     3A    -11.232217
       4A    -11.231494     5A     -1.091555     6A     -0.998682
       7A     -0.827103     8A     -0.756196     9A     -0.642616
      10A     -0.635980    11A     -0.557264    12A     -0.545796
      13A     -0.495570    14A     -0.443929    15A     -0.322823

  @DF-RHF Final Energy:  -154.97742913377331

   => Energetics <=

    Nuclear Repulsion Energy =            103.5686631579116863
    One-Electron Energy =                -412.5611610515344978
    Two-Electron Energy =                 154.0150687598495267
    Total Energy =                       -154.9774291337733132
  Basis Set: (AUG-CC-PVTZ AUX)
    Blend: AUG-CC-PVTZ-RI
    Molecular point group: c1

    Geometry (in Angstrom), charge = 0, multiplicity = 1:

       Center              X                  Y                   Z               Mass
    ------------   -----------------  -----------------  -----------------  -----------------
         C           -0.603943297023    -0.400169209788    -0.000006507030    12.000000000000
         C            0.608018702977     0.409759790212    -0.000006507030    12.000000000000
         C           -1.845365297023     0.114661790212     0.000005492970    12.000000000000
         C            1.840263402977    -0.126666509788     0.000005592970    12.000000000000
         H           -0.470486297023    -1.481987209788    -0.000014507030     1.007825032230
         H            0.474569702977     1.491578790212    -0.000014507030     1.007825032230
         H           -2.725927297023    -0.518629209788     0.000009492970     1.007825032230
         H           -2.013226297023     1.188243790212     0.000016492970     1.007825032230
         H            2.730005702977     0.528201790212     0.000009492970     1.007825032230
         H            2.017286702977    -1.178663209788     0.000016492970     1.007825032230

  Basis Set: AUG-CC-PVTZ
    Blend: AUG-CC-PVTZ
  Basis Set: (AUG-CC-PVTZ AUX)
    Blend: AUG-CC-PVTZ-JKFIT
	 Reference Energy          =    -154.9774291337733132 [Eh]
	 Singles Energy            =      -0.0000000000000000 [Eh]
	 Same-Spin Energy          =      -0.1592229118007524 [Eh]
	 Opposite-Spin Energy      =      -0.5734452264706353 [Eh]
	 Correlation Energy        =      -0.7326681382713878 [Eh]
	 Total Energy              =    -155.7100972720446919 [Eh]

	 ================> DF-SCS-MP2 Energies <==================
	-----------------------------------------------------------
	 SCS Same-Spin Scale       =       0.3333333333333333 [-]
	 SCS Opposite-Spin Scale   =       1.2000000000000000 [-]
	 SCS Same-Spin Energy      =      -0.0530743039335841 [Eh]
	 SCS Opposite-Spin Energy  =      -0.6881342717647624 [Eh]
	 SCS Correlation Energy    =      -0.7412085756983465 [Eh]
	 SCS Total Energy          =    -155.7186377094716647 [Eh]
	-----------------------------------------------------------

  Dipole Moment: [D]
     X:     0.0057      Y:    -0.0103      Z:     0.0000     Total:     0.0118

*** Psi4 exiting successfully. Buy a developer a beer!
