                               Psi4 1.4a3.dev225

  ==> Input File <==

--------------------------------------------------------------------------
#psi4
#
memory 32 gb

molecule  {
0 1
  C       -0.6059850    -0.4050260    -0.0000030
  C        0.6059860     0.4050280    -0.0000030
  C       -1.8474080     0.1098660     0.0000030
  C        1.8474080    -0.1098670     0.0000030
  H       -0.4749178    -1.4669706    -0.0000079
  H        0.4724700     1.4868220    -0.0000080
  H       -2.7280470    -0.5233260     0.0000030
  H       -2.0152570     1.1834530     0.0000060
  H        2.7280490     0.5233230     0.0000030
  H        2.0152540    -1.1834540     0.0000060
units angstrom
no_reorient  #important for SAPT in psi4, default
symmetry c1  #important for SAPT in psi4, default
}

set PROPERTIES_ORIGIN ["COM"]
properties('MP2/aug-cc-pvtz', properties = ['dipole'])
--------------------------------------------------------------------------

    Molecular point group: c1
  Charge       = 0
  Multiplicity = 1
  Basis Set: AUG-CC-PVTZ
    Blend: AUG-CC-PVTZ
  Basis Set: (AUG-CC-PVTZ AUX)
    Blend: AUG-CC-PVTZ-JKFIT

    Orbital Energies [Eh]
    ---------------------

    Doubly Occupied:

       1A    -11.242226     2A    -11.239917     3A    -11.232015
       4A    -11.231957     5A     -1.091722     6A     -0.999200
       7A     -0.828079     8A     -0.757436     9A     -0.644811
      10A     -0.635507    11A     -0.558412    12A     -0.545667
      13A     -0.496824    14A     -0.443720    15A     -0.323016

  @DF-RHF Final Energy:  -154.97821361300498

   => Energetics <=

    Nuclear Repulsion Energy =            103.5997630919931964
    One-Electron Energy =                -412.6149355122163911
    Two-Electron Energy =                 154.0369588072181841
    Total Energy =                       -154.9782136130049821
  Basis Set: (AUG-CC-PVTZ AUX)
    Blend: AUG-CC-PVTZ-RI
    Molecular point group: c1

    Geometry (in Angstrom), charge = 0, multiplicity = 1:

       Center              X                  Y                   Z               Mass
    ------------   -----------------  -----------------  -----------------  -----------------
         C           -0.605939558732    -0.405396320739    -0.000003039159    12.000000000000
         C            0.606031441268     0.404657679261    -0.000003039159    12.000000000000
         C           -1.847362558732     0.109495679261     0.000002960841    12.000000000000
         C            1.847453441268    -0.110237320739     0.000002960841    12.000000000000
         H           -0.474872358732    -1.467340920739    -0.000007939159     1.007825032230
         H            0.472515441268     1.486451679261    -0.000008039159     1.007825032230
         H           -2.728001558732    -0.523696320739     0.000002960841     1.007825032230
         H           -2.015211558732     1.183082679261     0.000005960841     1.007825032230
         H            2.728094441268     0.522952679261     0.000002960841     1.007825032230
         H            2.015299441268    -1.183824320739     0.000005960841     1.007825032230

  Basis Set: AUG-CC-PVTZ
    Blend: AUG-CC-PVTZ
  Basis Set: (AUG-CC-PVTZ AUX)
    Blend: AUG-CC-PVTZ-JKFIT
	 Reference Energy          =    -154.9782136130049821 [Eh]
	 Singles Energy            =      -0.0000000000000000 [Eh]
	 Same-Spin Energy          =      -0.1591735415925458 [Eh]
	 Opposite-Spin Energy      =      -0.5733085388142189 [Eh]
	 Correlation Energy        =      -0.7324820804067648 [Eh]
	 Total Energy              =    -155.7106956934117363 [Eh]

	 ================> DF-SCS-MP2 Energies <==================
	-----------------------------------------------------------
	 SCS Same-Spin Scale       =       0.3333333333333333 [-]
	 SCS Opposite-Spin Scale   =       1.2000000000000000 [-]
	 SCS Same-Spin Energy      =      -0.0530578471975153 [Eh]
	 SCS Opposite-Spin Energy  =      -0.6879702465770627 [Eh]
	 SCS Correlation Energy    =      -0.7410280937745780 [Eh]
	 SCS Total Energy          =    -155.7192417067795702 [Eh]
	-----------------------------------------------------------

  Dipole Moment: [D]
     X:    -0.0019      Y:    -0.0078      Z:    -0.0000     Total:     0.0081

*** Psi4 exiting successfully. Buy a developer a beer!
