                               Psi4 1.3.2 release

  ==> Input File <==

--------------------------------------------------------------------------
#psi4
#
memory 32 gb

molecule  {
0 1
  C       -0.6059800    -0.4049620    -0.0000070
  C        0.6059820     0.4049670    -0.0000070
  C       -1.8474020     0.1098690     0.0000050
  C        1.8561971    -0.0881278     0.0000049
  H       -0.4725230    -1.4867800    -0.0000150
  H        0.4725330     1.4867860    -0.0000150
  H       -2.7279640    -0.5234220     0.0000090
  H       -2.0152630     1.1834510     0.0000160
  H        2.7279690     0.5234090     0.0000090
  H        2.0152500    -1.1834560     0.0000160
units angstrom
no_reorient  #important for SAPT in psi4, default
symmetry c1  #important for SAPT in psi4, default
}

set PROPERTIES_ORIGIN ["COM"]
properties('MP2/aug-cc-pvtz', properties = ['dipole'])
--------------------------------------------------------------------------

    Molecular point group: c1
  Charge       = 0
  Multiplicity = 1
  Basis Set: AUG-CC-PVTZ
    Blend: AUG-CC-PVTZ
  Basis Set: (AUG-CC-PVTZ AUX)
    Blend: AUG-CC-PVTZ-JKFIT

    Orbital Energies [Eh]
    ---------------------

    Doubly Occupied:

       1A    -11.243135     2A    -11.242087     3A    -11.232739
       4A    -11.232109     5A     -1.091040     6A     -0.999554
       7A     -0.828738     8A     -0.753830     9A     -0.647492
      10A     -0.633212    11A     -0.560480    12A     -0.542056
      13A     -0.495506    14A     -0.443851    15A     -0.323444

  @DF-RHF Final Energy:  -154.97743518550695

   => Energetics <=

    Nuclear Repulsion Energy =            103.4702719207930102
    One-Electron Energy =                -412.3568697419021873
    Two-Electron Energy =                 153.9091626356022005
    Total Energy =                       -154.9774351855069483
  Basis Set: (AUG-CC-PVTZ AUX)
    Blend: AUG-CC-PVTZ-RI
    Molecular point group: c1

    Geometry (in Angstrom), charge = 0, multiplicity = 1:

       Center              X                  Y                   Z               Mass
    ------------   -----------------  -----------------  -----------------  -----------------
         C           -0.607933250188    -0.409790067174    -0.000006462625    12.000000000000
         C            0.604028749812     0.400138932826    -0.000006462625    12.000000000000
         C           -1.849355250188     0.105040932826     0.000005537375    12.000000000000
         C            1.854243849812    -0.092955867174     0.000005437375    12.000000000000
         H           -0.474476250188    -1.491608067174    -0.000014462625     1.007825032230
         H            0.470579749812     1.481957932826    -0.000014462625     1.007825032230
         H           -2.729917250188    -0.528250067174     0.000009537375     1.007825032230
         H           -2.017216250188     1.178622932826     0.000016537375     1.007825032230
         H            2.726015749812     0.518580932826     0.000009537375     1.007825032230
         H            2.013296749812    -1.188284067174     0.000016537375     1.007825032230

  Basis Set: AUG-CC-PVTZ
    Blend: AUG-CC-PVTZ
  Basis Set: (AUG-CC-PVTZ AUX)
    Blend: AUG-CC-PVTZ-JKFIT
	 Reference Energy          =    -154.9774351855069483 [Eh]
	 Singles Energy            =      -0.0000000000000000 [Eh]
	 Same-Spin Energy          =      -0.1592189630151126 [Eh]
	 Opposite-Spin Energy      =      -0.5734711224597859 [Eh]
	 Correlation Energy        =      -0.7326900854748986 [Eh]
	 Total Energy              =    -155.7101252709818482 [Eh]

	 ================> DF-SCS-MP2 Energies <==================
	-----------------------------------------------------------
	 SCS Same-Spin Scale       =       0.3333333333333333 [-]
	 SCS Opposite-Spin Scale   =       1.2000000000000000 [-]
	 SCS Same-Spin Energy      =      -0.0530729876717042 [Eh]
	 SCS Opposite-Spin Energy  =      -0.6881653469517431 [Eh]
	 SCS Correlation Energy    =      -0.7412383346234473 [Eh]
	 SCS Total Energy          =    -155.7186735201304089 [Eh]
	-----------------------------------------------------------

  Dipole Moment: [D]
     X:    -0.0092      Y:     0.0116      Z:     0.0000     Total:     0.0148

*** Psi4 exiting successfully. Buy a developer a beer!
