                               Psi4 1.3.2 release

  ==> Input File <==

--------------------------------------------------------------------------
#psi4
#
memory 32 gb

molecule  {
0 1
  C       -0.6059800    -0.4049620    -0.0000070
  C        0.6059820     0.4049670    -0.0000070
  C       -1.9397737     0.1481765     0.0000059
  C        1.8474010    -0.1098720     0.0000050
  H       -0.4725230    -1.4867800    -0.0000150
  H        0.4725330     1.4867860    -0.0000150
  H       -2.7279640    -0.5234220     0.0000090
  H       -2.0152630     1.1834510     0.0000160
  H        2.7279690     0.5234090     0.0000090
  H        2.0152500    -1.1834560     0.0000160
units angstrom
no_reorient  #important for SAPT in psi4, default
symmetry c1  #important for SAPT in psi4, default
}

set PROPERTIES_ORIGIN ["COM"]
properties('MP2/aug-cc-pvtz', properties = ['dipole'])
--------------------------------------------------------------------------

    Molecular point group: c1
  Charge       = 0
  Multiplicity = 1
  Basis Set: AUG-CC-PVTZ
    Blend: AUG-CC-PVTZ
  Basis Set: (AUG-CC-PVTZ AUX)
    Blend: AUG-CC-PVTZ-JKFIT

    Orbital Energies [Eh]
    ---------------------

    Doubly Occupied:

       1A    -11.257582     2A    -11.244368     3A    -11.237252
       4A    -11.234598     5A     -1.083694     6A     -0.988651
       7A     -0.838591     8A     -0.757245     9A     -0.646532
      10A     -0.635222    11A     -0.566709    12A     -0.540505
      13A     -0.505552    14A     -0.435477    15A     -0.310931

  @DF-RHF Final Energy:  -154.96089775620413

   => Energetics <=

    Nuclear Repulsion Energy =            102.2999322859627824
    One-Electron Energy =                -409.9558423254457011
    Two-Electron Energy =                 152.6950122832787997
    Total Energy =                       -154.9608977562041332
  Basis Set: (AUG-CC-PVTZ AUX)
    Blend: AUG-CC-PVTZ-RI
    Molecular point group: c1

    Geometry (in Angstrom), charge = 0, multiplicity = 1:

       Center              X                  Y                   Z               Mass
    ------------   -----------------  -----------------  -----------------  -----------------
         C           -0.585471046574    -0.413467603081    -0.000006684654    12.000000000000
         C            0.626490953426     0.396461396919    -0.000006684654    12.000000000000
         C           -1.919264746574     0.139670896919     0.000006215346    12.000000000000
         C            1.867909953426    -0.118377603081     0.000005315346    12.000000000000
         H           -0.452014046574    -1.495285603081    -0.000014684654     1.007825032230
         H            0.493041953426     1.478280396919    -0.000014684654     1.007825032230
         H           -2.707455046574    -0.531927603081     0.000009315346     1.007825032230
         H           -1.994754046574     1.174945396919     0.000016315346     1.007825032230
         H            2.748477953426     0.514903396919     0.000009315346     1.007825032230
         H            2.035758953426    -1.191961603081     0.000016315346     1.007825032230

  Basis Set: AUG-CC-PVTZ
    Blend: AUG-CC-PVTZ
  Basis Set: (AUG-CC-PVTZ AUX)
    Blend: AUG-CC-PVTZ-JKFIT
	 Reference Energy          =    -154.9608977562041332 [Eh]
	 Singles Energy            =      -0.0000000000000000 [Eh]
	 Same-Spin Energy          =      -0.1603011635506051 [Eh]
	 Opposite-Spin Energy      =      -0.5764306166147197 [Eh]
	 Correlation Energy        =      -0.7367317801653248 [Eh]
	 Total Energy              =    -155.6976295363694476 [Eh]

	 ================> DF-SCS-MP2 Energies <==================
	-----------------------------------------------------------
	 SCS Same-Spin Scale       =       0.3333333333333333 [-]
	 SCS Opposite-Spin Scale   =       1.2000000000000000 [-]
	 SCS Same-Spin Energy      =      -0.0534337211835350 [Eh]
	 SCS Opposite-Spin Energy  =      -0.6917167399376637 [Eh]
	 SCS Correlation Energy    =      -0.7451504611211988 [Eh]
	 SCS Total Energy          =    -155.7060482173253320 [Eh]
	-----------------------------------------------------------

  Dipole Moment: [D]
     X:     0.0806      Y:     0.0009      Z:     0.0000     Total:     0.0806

*** Psi4 exiting successfully. Buy a developer a beer!
