                               Psi4 1.3.2 release

  ==> Input File <==

--------------------------------------------------------------------------
#psi4
#
memory 32 gb

molecule  {
0 1
  C       -0.6059800    -0.4049620    -0.0000070
  C        0.6059820     0.4049670    -0.0000070
  C       -1.7550303     0.0715615     0.0000041
  C        1.8474010    -0.1098720     0.0000050
  H       -0.4725230    -1.4867800    -0.0000150
  H        0.4725330     1.4867860    -0.0000150
  H       -2.7279640    -0.5234220     0.0000090
  H       -2.0152630     1.1834510     0.0000160
  H        2.7279690     0.5234090     0.0000090
  H        2.0152500    -1.1834560     0.0000160
units angstrom
no_reorient  #important for SAPT in psi4, default
symmetry c1  #important for SAPT in psi4, default
}

set PROPERTIES_ORIGIN ["COM"]
properties('MP2/aug-cc-pvtz', properties = ['dipole'])
--------------------------------------------------------------------------

    Molecular point group: c1
  Charge       = 0
  Multiplicity = 1
  Basis Set: AUG-CC-PVTZ
    Blend: AUG-CC-PVTZ
  Basis Set: (AUG-CC-PVTZ AUX)
    Blend: AUG-CC-PVTZ-JKFIT

    Orbital Energies [Eh]
    ---------------------

    Doubly Occupied:

       1A    -11.240819     2A    -11.230364     3A    -11.227806
       4A    -11.224540     5A     -1.105683     6A     -1.010046
       7A     -0.817828     8A     -0.750989     9A     -0.649910
      10A     -0.633323    11A     -0.567261    12A     -0.531222
      13A     -0.475745    14A     -0.457554    15A     -0.335114

  @DF-RHF Final Energy:  -154.96428288563376

   => Energetics <=

    Nuclear Repulsion Energy =            104.9125901045902935
    One-Electron Energy =                -415.2373392061831510
    Two-Electron Energy =                 155.3604662159590646
    Total Energy =                       -154.9642828856337644
  Basis Set: (AUG-CC-PVTZ AUX)
    Blend: AUG-CC-PVTZ-RI
    Molecular point group: c1

    Geometry (in Angstrom), charge = 0, multiplicity = 1:

       Center              X                  Y                   Z               Mass
    ------------   -----------------  -----------------  -----------------  -----------------
         C           -0.626489472074    -0.396456837502    -0.000006285001    12.000000000000
         C            0.585472527926     0.413472162498    -0.000006285001    12.000000000000
         C           -1.775539772074     0.080066662498     0.000004814999    12.000000000000
         C            1.826891527926    -0.101366837502     0.000005714999    12.000000000000
         H           -0.493032472074    -1.478274837502    -0.000014285001     1.007825032230
         H            0.452023527926     1.495291162498    -0.000014285001     1.007825032230
         H           -2.748473472074    -0.514916837502     0.000009714999     1.007825032230
         H           -2.035772472074     1.191956162498     0.000016714999     1.007825032230
         H            2.707459527926     0.531914162498     0.000009714999     1.007825032230
         H            1.994740527926    -1.174950837502     0.000016714999     1.007825032230

  Basis Set: AUG-CC-PVTZ
    Blend: AUG-CC-PVTZ
  Basis Set: (AUG-CC-PVTZ AUX)
    Blend: AUG-CC-PVTZ-JKFIT
	 Reference Energy          =    -154.9642828856337644 [Eh]
	 Singles Energy            =      -0.0000000000000000 [Eh]
	 Same-Spin Energy          =      -0.1588009889415716 [Eh]
	 Opposite-Spin Energy      =      -0.5718086498924815 [Eh]
	 Correlation Energy        =      -0.7306096388340531 [Eh]
	 Total Energy              =    -155.6948925244678037 [Eh]

	 ================> DF-SCS-MP2 Energies <==================
	-----------------------------------------------------------
	 SCS Same-Spin Scale       =       0.3333333333333333 [-]
	 SCS Opposite-Spin Scale   =       1.2000000000000000 [-]
	 SCS Same-Spin Energy      =      -0.0529336629805239 [Eh]
	 SCS Opposite-Spin Energy  =      -0.6861703798709777 [Eh]
	 SCS Correlation Energy    =      -0.7391040428515016 [Eh]
	 SCS Total Energy          =    -155.7033869284852585 [Eh]
	-----------------------------------------------------------

  Dipole Moment: [D]
     X:    -0.0580      Y:    -0.0123      Z:     0.0000     Total:     0.0593

*** Psi4 exiting successfully. Buy a developer a beer!
