                               Psi4 1.3.2 release

  ==> Input File <==

--------------------------------------------------------------------------
#psi4
#
memory 32 gb

molecule  {
0 1
  C       -0.6059800    -0.4049620    -0.0000070
  C        0.6840034     0.2738456    -0.0000083
  C       -1.8474020     0.1098690     0.0000050
  C        1.8474010    -0.1098720     0.0000050
  H       -0.4725230    -1.4867800    -0.0000150
  H        0.4725330     1.4867860    -0.0000150
  H       -2.7279640    -0.5234220     0.0000090
  H       -2.0152630     1.1834510     0.0000160
  H        2.7279690     0.5234090     0.0000090
  H        2.0152500    -1.1834560     0.0000160
units angstrom
no_reorient  #important for SAPT in psi4, default
symmetry c1  #important for SAPT in psi4, default
}

set PROPERTIES_ORIGIN ["COM"]
properties('MP2/aug-cc-pvtz', properties = ['dipole'])
--------------------------------------------------------------------------

    Molecular point group: c1
  Charge       = 0
  Multiplicity = 1
  Basis Set: AUG-CC-PVTZ
    Blend: AUG-CC-PVTZ
  Basis Set: (AUG-CC-PVTZ AUX)
    Blend: AUG-CC-PVTZ-JKFIT

    Orbital Energies [Eh]
    ---------------------

    Doubly Occupied:

       1A    -11.244574     2A    -11.236928     3A    -11.236782
       4A    -11.215549     5A     -1.105430     6A     -1.019566
       7A     -0.832790     8A     -0.733874     9A     -0.655704
      10A     -0.635610    11A     -0.580521    12A     -0.536237
      13A     -0.460417    14A     -0.450946    15A     -0.342294

  @DF-RHF Final Energy:  -154.94794986950333

   => Energetics <=

    Nuclear Repulsion Energy =            104.5125252436724281
    One-Electron Energy =                -414.3465071096828183
    Two-Electron Energy =                 154.8860319965070573
    Total Energy =                       -154.9479498695033328
  Basis Set: (AUG-CC-PVTZ AUX)
    Blend: AUG-CC-PVTZ-RI
    Molecular point group: c1

    Geometry (in Angstrom), charge = 0, multiplicity = 1:

       Center              X                  Y                   Z               Mass
    ------------   -----------------  -----------------  -----------------  -----------------
         C           -0.623303286741    -0.375849443449    -0.000006196190    12.000000000000
         C            0.666680113259     0.302958156551    -0.000007496190    12.000000000000
         C           -1.864725286741     0.138981556551     0.000005803810    12.000000000000
         C            1.830077713259    -0.080759443449     0.000005803810    12.000000000000
         H           -0.489846286741    -1.457667443449    -0.000014196190     1.007825032230
         H            0.455209713259     1.515898556551    -0.000014196190     1.007825032230
         H           -2.745287286741    -0.494309443449     0.000009803810     1.007825032230
         H           -2.032586286741     1.212563556551     0.000016803810     1.007825032230
         H            2.710645713259     0.552521556551     0.000009803810     1.007825032230
         H            1.997926713259    -1.154343443449     0.000016803810     1.007825032230

  Basis Set: AUG-CC-PVTZ
    Blend: AUG-CC-PVTZ
  Basis Set: (AUG-CC-PVTZ AUX)
    Blend: AUG-CC-PVTZ-JKFIT
	 Reference Energy          =    -154.9479498695033328 [Eh]
	 Singles Energy            =      -0.0000000000000000 [Eh]
	 Same-Spin Energy          =      -0.1590440563876309 [Eh]
	 Opposite-Spin Energy      =      -0.5724203143391690 [Eh]
	 Correlation Energy        =      -0.7314643707267998 [Eh]
	 Total Energy              =    -155.6794142402301304 [Eh]

	 ================> DF-SCS-MP2 Energies <==================
	-----------------------------------------------------------
	 SCS Same-Spin Scale       =       0.3333333333333333 [-]
	 SCS Opposite-Spin Scale   =       1.2000000000000000 [-]
	 SCS Same-Spin Energy      =      -0.0530146854625436 [Eh]
	 SCS Opposite-Spin Energy  =      -0.6869043772070027 [Eh]
	 SCS Correlation Energy    =      -0.7399190626695463 [Eh]
	 SCS Total Energy          =    -155.6878689321728757 [Eh]
	-----------------------------------------------------------

  Dipole Moment: [D]
     X:     0.0051      Y:    -0.0980      Z:     0.0000     Total:     0.0981

*** Psi4 exiting successfully. Buy a developer a beer!
