                               Psi4 1.3.2 release

  ==> Input File <==

--------------------------------------------------------------------------
#psi4
#
memory 32 gb

molecule  {
0 1
  C       -0.6059800    -0.4049620    -0.0000070
  C        0.6595275     0.3184519    -0.0000078
  C       -1.8474020     0.1098690     0.0000050
  C        1.8474010    -0.1098720     0.0000050
  H       -0.4725230    -1.4867800    -0.0000150
  H        0.4725330     1.4867860    -0.0000150
  H       -2.7279640    -0.5234220     0.0000090
  H       -2.0152630     1.1834510     0.0000160
  H        2.7279690     0.5234090     0.0000090
  H        2.0152500    -1.1834560     0.0000160
units angstrom
no_reorient  #important for SAPT in psi4, default
symmetry c1  #important for SAPT in psi4, default
}

set PROPERTIES_ORIGIN ["COM"]
properties('MP2/aug-cc-pvtz', properties = ['dipole'])
--------------------------------------------------------------------------

    Molecular point group: c1
  Charge       = 0
  Multiplicity = 1
  Basis Set: AUG-CC-PVTZ
    Blend: AUG-CC-PVTZ
  Basis Set: (AUG-CC-PVTZ AUX)
    Blend: AUG-CC-PVTZ-JKFIT

    Orbital Energies [Eh]
    ---------------------

    Doubly Occupied:

       1A    -11.243360     2A    -11.238064     3A    -11.235085
       4A    -11.220680     5A     -1.099392     6A     -1.013143
       7A     -0.830449     8A     -0.740053     9A     -0.651981
      10A     -0.634487    11A     -0.573192    12A     -0.538658
      13A     -0.468063    14A     -0.453903    15A     -0.336135

  @DF-RHF Final Energy:  -154.96560132572350

   => Energetics <=

    Nuclear Repulsion Energy =            104.1633416525603906
    One-Electron Energy =                -413.7045922629533266
    Two-Electron Energy =                 154.5756492846694243
    Total Energy =                       -154.9656013257234974
  Basis Set: (AUG-CC-PVTZ AUX)
    Blend: AUG-CC-PVTZ-RI
    Molecular point group: c1

    Geometry (in Angstrom), charge = 0, multiplicity = 1:

       Center              X                  Y                   Z               Mass
    ------------   -----------------  -----------------  -----------------  -----------------
         C           -0.617868922749    -0.385753343634    -0.000006307204    12.000000000000
         C            0.647638577251     0.337660556366    -0.000007107204    12.000000000000
         C           -1.859290922749     0.129077656366     0.000005692796    12.000000000000
         C            1.835512077251    -0.090663343634     0.000005692796    12.000000000000
         H           -0.484411922749    -1.467571343634    -0.000014307204     1.007825032230
         H            0.460644077251     1.505994656366    -0.000014307204     1.007825032230
         H           -2.739852922749    -0.504213343634     0.000009692796     1.007825032230
         H           -2.027151922749     1.202659656366     0.000016692796     1.007825032230
         H            2.716080077251     0.542617656366     0.000009692796     1.007825032230
         H            2.003361077251    -1.164247343634     0.000016692796     1.007825032230

  Basis Set: AUG-CC-PVTZ
    Blend: AUG-CC-PVTZ
  Basis Set: (AUG-CC-PVTZ AUX)
    Blend: AUG-CC-PVTZ-JKFIT
	 Reference Energy          =    -154.9656013257234974 [Eh]
	 Singles Energy            =      -0.0000000000000000 [Eh]
	 Same-Spin Energy          =      -0.1589444114540103 [Eh]
	 Opposite-Spin Energy      =      -0.5723910009626167 [Eh]
	 Correlation Energy        =      -0.7313354124166271 [Eh]
	 Total Energy              =    -155.6969367381401241 [Eh]

	 ================> DF-SCS-MP2 Energies <==================
	-----------------------------------------------------------
	 SCS Same-Spin Scale       =       0.3333333333333333 [-]
	 SCS Opposite-Spin Scale   =       1.2000000000000000 [-]
	 SCS Same-Spin Energy      =      -0.0529814704846701 [Eh]
	 SCS Opposite-Spin Energy  =      -0.6868692011551401 [Eh]
	 SCS Correlation Energy    =      -0.7398506716398101 [Eh]
	 SCS Total Energy          =    -155.7054519973632978 [Eh]
	-----------------------------------------------------------

  Dipole Moment: [D]
     X:     0.0048      Y:    -0.0503      Z:     0.0000     Total:     0.0505

*** Psi4 exiting successfully. Buy a developer a beer!
