                               Psi4 1.3.2 release

  ==> Input File <==

--------------------------------------------------------------------------
#psi4
#
memory 32 gb

molecule  {
0 1
  C       -0.6059800    -0.4049620    -0.0000070
  C        0.6059820     0.4049670    -0.0000070
  C       -1.8474020     0.1098690     0.0000050
  C        1.8474010    -0.1098720     0.0000050
  H       -0.4847666    -1.3875324    -0.0000143
  H        0.4725330     1.4867860    -0.0000150
  H       -2.7279640    -0.5234220     0.0000090
  H       -2.0152630     1.1834510     0.0000160
  H        2.7279690     0.5234090     0.0000090
  H        2.0152500    -1.1834560     0.0000160
units angstrom
no_reorient  #important for SAPT in psi4, default
symmetry c1  #important for SAPT in psi4, default
}

set PROPERTIES_ORIGIN ["COM"]
properties('MP2/aug-cc-pvtz', properties = ['dipole'])
--------------------------------------------------------------------------

    Molecular point group: c1
  Charge       = 0
  Multiplicity = 1
  Basis Set: AUG-CC-PVTZ
    Blend: AUG-CC-PVTZ
  Basis Set: (AUG-CC-PVTZ AUX)
    Blend: AUG-CC-PVTZ-JKFIT

    Orbital Energies [Eh]
    ---------------------

    Doubly Occupied:

       1A    -11.241459     2A    -11.232040     3A    -11.231697
       4A    -11.229851     5A     -1.094253     6A     -1.000013
       7A     -0.830226     8A     -0.768608     9A     -0.646664
      10A     -0.637466    11A     -0.561492    12A     -0.547544
      13A     -0.499779    14A     -0.443355    15A     -0.322761

  @DF-RHF Final Energy:  -154.97231054304234

   => Energetics <=

    Nuclear Repulsion Energy =            103.9613614817439355
    One-Electron Energy =                -413.2929241136700966
    Two-Electron Energy =                 154.3592520888838067
    Total Energy =                       -154.9723105430423402
  Basis Set: (AUG-CC-PVTZ AUX)
    Blend: AUG-CC-PVTZ-RI
    Molecular point group: c1

    Geometry (in Angstrom), charge = 0, multiplicity = 1:

       Center              X                  Y                   Z               Mass
    ------------   -----------------  -----------------  -----------------  -----------------
         C           -0.605751950297    -0.406812911502    -0.000006497881    12.000000000000
         C            0.606210049703     0.403116088498    -0.000006497881    12.000000000000
         C           -1.847173950297     0.108018088498     0.000005502119    12.000000000000
         C            1.847629049703    -0.111722911502     0.000005502119    12.000000000000
         H           -0.484538550297    -1.389383311502    -0.000013797881     1.007825032230
         H            0.472761049703     1.484935088498    -0.000014497881     1.007825032230
         H           -2.727735950297    -0.525272911502     0.000009502119     1.007825032230
         H           -2.015034950297     1.181600088498     0.000016502119     1.007825032230
         H            2.728197049703     0.521558088498     0.000009502119     1.007825032230
         H            2.015478049703    -1.185306911502     0.000016502119     1.007825032230

  Basis Set: AUG-CC-PVTZ
    Blend: AUG-CC-PVTZ
  Basis Set: (AUG-CC-PVTZ AUX)
    Blend: AUG-CC-PVTZ-JKFIT
	 Reference Energy          =    -154.9723105430423402 [Eh]
	 Singles Energy            =      -0.0000000000000000 [Eh]
	 Same-Spin Energy          =      -0.1590544253016075 [Eh]
	 Opposite-Spin Energy      =      -0.5730103104480530 [Eh]
	 Correlation Energy        =      -0.7320647357496604 [Eh]
	 Total Energy              =    -155.7043752787920141 [Eh]

	 ================> DF-SCS-MP2 Energies <==================
	-----------------------------------------------------------
	 SCS Same-Spin Scale       =       0.3333333333333333 [-]
	 SCS Opposite-Spin Scale   =       1.2000000000000000 [-]
	 SCS Same-Spin Energy      =      -0.0530181417672025 [Eh]
	 SCS Opposite-Spin Energy  =      -0.6876123725376635 [Eh]
	 SCS Correlation Energy    =      -0.7406305143048659 [Eh]
	 SCS Total Energy          =    -155.7129410573471944 [Eh]
	-----------------------------------------------------------

  Dipole Moment: [D]
     X:    -0.0103      Y:    -0.0333      Z:     0.0000     Total:     0.0348

*** Psi4 exiting successfully. Buy a developer a beer!
