                               Psi4 1.3.2 release

  ==> Input File <==

--------------------------------------------------------------------------
#psi4
#
memory 32 gb

molecule  {
0 1
  C       -0.6059800    -0.4049620    -0.0000070
  C        0.5228389     0.3494042    -0.0000070
  C       -1.8474020     0.1098690     0.0000050
  C        1.8474010    -0.1098720     0.0000050
  H       -0.4725230    -1.4867800    -0.0000150
  H        0.4725330     1.4867860    -0.0000150
  H       -2.7279640    -0.5234220     0.0000090
  H       -2.0152630     1.1834510     0.0000160
  H        2.7279690     0.5234090     0.0000090
  H        2.0152500    -1.1834560     0.0000160
units angstrom
no_reorient  #important for SAPT in psi4, default
symmetry c1  #important for SAPT in psi4, default
}

set PROPERTIES_ORIGIN ["COM"]
properties('MP2/aug-cc-pvtz', properties = ['dipole'])
--------------------------------------------------------------------------

    Molecular point group: c1
  Charge       = 0
  Multiplicity = 1
  Basis Set: AUG-CC-PVTZ
    Blend: AUG-CC-PVTZ
  Basis Set: (AUG-CC-PVTZ AUX)
    Blend: AUG-CC-PVTZ-JKFIT

    Orbital Energies [Eh]
    ---------------------

    Doubly Occupied:

       1A    -11.246920     2A    -11.240583     3A    -11.236758
       4A    -11.235121     5A     -1.105309     6A     -0.989012
       7A     -0.844279     8A     -0.749733     9A     -0.648002
      10A     -0.637250    11A     -0.558494    12A     -0.537197
      13A     -0.497394    14A     -0.454020    15A     -0.308134

  @DF-RHF Final Energy:  -154.96011694251033

   => Energetics <=

    Nuclear Repulsion Energy =            104.1026101681954401
    One-Electron Energy =                -413.5490408904728952
    Two-Electron Energy =                 154.4863137797671300
    Total Energy =                       -154.9601169425103251
  Basis Set: (AUG-CC-PVTZ AUX)
    Blend: AUG-CC-PVTZ-RI
    Molecular point group: c1

    Geometry (in Angstrom), charge = 0, multiplicity = 1:

       Center              X                  Y                   Z               Mass
    ------------   -----------------  -----------------  -----------------  -----------------
         C           -0.587520065059    -0.392625657403    -0.000006484828    12.000000000000
         C            0.541298834941     0.361740542597    -0.000006484828    12.000000000000
         C           -1.828942065059     0.122205342597     0.000005515172    12.000000000000
         C            1.865860934941    -0.097535657403     0.000005515172    12.000000000000
         H           -0.454063065059    -1.474443657403    -0.000014484828     1.007825032230
         H            0.490992934941     1.499122342597    -0.000014484828     1.007825032230
         H           -2.709504065059    -0.511085657403     0.000009515172     1.007825032230
         H           -1.996803065059     1.195787342597     0.000016515172     1.007825032230
         H            2.746428934941     0.535745342597     0.000009515172     1.007825032230
         H            2.033709934941    -1.171119657403     0.000016515172     1.007825032230

  Basis Set: AUG-CC-PVTZ
    Blend: AUG-CC-PVTZ
  Basis Set: (AUG-CC-PVTZ AUX)
    Blend: AUG-CC-PVTZ-JKFIT
	 Reference Energy          =    -154.9601169425103251 [Eh]
	 Singles Energy            =      -0.0000000000000000 [Eh]
	 Same-Spin Energy          =      -0.1615153991261974 [Eh]
	 Opposite-Spin Energy      =      -0.5770206080159991 [Eh]
	 Correlation Energy        =      -0.7385360071421965 [Eh]
	 Total Energy              =    -155.6986529496525122 [Eh]

	 ================> DF-SCS-MP2 Energies <==================
	-----------------------------------------------------------
	 SCS Same-Spin Scale       =       0.3333333333333333 [-]
	 SCS Opposite-Spin Scale   =       1.2000000000000000 [-]
	 SCS Same-Spin Energy      =      -0.0538384663753991 [Eh]
	 SCS Opposite-Spin Energy  =      -0.6924247296191989 [Eh]
	 SCS Correlation Energy    =      -0.7462631959945980 [Eh]
	 SCS Total Energy          =    -155.7063801385049260 [Eh]
	-----------------------------------------------------------

  Dipole Moment: [D]
     X:    -0.0680      Y:    -0.0204      Z:     0.0000     Total:     0.0710

*** Psi4 exiting successfully. Buy a developer a beer!
