                               Psi4 1.3.2 release

  ==> Input File <==

--------------------------------------------------------------------------
#psi4
#
memory 32 gb

molecule  {
0 1
  C       -0.6059800    -0.4049620    -0.0000070
  C        0.5887706     0.3613285    -0.0000069
  C       -1.8474020     0.1098690     0.0000050
  C        1.8474010    -0.1098720     0.0000050
  H       -0.4725230    -1.4867800    -0.0000150
  H        0.4725330     1.4867860    -0.0000150
  H       -2.7279640    -0.5234220     0.0000090
  H       -2.0152630     1.1834510     0.0000160
  H        2.7279690     0.5234090     0.0000090
  H        2.0152500    -1.1834560     0.0000160
units angstrom
no_reorient  #important for SAPT in psi4, default
symmetry c1  #important for SAPT in psi4, default
}

set PROPERTIES_ORIGIN ["COM"]
properties('MP2/aug-cc-pvtz', properties = ['dipole'])
--------------------------------------------------------------------------

    Molecular point group: c1
  Charge       = 0
  Multiplicity = 1
  Basis Set: AUG-CC-PVTZ
    Blend: AUG-CC-PVTZ
  Basis Set: (AUG-CC-PVTZ AUX)
    Blend: AUG-CC-PVTZ-JKFIT

    Orbital Energies [Eh]
    ---------------------

    Doubly Occupied:

       1A    -11.243025     2A    -11.240305     3A    -11.234054
       4A    -11.232500     5A     -1.096894     6A     -0.999266
       7A     -0.834648     8A     -0.748959     9A     -0.647482
      10A     -0.635159    11A     -0.560597    12A     -0.540841
      13A     -0.492350    14A     -0.449157    15A     -0.321099

  @DF-RHF Final Energy:  -154.97462641800530

   => Energetics <=

    Nuclear Repulsion Energy =            103.8743602573416211
    One-Electron Energy =                -413.1453011465397935
    Two-Electron Energy =                 154.2963144711928862
    Total Energy =                       -154.9746264180053004
  Basis Set: (AUG-CC-PVTZ AUX)
    Blend: AUG-CC-PVTZ-RI
    Molecular point group: c1

    Geometry (in Angstrom), charge = 0, multiplicity = 1:

       Center              X                  Y                   Z               Mass
    ------------   -----------------  -----------------  -----------------  -----------------
         C           -0.602158826305    -0.395273199947    -0.000006507030    12.000000000000
         C            0.592591773695     0.371017300053    -0.000006407030    12.000000000000
         C           -1.843580826305     0.119557800053     0.000005492970    12.000000000000
         C            1.851222173695    -0.100183199947     0.000005492970    12.000000000000
         H           -0.468701826305    -1.477091199947    -0.000014507030     1.007825032230
         H            0.476354173695     1.496474800053    -0.000014507030     1.007825032230
         H           -2.724142826305    -0.513733199947     0.000009492970     1.007825032230
         H           -2.011441826305     1.193139800053     0.000016492970     1.007825032230
         H            2.731790173695     0.533097800053     0.000009492970     1.007825032230
         H            2.019071173695    -1.173767199947     0.000016492970     1.007825032230

  Basis Set: AUG-CC-PVTZ
    Blend: AUG-CC-PVTZ
  Basis Set: (AUG-CC-PVTZ AUX)
    Blend: AUG-CC-PVTZ-JKFIT
	 Reference Energy          =    -154.9746264180053004 [Eh]
	 Singles Energy            =      -0.0000000000000000 [Eh]
	 Same-Spin Energy          =      -0.1598141553036267 [Eh]
	 Opposite-Spin Energy      =      -0.5741283167950728 [Eh]
	 Correlation Energy        =      -0.7339424720986996 [Eh]
	 Total Energy              =    -155.7085688901040044 [Eh]

	 ================> DF-SCS-MP2 Energies <==================
	-----------------------------------------------------------
	 SCS Same-Spin Scale       =       0.3333333333333333 [-]
	 SCS Opposite-Spin Scale   =       1.2000000000000000 [-]
	 SCS Same-Spin Energy      =      -0.0532713851012089 [Eh]
	 SCS Opposite-Spin Energy  =      -0.6889539801540874 [Eh]
	 SCS Correlation Energy    =      -0.7422253652552963 [Eh]
	 SCS Total Energy          =    -155.7168517832606085 [Eh]
	-----------------------------------------------------------

  Dipole Moment: [D]
     X:    -0.0242      Y:    -0.0169      Z:     0.0000     Total:     0.0296

*** Psi4 exiting successfully. Buy a developer a beer!
