                               Psi4 1.3.2 release

  ==> Input File <==

--------------------------------------------------------------------------
#psi4
#
memory 32 gb

molecule  {
0 1
  C       -0.6059800    -0.4049620    -0.0000070
  C        0.6247059     0.4479783    -0.0000070
  C       -1.8474020     0.1098690     0.0000050
  C        1.8474010    -0.1098720     0.0000050
  H       -0.4725230    -1.4867800    -0.0000150
  H        0.4725330     1.4867860    -0.0000150
  H       -2.7279640    -0.5234220     0.0000090
  H       -2.0152630     1.1834510     0.0000160
  H        2.7279690     0.5234090     0.0000090
  H        2.0152500    -1.1834560     0.0000160
units angstrom
no_reorient  #important for SAPT in psi4, default
symmetry c1  #important for SAPT in psi4, default
}

set PROPERTIES_ORIGIN ["COM"]
properties('MP2/aug-cc-pvtz', properties = ['dipole'])
--------------------------------------------------------------------------

    Molecular point group: c1
  Charge       = 0
  Multiplicity = 1
  Basis Set: AUG-CC-PVTZ
    Blend: AUG-CC-PVTZ
  Basis Set: (AUG-CC-PVTZ AUX)
    Blend: AUG-CC-PVTZ-JKFIT

    Orbital Energies [Eh]
    ---------------------

    Doubly Occupied:

       1A    -11.244183     2A    -11.242011     3A    -11.232215
       4A    -11.230275     5A     -1.086190     6A     -0.999060
       7A     -0.822320     8A     -0.761001     9A     -0.642230
      10A     -0.634217    11A     -0.562455    12A     -0.545992
      13A     -0.493330    14A     -0.438954    15A     -0.325209

  @DF-RHF Final Energy:  -154.97633516370635

   => Energetics <=

    Nuclear Repulsion Energy =            103.1678303053781178
    One-Electron Energy =                -411.7690493026387344
    Two-Electron Energy =                 153.6248838335542644
    Total Energy =                       -154.9763351637063522
  Basis Set: (AUG-CC-PVTZ AUX)
    Blend: AUG-CC-PVTZ-RI
    Molecular point group: c1

    Geometry (in Angstrom), charge = 0, multiplicity = 1:

       Center              X                  Y                   Z               Mass
    ------------   -----------------  -----------------  -----------------  -----------------
         C           -0.610137511476    -0.414511983935    -0.000006484828    12.000000000000
         C            0.620548388524     0.438428316065    -0.000006484828    12.000000000000
         C           -1.851559511476     0.100319016065     0.000005515172    12.000000000000
         C            1.843243488524    -0.119421983935     0.000005515172    12.000000000000
         H           -0.476680511476    -1.496329983935    -0.000014484828     1.007825032230
         H            0.468375488524     1.477236016065    -0.000014484828     1.007825032230
         H           -2.732121511476    -0.532971983935     0.000009515172     1.007825032230
         H           -2.019420511476     1.173901016065     0.000016515172     1.007825032230
         H            2.723811488524     0.513859016065     0.000009515172     1.007825032230
         H            2.011092488524    -1.193005983935     0.000016515172     1.007825032230

  Basis Set: AUG-CC-PVTZ
    Blend: AUG-CC-PVTZ
  Basis Set: (AUG-CC-PVTZ AUX)
    Blend: AUG-CC-PVTZ-JKFIT
	 Reference Energy          =    -154.9763351637063522 [Eh]
	 Singles Energy            =      -0.0000000000000000 [Eh]
	 Same-Spin Energy          =      -0.1587475204331094 [Eh]
	 Opposite-Spin Energy      =      -0.5730657883960152 [Eh]
	 Correlation Energy        =      -0.7318133088291245 [Eh]
	 Total Energy              =    -155.7081484725354699 [Eh]

	 ================> DF-SCS-MP2 Energies <==================
	-----------------------------------------------------------
	 SCS Same-Spin Scale       =       0.3333333333333333 [-]
	 SCS Opposite-Spin Scale   =       1.2000000000000000 [-]
	 SCS Same-Spin Energy      =      -0.0529158401443698 [Eh]
	 SCS Opposite-Spin Energy  =      -0.6876789460752182 [Eh]
	 SCS Correlation Energy    =      -0.7405947862195880 [Eh]
	 SCS Total Energy          =    -155.7169299499259409 [Eh]
	-----------------------------------------------------------

  Dipole Moment: [D]
     X:     0.0271      Y:     0.0104      Z:     0.0000     Total:     0.0290

*** Psi4 exiting successfully. Buy a developer a beer!
