                               Psi4 1.3.2 release

  ==> Input File <==

--------------------------------------------------------------------------
#psi4
#
memory 32 gb

molecule  {
0 1
  C       -0.6059800    -0.4049620    -0.0000070
  C        0.6059820     0.4049670    -0.0000070
  C       -1.8474020     0.1098690     0.0000050
  C        1.8474010    -0.1098720     0.0000050
  H       -0.4480359    -1.6852753    -0.0000165
  H        0.4725330     1.4867860    -0.0000150
  H       -2.7279640    -0.5234220     0.0000090
  H       -2.0152630     1.1834510     0.0000160
  H        2.7279690     0.5234090     0.0000090
  H        2.0152500    -1.1834560     0.0000160
units angstrom
no_reorient  #important for SAPT in psi4, default
symmetry c1  #important for SAPT in psi4, default
}

set PROPERTIES_ORIGIN ["COM"]
properties('MP2/aug-cc-pvtz', properties = ['dipole'])
--------------------------------------------------------------------------

    Molecular point group: c1
  Charge       = 0
  Multiplicity = 1
  Basis Set: AUG-CC-PVTZ
    Blend: AUG-CC-PVTZ
  Basis Set: (AUG-CC-PVTZ AUX)
    Blend: AUG-CC-PVTZ-JKFIT

    Orbital Energies [Eh]
    ---------------------

    Doubly Occupied:

       1A    -11.264090     2A    -11.244669     3A    -11.234148
       4A    -11.233166     5A     -1.088814     6A     -0.998959
       7A     -0.826987     8A     -0.736422     9A     -0.643984
      10A     -0.628276    11A     -0.555936    12A     -0.536719
      13A     -0.480410    14A     -0.445619    15A     -0.324333

  @DF-RHF Final Energy:  -154.95640161135540

   => Energetics <=

    Nuclear Repulsion Energy =            102.7838245661478709
    One-Electron Energy =                -410.9953884057934488
    Two-Electron Energy =                 153.2551622282901747
    Total Energy =                       -154.9564016113554032
  Basis Set: (AUG-CC-PVTZ AUX)
    Blend: AUG-CC-PVTZ-RI
    Molecular point group: c1

    Geometry (in Angstrom), charge = 0, multiplicity = 1:

       Center              X                  Y                   Z               Mass
    ------------   -----------------  -----------------  -----------------  -----------------
         C           -0.606436875511    -0.401260836006    -0.000006456857    12.000000000000
         C            0.605525124489     0.408668163994    -0.000006456857    12.000000000000
         C           -1.847858875511     0.113570163994     0.000005543143    12.000000000000
         C            1.846944124489    -0.106170836006     0.000005543143    12.000000000000
         H           -0.448492775511    -1.681574136006    -0.000015956857     1.007825032230
         H            0.472076124489     1.490487163994    -0.000014456857     1.007825032230
         H           -2.728420875511    -0.519720836006     0.000009543143     1.007825032230
         H           -2.015719875511     1.187152163994     0.000016543143     1.007825032230
         H            2.727512124489     0.527110163994     0.000009543143     1.007825032230
         H            2.014793124489    -1.179754836006     0.000016543143     1.007825032230

  Basis Set: AUG-CC-PVTZ
    Blend: AUG-CC-PVTZ
  Basis Set: (AUG-CC-PVTZ AUX)
    Blend: AUG-CC-PVTZ-JKFIT
	 Reference Energy          =    -154.9564016113554032 [Eh]
	 Singles Energy            =      -0.0000000000000000 [Eh]
	 Same-Spin Energy          =      -0.1597138880217858 [Eh]
	 Opposite-Spin Energy      =      -0.5754184676360024 [Eh]
	 Correlation Energy        =      -0.7351323556577881 [Eh]
	 Total Energy              =    -155.6915339670131857 [Eh]

	 ================> DF-SCS-MP2 Energies <==================
	-----------------------------------------------------------
	 SCS Same-Spin Scale       =       0.3333333333333333 [-]
	 SCS Opposite-Spin Scale   =       1.2000000000000000 [-]
	 SCS Same-Spin Energy      =      -0.0532379626739286 [Eh]
	 SCS Opposite-Spin Energy  =      -0.6905021611632028 [Eh]
	 SCS Correlation Energy    =      -0.7437401238371314 [Eh]
	 SCS Total Energy          =    -155.7001417351925454 [Eh]
	-----------------------------------------------------------

  Dipole Moment: [D]
     X:     0.0148      Y:     0.1110      Z:     0.0000     Total:     0.1120

*** Psi4 exiting successfully. Buy a developer a beer!
