                               Psi4 1.3.2 release

  ==> Input File <==

--------------------------------------------------------------------------
#psi4
#
memory 32 gb

molecule  {
0 1
  C       -0.6059800    -0.4049620    -0.0000070
  C        0.5730927     0.3171159    -0.0000069
  C       -1.8474020     0.1098690     0.0000050
  C        1.8474010    -0.1098720     0.0000050
  H       -0.4725230    -1.4867800    -0.0000150
  H        0.4725330     1.4867860    -0.0000150
  H       -2.7279640    -0.5234220     0.0000090
  H       -2.0152630     1.1834510     0.0000160
  H        2.7279690     0.5234090     0.0000090
  H        2.0152500    -1.1834560     0.0000160
units angstrom
no_reorient  #important for SAPT in psi4, default
symmetry c1  #important for SAPT in psi4, default
}

set PROPERTIES_ORIGIN ["COM"]
properties('MP2/aug-cc-pvtz', properties = ['dipole'])
--------------------------------------------------------------------------

    Molecular point group: c1
  Charge       = 0
  Multiplicity = 1
  Basis Set: AUG-CC-PVTZ
    Blend: AUG-CC-PVTZ
  Basis Set: (AUG-CC-PVTZ AUX)
    Blend: AUG-CC-PVTZ-JKFIT

    Orbital Energies [Eh]
    ---------------------

    Doubly Occupied:

       1A    -11.243936     2A    -11.238486     3A    -11.236033
       4A    -11.233423     5A     -1.103065     6A     -0.999660
       7A     -0.842537     8A     -0.743522     9A     -0.650926
      10A     -0.635182    11A     -0.566286    12A     -0.538172
      13A     -0.482727    14A     -0.454861    15A     -0.319239

  @DF-RHF Final Energy:  -154.96605279453379

   => Energetics <=

    Nuclear Repulsion Energy =            104.2358005072145630
    One-Electron Energy =                -413.8275952965524880
    Two-Electron Energy =                 154.6257419948041445
    Total Energy =                       -154.9660527945337947
  Basis Set: (AUG-CC-PVTZ AUX)
    Blend: AUG-CC-PVTZ-RI
    Molecular point group: c1

    Geometry (in Angstrom), charge = 0, multiplicity = 1:

       Center              X                  Y                   Z               Mass
    ------------   -----------------  -----------------  -----------------  -----------------
         C           -0.598677875034    -0.385456712650    -0.000006507030    12.000000000000
         C            0.580394824966     0.336621187350    -0.000006407030    12.000000000000
         C           -1.840099875034     0.129374287350     0.000005492970    12.000000000000
         C            1.854703124966    -0.090366712650     0.000005492970    12.000000000000
         H           -0.465220875034    -1.467274712650    -0.000014507030     1.007825032230
         H            0.479835124966     1.506291287350    -0.000014507030     1.007825032230
         H           -2.720661875034    -0.503916712650     0.000009492970     1.007825032230
         H           -2.007960875034     1.202956287350     0.000016492970     1.007825032230
         H            2.735271124966     0.542914287350     0.000009492970     1.007825032230
         H            2.022552124966    -1.163950712650     0.000016492970     1.007825032230

  Basis Set: AUG-CC-PVTZ
    Blend: AUG-CC-PVTZ
  Basis Set: (AUG-CC-PVTZ AUX)
    Blend: AUG-CC-PVTZ-JKFIT
	 Reference Energy          =    -154.9660527945337947 [Eh]
	 Singles Energy            =      -0.0000000000000000 [Eh]
	 Same-Spin Energy          =      -0.1605455414077665 [Eh]
	 Opposite-Spin Energy      =      -0.5751542847748714 [Eh]
	 Correlation Energy        =      -0.7356998261826380 [Eh]
	 Total Energy              =    -155.7017526207164337 [Eh]

	 ================> DF-SCS-MP2 Energies <==================
	-----------------------------------------------------------
	 SCS Same-Spin Scale       =       0.3333333333333333 [-]
	 SCS Opposite-Spin Scale   =       1.2000000000000000 [-]
	 SCS Same-Spin Energy      =      -0.0535151804692555 [Eh]
	 SCS Opposite-Spin Energy  =      -0.6901851417298457 [Eh]
	 SCS Correlation Energy    =      -0.7437003221991012 [Eh]
	 SCS Total Energy          =    -155.7097531167328839 [Eh]
	-----------------------------------------------------------

  Dipole Moment: [D]
     X:    -0.0462      Y:    -0.0422      Z:     0.0000     Total:     0.0626

*** Psi4 exiting successfully. Buy a developer a beer!
