                               Psi4 1.3.2 release

  ==> Input File <==

--------------------------------------------------------------------------
#psi4
#
memory 32 gb

molecule  {
0 1
  C       -0.6059800    -0.4049620    -0.0000070
  C        0.5769776     0.4467705    -0.0000066
  C       -1.8474020     0.1098690     0.0000050
  C        1.8474010    -0.1098720     0.0000050
  H       -0.4725230    -1.4867800    -0.0000150
  H        0.4725330     1.4867860    -0.0000150
  H       -2.7279640    -0.5234220     0.0000090
  H       -2.0152630     1.1834510     0.0000160
  H        2.7279690     0.5234090     0.0000090
  H        2.0152500    -1.1834560     0.0000160
units angstrom
no_reorient  #important for SAPT in psi4, default
symmetry c1  #important for SAPT in psi4, default
}

set PROPERTIES_ORIGIN ["COM"]
properties('MP2/aug-cc-pvtz', properties = ['dipole'])
--------------------------------------------------------------------------

    Molecular point group: c1
  Charge       = 0
  Multiplicity = 1
  Basis Set: AUG-CC-PVTZ
    Blend: AUG-CC-PVTZ
  Basis Set: (AUG-CC-PVTZ AUX)
    Blend: AUG-CC-PVTZ-JKFIT

    Orbital Energies [Eh]
    ---------------------

    Doubly Occupied:

       1A    -11.245120     2A    -11.242493     3A    -11.238004
       4A    -11.230924     5A     -1.089008     6A     -0.991989
       7A     -0.827595     8A     -0.763243     9A     -0.640830
      10A     -0.636812    11A     -0.551992    12A     -0.547598
      13A     -0.504800    14A     -0.440223    15A     -0.316377

  @DF-RHF Final Energy:  -154.97271827798295

   => Energetics <=

    Nuclear Repulsion Energy =            103.2287213547748337
    One-Electron Energy =                -411.8688639624192547
    Two-Electron Energy =                 153.6674243296614577
    Total Energy =                       -154.9727182779829491
  Basis Set: (AUG-CC-PVTZ AUX)
    Blend: AUG-CC-PVTZ-RI
    Molecular point group: c1

    Geometry (in Angstrom), charge = 0, multiplicity = 1:

       Center              X                  Y                   Z               Mass
    ------------   -----------------  -----------------  -----------------  -----------------
         C           -0.599540436193    -0.414243817092    -0.000006573639    12.000000000000
         C            0.583417163807     0.437488682908    -0.000006173639    12.000000000000
         C           -1.840962436193     0.100587182908     0.000005426361    12.000000000000
         C            1.853840563807    -0.119153817092     0.000005426361    12.000000000000
         H           -0.466083436193    -1.496061817092    -0.000014573639     1.007825032230
         H            0.478972563807     1.477504182908    -0.000014573639     1.007825032230
         H           -2.721524436193    -0.532703817092     0.000009426361     1.007825032230
         H           -2.008823436193     1.174169182908     0.000016426361     1.007825032230
         H            2.734408563807     0.514127182908     0.000009426361     1.007825032230
         H            2.021689563807    -1.192737817092     0.000016426361     1.007825032230

  Basis Set: AUG-CC-PVTZ
    Blend: AUG-CC-PVTZ
  Basis Set: (AUG-CC-PVTZ AUX)
    Blend: AUG-CC-PVTZ-JKFIT
	 Reference Energy          =    -154.9727182779829491 [Eh]
	 Singles Energy            =      -0.0000000000000000 [Eh]
	 Same-Spin Energy          =      -0.1596043598524962 [Eh]
	 Opposite-Spin Energy      =      -0.5745799066546536 [Eh]
	 Correlation Energy        =      -0.7341842665071499 [Eh]
	 Total Energy              =    -155.7069025444901058 [Eh]

	 ================> DF-SCS-MP2 Energies <==================
	-----------------------------------------------------------
	 SCS Same-Spin Scale       =       0.3333333333333333 [-]
	 SCS Opposite-Spin Scale   =       1.2000000000000000 [-]
	 SCS Same-Spin Energy      =      -0.0532014532841654 [Eh]
	 SCS Opposite-Spin Energy  =      -0.6894958879855844 [Eh]
	 SCS Correlation Energy    =      -0.7426973412697497 [Eh]
	 SCS Total Energy          =    -155.7154156192526955 [Eh]
	-----------------------------------------------------------

  Dipole Moment: [D]
     X:    -0.0069      Y:     0.0071      Z:     0.0000     Total:     0.0099

*** Psi4 exiting successfully. Buy a developer a beer!
