                               Psi4 1.3.2 release

  ==> Input File <==

--------------------------------------------------------------------------
#psi4
#
memory 32 gb

molecule  {
0 1
  C       -0.6059800    -0.4049620    -0.0000070
  C        0.6059820     0.4049670    -0.0000070
  C       -2.0321454     0.1864841     0.0000068
  C        1.8474010    -0.1098720     0.0000050
  H       -0.4725230    -1.4867800    -0.0000150
  H        0.4725330     1.4867860    -0.0000150
  H       -2.7279640    -0.5234220     0.0000090
  H       -2.0152630     1.1834510     0.0000160
  H        2.7279690     0.5234090     0.0000090
  H        2.0152500    -1.1834560     0.0000160
units angstrom
no_reorient  #important for SAPT in psi4, default
symmetry c1  #important for SAPT in psi4, default
}

set PROPERTIES_ORIGIN ["COM"]
properties('MP2/aug-cc-pvtz', properties = ['dipole'])
--------------------------------------------------------------------------

    Molecular point group: c1
  Charge       = 0
  Multiplicity = 1
  Basis Set: AUG-CC-PVTZ
    Blend: AUG-CC-PVTZ
  Basis Set: (AUG-CC-PVTZ AUX)
    Blend: AUG-CC-PVTZ-JKFIT

    Orbital Energies [Eh]
    ---------------------

    Doubly Occupied:

       1A    -11.270973     2A    -11.246759     3A    -11.242303
       4A    -11.237943     5A     -1.080565     6A     -0.980435
       7A     -0.848667     8A     -0.759239     9A     -0.660987
      10A     -0.632113    11A     -0.583632    12A     -0.518519
      13A     -0.510823    14A     -0.430698    15A     -0.299499

  @DF-RHF Final Energy:  -154.92265343412413

   => Energetics <=

    Nuclear Repulsion Energy =            101.2140520214897634
    One-Electron Energy =                -407.6671019193628922
    Two-Electron Energy =                 151.5303964637490139
    Total Energy =                       -154.9226534341241290
  Basis Set: (AUG-CC-PVTZ AUX)
    Blend: AUG-CC-PVTZ-RI
    Molecular point group: c1

    Geometry (in Angstrom), charge = 0, multiplicity = 1:

       Center              X                  Y                   Z               Mass
    ------------   -----------------  -----------------  -----------------  -----------------
         C           -0.564961833824    -0.421973008074    -0.000006884480    12.000000000000
         C            0.647000166176     0.387955991926    -0.000006884480    12.000000000000
         C           -1.991127233824     0.169473091926     0.000006915520    12.000000000000
         C            1.888419166176    -0.126883008074     0.000005115520    12.000000000000
         H           -0.431504833824    -1.503791008074    -0.000014884480     1.007825032230
         H            0.513551166176     1.469774991926    -0.000014884480     1.007825032230
         H           -2.686945833824    -0.540433008074     0.000009115520     1.007825032230
         H           -1.974244833824     1.166439991926     0.000016115520     1.007825032230
         H            2.768987166176     0.506397991926     0.000009115520     1.007825032230
         H            2.056268166176    -1.200467008074     0.000016115520     1.007825032230

  Basis Set: AUG-CC-PVTZ
    Blend: AUG-CC-PVTZ
  Basis Set: (AUG-CC-PVTZ AUX)
    Blend: AUG-CC-PVTZ-JKFIT
	 Reference Energy          =    -154.9226534341241290 [Eh]
	 Singles Energy            =      -0.0000000000000000 [Eh]
	 Same-Spin Energy          =      -0.1620206306219213 [Eh]
	 Opposite-Spin Energy      =      -0.5807638432449884 [Eh]
	 Correlation Energy        =      -0.7427844738669097 [Eh]
	 Total Energy              =    -155.6654379079910484 [Eh]

	 ================> DF-SCS-MP2 Energies <==================
	-----------------------------------------------------------
	 SCS Same-Spin Scale       =       0.3333333333333333 [-]
	 SCS Opposite-Spin Scale   =       1.2000000000000000 [-]
	 SCS Same-Spin Energy      =      -0.0540068768739737 [Eh]
	 SCS Opposite-Spin Energy  =      -0.6969166118939861 [Eh]
	 SCS Correlation Energy    =      -0.7509234887679599 [Eh]
	 SCS Total Energy          =    -155.6735769228920958 [Eh]
	-----------------------------------------------------------

  Dipole Moment: [D]
     X:     0.1493      Y:     0.0007      Z:     0.0000     Total:     0.1493

*** Psi4 exiting successfully. Buy a developer a beer!
