                               Psi4 1.3.2 release

  ==> Input File <==

--------------------------------------------------------------------------
#psi4
#
memory 32 gb

molecule  {
0 1
  C       -0.6059800    -0.4049620    -0.0000070
  C        0.4396958     0.2938414    -0.0000070
  C       -1.8474020     0.1098690     0.0000050
  C        1.8474010    -0.1098720     0.0000050
  H       -0.4725230    -1.4867800    -0.0000150
  H        0.4725330     1.4867860    -0.0000150
  H       -2.7279640    -0.5234220     0.0000090
  H       -2.0152630     1.1834510     0.0000160
  H        2.7279690     0.5234090     0.0000090
  H        2.0152500    -1.1834560     0.0000160
units angstrom
no_reorient  #important for SAPT in psi4, default
symmetry c1  #important for SAPT in psi4, default
}

set PROPERTIES_ORIGIN ["COM"]
properties('MP2/aug-cc-pvtz', properties = ['dipole'])
--------------------------------------------------------------------------

    Molecular point group: c1
  Charge       = 0
  Multiplicity = 1
  Basis Set: AUG-CC-PVTZ
    Blend: AUG-CC-PVTZ
  Basis Set: (AUG-CC-PVTZ AUX)
    Blend: AUG-CC-PVTZ-JKFIT

    Orbital Energies [Eh]
    ---------------------

    Doubly Occupied:

       1A    -11.250706     2A    -11.249096     3A    -11.240853
       4A    -11.227530     5A     -1.127255     6A     -0.978467
       7A     -0.861396     8A     -0.744740     9A     -0.653652
      10A     -0.638528    11A     -0.565681    12A     -0.538826
      13A     -0.474995    14A     -0.469482    15A     -0.291797

  @DF-RHF Final Energy:  -154.90948316697563

   => Energetics <=

    Nuclear Repulsion Energy =            104.8686678186622174
    One-Electron Energy =                -414.9302909373891453
    Two-Electron Energy =                 155.1521399517512805
    Total Energy =                       -154.9094831669756331
  Basis Set: (AUG-CC-PVTZ AUX)
    Blend: AUG-CC-PVTZ-RI
    Molecular point group: c1

    Geometry (in Angstrom), charge = 0, multiplicity = 1:

       Center              X                  Y                   Z               Mass
    ------------   -----------------  -----------------  -----------------  -----------------
         C           -0.569059870794    -0.380289094515    -0.000006484828    12.000000000000
         C            0.476615929206     0.318514305485    -0.000006484828    12.000000000000
         C           -1.810481870794     0.134541905485     0.000005515172    12.000000000000
         C            1.884321129206    -0.085199094515     0.000005515172    12.000000000000
         H           -0.435602870794    -1.462107094515    -0.000014484828     1.007825032230
         H            0.509453129206     1.511458905485    -0.000014484828     1.007825032230
         H           -2.691043870794    -0.498749094515     0.000009515172     1.007825032230
         H           -1.978342870794     1.208123905485     0.000016515172     1.007825032230
         H            2.764889129206     0.548081905485     0.000009515172     1.007825032230
         H            2.052170129206    -1.158783094515     0.000016515172     1.007825032230

  Basis Set: AUG-CC-PVTZ
    Blend: AUG-CC-PVTZ
  Basis Set: (AUG-CC-PVTZ AUX)
    Blend: AUG-CC-PVTZ-JKFIT
	 Reference Energy          =    -154.9094831669756331 [Eh]
	 Singles Energy            =      -0.0000000000000000 [Eh]
	 Same-Spin Energy          =      -0.1649302329725921 [Eh]
	 Opposite-Spin Energy      =      -0.5829001106176078 [Eh]
	 Correlation Energy        =      -0.7478303435901998 [Eh]
	 Total Energy              =    -155.6573135105658423 [Eh]

	 ================> DF-SCS-MP2 Energies <==================
	-----------------------------------------------------------
	 SCS Same-Spin Scale       =       0.3333333333333333 [-]
	 SCS Opposite-Spin Scale   =       1.2000000000000000 [-]
	 SCS Same-Spin Energy      =      -0.0549767443241974 [Eh]
	 SCS Opposite-Spin Energy  =      -0.6994801327411294 [Eh]
	 SCS Correlation Energy    =      -0.7544568770653268 [Eh]
	 SCS Total Energy          =    -155.6639400440409702 [Eh]
	-----------------------------------------------------------

  Dipole Moment: [D]
     X:    -0.1211      Y:    -0.0548      Z:     0.0000     Total:     0.1329

*** Psi4 exiting successfully. Buy a developer a beer!
