                               Psi4 1.3.2 release

  ==> Input File <==

--------------------------------------------------------------------------
#psi4
#
memory 32 gb

molecule  {
0 1
  C       -0.6059800    -0.4049620    -0.0000070
  C        0.6059820     0.4049670    -0.0000070
  C       -1.8474020     0.1098690     0.0000050
  C        1.8286771    -0.1528833     0.0000052
  H       -0.4725230    -1.4867800    -0.0000150
  H        0.4725330     1.4867860    -0.0000150
  H       -2.7279640    -0.5234220     0.0000090
  H       -2.0152630     1.1834510     0.0000160
  H        2.7279690     0.5234090     0.0000090
  H        2.0152500    -1.1834560     0.0000160
units angstrom
no_reorient  #important for SAPT in psi4, default
symmetry c1  #important for SAPT in psi4, default
}

set PROPERTIES_ORIGIN ["COM"]
properties('MP2/aug-cc-pvtz', properties = ['dipole'])
--------------------------------------------------------------------------

    Molecular point group: c1
  Charge       = 0
  Multiplicity = 1
  Basis Set: AUG-CC-PVTZ
    Blend: AUG-CC-PVTZ
  Basis Set: (AUG-CC-PVTZ AUX)
    Blend: AUG-CC-PVTZ-JKFIT

    Orbital Energies [Eh]
    ---------------------

    Doubly Occupied:

       1A    -11.242947     2A    -11.241157     3A    -11.232470
       4A    -11.230932     5A     -1.091938     6A     -0.998369
       7A     -0.826784     8A     -0.757696     9A     -0.642948
      10A     -0.635324    11A     -0.559402    12A     -0.543777
      13A     -0.494596    14A     -0.444080    15A     -0.322611

  @DF-RHF Final Energy:  -154.97543249614472

   => Energetics <=

    Nuclear Repulsion Energy =            103.6236481212956875
    One-Electron Energy =                -412.6680993888332978
    Two-Electron Energy =                 154.0690187713929049
    Total Energy =                       -154.9754324961447196
  Basis Set: (AUG-CC-PVTZ AUX)
    Blend: AUG-CC-PVTZ-RI
    Molecular point group: c1

    Geometry (in Angstrom), charge = 0, multiplicity = 1:

       Center              X                  Y                   Z               Mass
    ------------   -----------------  -----------------  -----------------  -----------------
         C           -0.601823007172    -0.395412456648    -0.000006529233    12.000000000000
         C            0.610138992828     0.414516543352    -0.000006529233    12.000000000000
         C           -1.843245007172     0.119418543352     0.000005470767    12.000000000000
         C            1.832834092828    -0.143333756648     0.000005670767    12.000000000000
         H           -0.468366007172    -1.477230456648    -0.000014529233     1.007825032230
         H            0.476689992828     1.496335543352    -0.000014529233     1.007825032230
         H           -2.723807007172    -0.513872456648     0.000009470767     1.007825032230
         H           -2.011106007172     1.193000543352     0.000016470767     1.007825032230
         H            2.732125992828     0.532958543352     0.000009470767     1.007825032230
         H            2.019406992828    -1.173906456648     0.000016470767     1.007825032230

  Basis Set: AUG-CC-PVTZ
    Blend: AUG-CC-PVTZ
  Basis Set: (AUG-CC-PVTZ AUX)
    Blend: AUG-CC-PVTZ-JKFIT
	 Reference Energy          =    -154.9754324961447196 [Eh]
	 Singles Energy            =      -0.0000000000000000 [Eh]
	 Same-Spin Energy          =      -0.1592490964759039 [Eh]
	 Opposite-Spin Energy      =      -0.5735287215116706 [Eh]
	 Correlation Energy        =      -0.7327778179875745 [Eh]
	 Total Energy              =    -155.7082103141322875 [Eh]

	 ================> DF-SCS-MP2 Energies <==================
	-----------------------------------------------------------
	 SCS Same-Spin Scale       =       0.3333333333333333 [-]
	 SCS Opposite-Spin Scale   =       1.2000000000000000 [-]
	 SCS Same-Spin Energy      =      -0.0530830321586346 [Eh]
	 SCS Opposite-Spin Energy  =      -0.6882344658140046 [Eh]
	 SCS Correlation Energy    =      -0.7413174979726392 [Eh]
	 SCS Total Energy          =    -155.7167499941173503 [Eh]
	-----------------------------------------------------------

  Dipole Moment: [D]
     X:     0.0078      Y:    -0.0195      Z:     0.0000     Total:     0.0210

*** Psi4 exiting successfully. Buy a developer a beer!
