                               Psi4 1.3.2 release

  ==> Input File <==

--------------------------------------------------------------------------
#psi4
#
memory 32 gb

molecule  {
0 1
  C       -0.6059800    -0.4049620    -0.0000070
  C        0.5916622     0.4259953    -0.0000067
  C       -1.8474020     0.1098690     0.0000050
  C        1.8474010    -0.1098720     0.0000050
  H       -0.4725230    -1.4867800    -0.0000150
  H        0.4725330     1.4867860    -0.0000150
  H       -2.7279640    -0.5234220     0.0000090
  H       -2.0152630     1.1834510     0.0000160
  H        2.7279690     0.5234090     0.0000090
  H        2.0152500    -1.1834560     0.0000160
units angstrom
no_reorient  #important for SAPT in psi4, default
symmetry c1  #important for SAPT in psi4, default
}

set PROPERTIES_ORIGIN ["COM"]
properties('MP2/aug-cc-pvtz', properties = ['dipole'])
--------------------------------------------------------------------------

    Molecular point group: c1
  Charge       = 0
  Multiplicity = 1
  Basis Set: AUG-CC-PVTZ
    Blend: AUG-CC-PVTZ
  Basis Set: (AUG-CC-PVTZ AUX)
    Blend: AUG-CC-PVTZ-JKFIT

    Orbital Energies [Eh]
    ---------------------

    Doubly Occupied:

       1A    -11.243775     2A    -11.242259     3A    -11.235052
       4A    -11.231484     5A     -1.089994     6A     -0.995503
       7A     -0.827568     8A     -0.759014     9A     -0.642659
      10A     -0.635702    11A     -0.554230    12A     -0.546812
      13A     -0.500868    14A     -0.441928    15A     -0.319747

  @DF-RHF Final Energy:  -154.97637893874031

   => Energetics <=

    Nuclear Repulsion Energy =            103.3699880081384208
    One-Electron Energy =                -412.1595450391112081
    Two-Electron Energy =                 153.8131780922324765
    Total Energy =                       -154.9763789387403108
  Basis Set: (AUG-CC-PVTZ AUX)
    Blend: AUG-CC-PVTZ-RI
    Molecular point group: c1

    Geometry (in Angstrom), charge = 0, multiplicity = 1:

       Center              X                  Y                   Z               Mass
    ------------   -----------------  -----------------  -----------------  -----------------
         C           -0.602800845881    -0.409631116485    -0.000006551436    12.000000000000
         C            0.594841354119     0.421326183515    -0.000006251436    12.000000000000
         C           -1.844222845881     0.105199883515     0.000005448564    12.000000000000
         C            1.850580154119    -0.114541116485     0.000005448564    12.000000000000
         H           -0.469343845881    -1.491449116485    -0.000014551436     1.007825032230
         H            0.475712154119     1.482116883515    -0.000014551436     1.007825032230
         H           -2.724784845881    -0.528091116485     0.000009448564     1.007825032230
         H           -2.012083845881     1.178781883515     0.000016448564     1.007825032230
         H            2.731148154119     0.518739883515     0.000009448564     1.007825032230
         H            2.018429154119    -1.188125116485     0.000016448564     1.007825032230

  Basis Set: AUG-CC-PVTZ
    Blend: AUG-CC-PVTZ
  Basis Set: (AUG-CC-PVTZ AUX)
    Blend: AUG-CC-PVTZ-JKFIT
	 Reference Energy          =    -154.9763789387403108 [Eh]
	 Singles Energy            =      -0.0000000000000000 [Eh]
	 Same-Spin Energy          =      -0.1593861476766132 [Eh]
	 Opposite-Spin Energy      =      -0.5739457606541891 [Eh]
	 Correlation Energy        =      -0.7333319083308023 [Eh]
	 Total Energy              =    -155.7097108470711078 [Eh]

	 ================> DF-SCS-MP2 Energies <==================
	-----------------------------------------------------------
	 SCS Same-Spin Scale       =       0.3333333333333333 [-]
	 SCS Opposite-Spin Scale   =       1.2000000000000000 [-]
	 SCS Same-Spin Energy      =      -0.0531287158922044 [Eh]
	 SCS Opposite-Spin Energy  =      -0.6887349127850270 [Eh]
	 SCS Correlation Energy    =      -0.7418636286772313 [Eh]
	 SCS Total Energy          =    -155.7182425674175477 [Eh]
	-----------------------------------------------------------

  Dipole Moment: [D]
     X:    -0.0030      Y:     0.0049      Z:     0.0000     Total:     0.0057

*** Psi4 exiting successfully. Buy a developer a beer!
