                               Psi4 1.3.2 release

  ==> Input File <==

--------------------------------------------------------------------------
#psi4
#
memory 32 gb

molecule  {
0 1
  C       -0.6059800    -0.4049620    -0.0000070
  C        0.6059820     0.4049670    -0.0000070
  C       -1.8474020     0.1098690     0.0000050
  C        1.8802903    -0.0220209     0.0000047
  H       -0.4725230    -1.4867800    -0.0000150
  H        0.4725330     1.4867860    -0.0000150
  H       -2.7279640    -0.5234220     0.0000090
  H       -2.0152630     1.1834510     0.0000160
  H        2.7279690     0.5234090     0.0000090
  H        2.0152500    -1.1834560     0.0000160
units angstrom
no_reorient  #important for SAPT in psi4, default
symmetry c1  #important for SAPT in psi4, default
}

set PROPERTIES_ORIGIN ["COM"]
properties('MP2/aug-cc-pvtz', properties = ['dipole'])
--------------------------------------------------------------------------

    Molecular point group: c1
  Charge       = 0
  Multiplicity = 1
  Basis Set: AUG-CC-PVTZ
    Blend: AUG-CC-PVTZ
  Basis Set: (AUG-CC-PVTZ AUX)
    Blend: AUG-CC-PVTZ-JKFIT

    Orbital Energies [Eh]
    ---------------------

    Doubly Occupied:

       1A    -11.245056     2A    -11.242974     3A    -11.234894
       4A    -11.232956     5A     -1.090878     6A     -1.001480
       7A     -0.833335     8A     -0.752541     9A     -0.658319
      10A     -0.628466    11A     -0.570224    12A     -0.532139
      13A     -0.489395    14A     -0.444280    15A     -0.324874

  @DF-RHF Final Energy:  -154.96754284925143

   => Energetics <=

    Nuclear Repulsion Energy =            103.3510208868733145
    One-Electron Energy =                -412.0735062621899942
    Two-Electron Energy =                 153.7549425260652640
    Total Energy =                       -154.9675428492514300
  Basis Set: (AUG-CC-PVTZ AUX)
    Blend: AUG-CC-PVTZ-RI
    Molecular point group: c1

    Geometry (in Angstrom), charge = 0, multiplicity = 1:

       Center              X                  Y                   Z               Mass
    ------------   -----------------  -----------------  -----------------  -----------------
         C           -0.613282643613    -0.424467727933    -0.000006418219    12.000000000000
         C            0.598679356387     0.385461272067    -0.000006418219    12.000000000000
         C           -1.854704643613     0.090363272067     0.000005581781    12.000000000000
         C            1.872987656387    -0.041526627933     0.000005281781    12.000000000000
         H           -0.479825643613    -1.506285727933    -0.000014418219     1.007825032230
         H            0.465230356387     1.467280272067    -0.000014418219     1.007825032230
         H           -2.735266643613    -0.542927727933     0.000009581781     1.007825032230
         H           -2.022565643613     1.163945272067     0.000016581781     1.007825032230
         H            2.720666356387     0.503903272067     0.000009581781     1.007825032230
         H            2.007947356387    -1.202961727933     0.000016581781     1.007825032230

  Basis Set: AUG-CC-PVTZ
    Blend: AUG-CC-PVTZ
  Basis Set: (AUG-CC-PVTZ AUX)
    Blend: AUG-CC-PVTZ-JKFIT
	 Reference Energy          =    -154.9675428492514300 [Eh]
	 Singles Energy            =      -0.0000000000000000 [Eh]
	 Same-Spin Energy          =      -0.1593322858987241 [Eh]
	 Opposite-Spin Energy      =      -0.5739776293902679 [Eh]
	 Correlation Energy        =      -0.7333099152889919 [Eh]
	 Total Energy              =    -155.7008527645404286 [Eh]

	 ================> DF-SCS-MP2 Energies <==================
	-----------------------------------------------------------
	 SCS Same-Spin Scale       =       0.3333333333333333 [-]
	 SCS Opposite-Spin Scale   =       1.2000000000000000 [-]
	 SCS Same-Spin Energy      =      -0.0531107619662414 [Eh]
	 SCS Opposite-Spin Energy  =      -0.6887731552683214 [Eh]
	 SCS Correlation Energy    =      -0.7418839172345627 [Eh]
	 SCS Total Energy          =    -155.7094267664859899 [Eh]
	-----------------------------------------------------------

  Dipole Moment: [D]
     X:    -0.0568      Y:     0.0556      Z:     0.0000     Total:     0.0794

*** Psi4 exiting successfully. Buy a developer a beer!
