                               Psi4 1.4a3.dev225

  ==> Input File <==

--------------------------------------------------------------------------
#psi4
#
memory 32 gb

molecule  {
0 1
  C       -0.6059850    -0.4050260    -0.0000030
  C        0.6059860     0.4050280    -0.0000030
  C       -1.8012229     0.0907103     0.0000028
  C        1.8474080    -0.1098670     0.0000030
  H       -0.4724680    -1.4868200    -0.0000080
  H        0.4724700     1.4868220    -0.0000080
  H       -2.7280470    -0.5233260     0.0000030
  H       -2.0152570     1.1834530     0.0000060
  H        2.7280490     0.5233230     0.0000030
  H        2.0152540    -1.1834540     0.0000060
units angstrom
no_reorient  #important for SAPT in psi4, default
symmetry c1  #important for SAPT in psi4, default
}

set PROPERTIES_ORIGIN ["COM"]
properties('MP2/aug-cc-pvtz', properties = ['dipole'])
--------------------------------------------------------------------------

    Molecular point group: c1
  Charge       = 0
  Multiplicity = 1
  Basis Set: AUG-CC-PVTZ
    Blend: AUG-CC-PVTZ
  Basis Set: (AUG-CC-PVTZ AUX)
    Blend: AUG-CC-PVTZ-JKFIT

    Orbital Energies [Eh]
    ---------------------

    Doubly Occupied:

       1A    -11.241517     2A    -11.234210     3A    -11.231135
       4A    -11.229346     5A     -1.097448     6A     -1.004642
       7A     -0.822534     8A     -0.753228     9A     -0.647169
      10A     -0.633647    11A     -0.562991    12A     -0.537071
      13A     -0.487391    14A     -0.449898    15A     -0.329187

  @DF-RHF Final Energy:  -154.97581290899876

   => Energetics <=

    Nuclear Repulsion Energy =            104.1880539975944089
    One-Electron Energy =                -413.8049046542399765
    Two-Electron Energy =                 154.6410377476468057
    Total Energy =                       -154.9758129089987619
  Basis Set: (AUG-CC-PVTZ AUX)
    Blend: AUG-CC-PVTZ-RI
    Molecular point group: c1

    Geometry (in Angstrom), charge = 0, multiplicity = 1:

       Center              X                  Y                   Z               Mass
    ------------   -----------------  -----------------  -----------------  -----------------
         C           -0.616239680529    -0.400773060383    -0.000002992889    12.000000000000
         C            0.595731319471     0.409280939617    -0.000002992889    12.000000000000
         C           -1.811477580529     0.094963239617     0.000002807111    12.000000000000
         C            1.837153319471    -0.105614060383     0.000003007111    12.000000000000
         H           -0.482722680529    -1.482567060383    -0.000007992889     1.007825032230
         H            0.462215319471     1.491074939617    -0.000007992889     1.007825032230
         H           -2.738301680529    -0.519073060383     0.000003007111     1.007825032230
         H           -2.025511680529     1.187705939617     0.000006007111     1.007825032230
         H            2.717794319471     0.527575939617     0.000003007111     1.007825032230
         H            2.004999319471    -1.179201060383     0.000006007111     1.007825032230

  Basis Set: AUG-CC-PVTZ
    Blend: AUG-CC-PVTZ
  Basis Set: (AUG-CC-PVTZ AUX)
    Blend: AUG-CC-PVTZ-JKFIT
	 Reference Energy          =    -154.9758129089987619 [Eh]
	 Singles Energy            =      -0.0000000000000000 [Eh]
	 Same-Spin Energy          =      -0.1589187550056332 [Eh]
	 Opposite-Spin Energy      =      -0.5724466092531765 [Eh]
	 Correlation Energy        =      -0.7313653642588097 [Eh]
	 Total Energy              =    -155.7071782732575684 [Eh]

	 ================> DF-SCS-MP2 Energies <==================
	-----------------------------------------------------------
	 SCS Same-Spin Scale       =       0.3333333333333333 [-]
	 SCS Opposite-Spin Scale   =       1.2000000000000000 [-]
	 SCS Same-Spin Energy      =      -0.0529729183352111 [Eh]
	 SCS Opposite-Spin Energy  =      -0.6869359311038118 [Eh]
	 SCS Correlation Energy    =      -0.7399088494390229 [Eh]
	 SCS Total Energy          =    -155.7157217584377804 [Eh]
	-----------------------------------------------------------

  Dipole Moment: [D]
     X:    -0.0337      Y:    -0.0041      Z:    -0.0000     Total:     0.0339

*** Psi4 exiting successfully. Buy a developer a beer!
