                               Psi4 1.3.2 release

  ==> Input File <==

--------------------------------------------------------------------------
#psi4
#
memory 32 gb

molecule  {
0 1
  C       -0.6059800    -0.4049620    -0.0000070
  C        0.6449194     0.4903099    -0.0000071
  C       -1.8474020     0.1098690     0.0000050
  C        1.8474010    -0.1098720     0.0000050
  H       -0.4725230    -1.4867800    -0.0000150
  H        0.4725330     1.4867860    -0.0000150
  H       -2.7279640    -0.5234220     0.0000090
  H       -2.0152630     1.1834510     0.0000160
  H        2.7279690     0.5234090     0.0000090
  H        2.0152500    -1.1834560     0.0000160
units angstrom
no_reorient  #important for SAPT in psi4, default
symmetry c1  #important for SAPT in psi4, default
}

set PROPERTIES_ORIGIN ["COM"]
properties('MP2/aug-cc-pvtz', properties = ['dipole'])
--------------------------------------------------------------------------

    Molecular point group: c1
  Charge       = 0
  Multiplicity = 1
  Basis Set: AUG-CC-PVTZ
    Blend: AUG-CC-PVTZ
  Basis Set: (AUG-CC-PVTZ AUX)
    Blend: AUG-CC-PVTZ-JKFIT

    Orbital Energies [Eh]
    ---------------------

    Doubly Occupied:

       1A    -11.245711     2A    -11.242154     3A    -11.232858
       4A    -11.228583     5A     -1.081724     6A     -0.999181
       7A     -0.819007     8A     -0.766652     9A     -0.640829
      10A     -0.633005    11A     -0.571980    12A     -0.544400
      13A     -0.486363    14A     -0.434467    15A     -0.327394

  @DF-RHF Final Energy:  -154.96927856018303

   => Energetics <=

    Nuclear Repulsion Energy =            102.8270265036728972
    One-Electron Energy =                -411.0839980375849905
    Two-Electron Energy =                 153.2876929737290368
    Total Energy =                       -154.9692785601830280
  Basis Set: (AUG-CC-PVTZ AUX)
    Blend: AUG-CC-PVTZ-RI
    Molecular point group: c1

    Geometry (in Angstrom), charge = 0, multiplicity = 1:

       Center              X                  Y                   Z               Mass
    ------------   -----------------  -----------------  -----------------  -----------------
         C           -0.614625498293    -0.423910834346    -0.000006462625    12.000000000000
         C            0.636273901707     0.471361065654    -0.000006562625    12.000000000000
         C           -1.856047498293     0.090920165654     0.000005537375    12.000000000000
         C            1.838755501707    -0.128820834346     0.000005537375    12.000000000000
         H           -0.481168498293    -1.505728834346    -0.000014462625     1.007825032230
         H            0.463887501707     1.467837165654    -0.000014462625     1.007825032230
         H           -2.736609498293    -0.542370834346     0.000009537375     1.007825032230
         H           -2.023908498293     1.164502165654     0.000016537375     1.007825032230
         H            2.719323501707     0.504460165654     0.000009537375     1.007825032230
         H            2.006604501707    -1.202404834346     0.000016537375     1.007825032230

  Basis Set: AUG-CC-PVTZ
    Blend: AUG-CC-PVTZ
  Basis Set: (AUG-CC-PVTZ AUX)
    Blend: AUG-CC-PVTZ-JKFIT
	 Reference Energy          =    -154.9692785601830280 [Eh]
	 Singles Energy            =      -0.0000000000000000 [Eh]
	 Same-Spin Energy          =      -0.1584216498930720 [Eh]
	 Opposite-Spin Energy      =      -0.5730536097596537 [Eh]
	 Correlation Energy        =      -0.7314752596527258 [Eh]
	 Total Energy              =    -155.7007538198357679 [Eh]

	 ================> DF-SCS-MP2 Energies <==================
	-----------------------------------------------------------
	 SCS Same-Spin Scale       =       0.3333333333333333 [-]
	 SCS Opposite-Spin Scale   =       1.2000000000000000 [-]
	 SCS Same-Spin Energy      =      -0.0528072166310240 [Eh]
	 SCS Opposite-Spin Energy  =      -0.6876643317115844 [Eh]
	 SCS Correlation Energy    =      -0.7404715483426084 [Eh]
	 SCS Total Energy          =    -155.7097501085256397 [Eh]
	-----------------------------------------------------------

  Dipole Moment: [D]
     X:     0.0578      Y:     0.0159      Z:     0.0000     Total:     0.0599

*** Psi4 exiting successfully. Buy a developer a beer!
