                               Psi4 1.3.2 release

  ==> Input File <==

--------------------------------------------------------------------------
#psi4
#
memory 32 gb

molecule  {
0 1
  C       -0.6059800    -0.4049620    -0.0000070
  C        0.7722682     0.5160926    -0.0000070
  C       -1.8474020     0.1098690     0.0000050
  C        1.8474010    -0.1098720     0.0000050
  H       -0.4725230    -1.4867800    -0.0000150
  H        0.4725330     1.4867860    -0.0000150
  H       -2.7279640    -0.5234220     0.0000090
  H       -2.0152630     1.1834510     0.0000160
  H        2.7279690     0.5234090     0.0000090
  H        2.0152500    -1.1834560     0.0000160
units angstrom
no_reorient  #important for SAPT in psi4, default
symmetry c1  #important for SAPT in psi4, default
}

set PROPERTIES_ORIGIN ["COM"]
properties('MP2/aug-cc-pvtz', properties = ['dipole'])
--------------------------------------------------------------------------

    Molecular point group: c1
  Charge       = 0
  Multiplicity = 1
  Basis Set: AUG-CC-PVTZ
    Blend: AUG-CC-PVTZ
  Basis Set: (AUG-CC-PVTZ AUX)
    Blend: AUG-CC-PVTZ-JKFIT

    Orbital Energies [Eh]
    ---------------------

    Doubly Occupied:

       1A    -11.246480     2A    -11.236743     3A    -11.226129
       4A    -11.219475     5A     -1.086558     6A     -1.010611
       7A     -0.806583     8A     -0.762124     9A     -0.648223
      10A     -0.630291    11A     -0.591662    12A     -0.541115
      13A     -0.446282    14A     -0.438006    15A     -0.345701

  @DF-RHF Final Energy:  -154.94288433402144

   => Energetics <=

    Nuclear Repulsion Energy =            102.6970900381499092
    One-Electron Energy =                -410.8079845850219272
    Two-Electron Energy =                 153.1680102128505894
    Total Energy =                       -154.9428843340214428
  Basis Set: (AUG-CC-PVTZ AUX)
    Blend: AUG-CC-PVTZ-RI
    Molecular point group: c1

    Geometry (in Angstrom), charge = 0, multiplicity = 1:

       Center              X                  Y                   Z               Mass
    ------------   -----------------  -----------------  -----------------  -----------------
         C           -0.642900647854    -0.429635346069    -0.000006484828    12.000000000000
         C            0.735347552146     0.491419253931    -0.000006484828    12.000000000000
         C           -1.884322647854     0.085195653931     0.000005515172    12.000000000000
         C            1.810480352146    -0.134545346069     0.000005515172    12.000000000000
         H           -0.509443647854    -1.511453346069    -0.000014484828     1.007825032230
         H            0.435612352146     1.462112653931    -0.000014484828     1.007825032230
         H           -2.764884647854    -0.548095346069     0.000009515172     1.007825032230
         H           -2.052183647854     1.158777653931     0.000016515172     1.007825032230
         H            2.691048352146     0.498735653931     0.000009515172     1.007825032230
         H            1.978329352146    -1.208129346069     0.000016515172     1.007825032230

  Basis Set: AUG-CC-PVTZ
    Blend: AUG-CC-PVTZ
  Basis Set: (AUG-CC-PVTZ AUX)
    Blend: AUG-CC-PVTZ-JKFIT
	 Reference Energy          =    -154.9428843340214428 [Eh]
	 Singles Energy            =      -0.0000000000000000 [Eh]
	 Same-Spin Energy          =      -0.1576277289300624 [Eh]
	 Opposite-Spin Energy      =      -0.5715963296912343 [Eh]
	 Correlation Energy        =      -0.7292240586212968 [Eh]
	 Total Energy              =    -155.6721083926427411 [Eh]

	 ================> DF-SCS-MP2 Energies <==================
	-----------------------------------------------------------
	 SCS Same-Spin Scale       =       0.3333333333333333 [-]
	 SCS Opposite-Spin Scale   =       1.2000000000000000 [-]
	 SCS Same-Spin Energy      =      -0.0525425763100208 [Eh]
	 SCS Opposite-Spin Energy  =      -0.6859155956294811 [Eh]
	 SCS Correlation Energy    =      -0.7384581719395019 [Eh]
	 SCS Total Energy          =    -155.6813425059609415 [Eh]
	-----------------------------------------------------------

  Dipole Moment: [D]
     X:     0.1811      Y:     0.0475      Z:     0.0000     Total:     0.1872

*** Psi4 exiting successfully. Buy a developer a beer!
