                               Psi4 1.3.2 release

  ==> Input File <==

--------------------------------------------------------------------------
#psi4
#
memory 32 gb

molecule  {
0 1
  C       -0.6059800    -0.4049620    -0.0000070
  C        0.6665980     0.5319103    -0.0000071
  C       -1.8474020     0.1098690     0.0000050
  C        1.8474010    -0.1098720     0.0000050
  H       -0.4725230    -1.4867800    -0.0000150
  H        0.4725330     1.4867860    -0.0000150
  H       -2.7279640    -0.5234220     0.0000090
  H       -2.0152630     1.1834510     0.0000160
  H        2.7279690     0.5234090     0.0000090
  H        2.0152500    -1.1834560     0.0000160
units angstrom
no_reorient  #important for SAPT in psi4, default
symmetry c1  #important for SAPT in psi4, default
}

set PROPERTIES_ORIGIN ["COM"]
properties('MP2/aug-cc-pvtz', properties = ['dipole'])
--------------------------------------------------------------------------

    Molecular point group: c1
  Charge       = 0
  Multiplicity = 1
  Basis Set: AUG-CC-PVTZ
    Blend: AUG-CC-PVTZ
  Basis Set: (AUG-CC-PVTZ AUX)
    Blend: AUG-CC-PVTZ-JKFIT

    Orbital Energies [Eh]
    ---------------------

    Doubly Occupied:

       1A    -11.246957     2A    -11.242695     3A    -11.234031
       4A    -11.226998     5A     -1.077879     6A     -0.999401
       7A     -0.818770     8A     -0.770859     9A     -0.640420
      10A     -0.631392    11A     -0.582005    12A     -0.542769
      13A     -0.476558    14A     -0.430399    15A     -0.329625

  @DF-RHF Final Energy:  -154.95694363352180

   => Energetics <=

    Nuclear Repulsion Energy =            102.4962232562056244
    One-Electron Energy =                -410.4048177281154608
    Two-Electron Energy =                 152.9516508383880478
    Total Energy =                       -154.9569436335218029
  Basis Set: (AUG-CC-PVTZ AUX)
    Blend: AUG-CC-PVTZ-RI
    Molecular point group: c1

    Geometry (in Angstrom), charge = 0, multiplicity = 1:

       Center              X                  Y                   Z               Mass
    ------------   -----------------  -----------------  -----------------  -----------------
         C           -0.619438780062    -0.433147337020    -0.000006462625    12.000000000000
         C            0.653139219938     0.503724962980    -0.000006562625    12.000000000000
         C           -1.860860780062     0.081683662980     0.000005537375    12.000000000000
         C            1.833942219938    -0.138057337020     0.000005537375    12.000000000000
         H           -0.485981780062    -1.514965337020    -0.000014462625     1.007825032230
         H            0.459074219938     1.458600662980    -0.000014462625     1.007825032230
         H           -2.741422780062    -0.551607337020     0.000009537375     1.007825032230
         H           -2.028721780062     1.155265662980     0.000016537375     1.007825032230
         H            2.714510219938     0.495223662980     0.000009537375     1.007825032230
         H            2.001791219938    -1.211641337020     0.000016537375     1.007825032230

  Basis Set: AUG-CC-PVTZ
    Blend: AUG-CC-PVTZ
  Basis Set: (AUG-CC-PVTZ AUX)
    Blend: AUG-CC-PVTZ-JKFIT
	 Reference Energy          =    -154.9569436335218029 [Eh]
	 Singles Energy            =      -0.0000000000000000 [Eh]
	 Same-Spin Energy          =      -0.1582368710832376 [Eh]
	 Opposite-Spin Energy      =      -0.5733824716745849 [Eh]
	 Correlation Energy        =      -0.7316193427578226 [Eh]
	 Total Energy              =    -155.6885629762796270 [Eh]

	 ================> DF-SCS-MP2 Energies <==================
	-----------------------------------------------------------
	 SCS Same-Spin Scale       =       0.3333333333333333 [-]
	 SCS Opposite-Spin Scale   =       1.2000000000000000 [-]
	 SCS Same-Spin Energy      =      -0.0527456236944125 [Eh]
	 SCS Opposite-Spin Energy  =      -0.6880589660095019 [Eh]
	 SCS Correlation Energy    =      -0.7408045897039144 [Eh]
	 SCS Total Energy          =    -155.6977482232257159 [Eh]
	-----------------------------------------------------------

  Dipole Moment: [D]
     X:     0.0925      Y:     0.0179      Z:     0.0000     Total:     0.0942

*** Psi4 exiting successfully. Buy a developer a beer!
