                               Psi4 1.3.2 release

  ==> Input File <==

--------------------------------------------------------------------------
#psi4
#
memory 32 gb

molecule  {
0 1
  C       -0.6059800    -0.4049620    -0.0000070
  C        0.6059820     0.4049670    -0.0000070
  C       -1.8474020     0.1098690     0.0000050
  C        1.7867850    -0.2368153     0.0000054
  H       -0.4725230    -1.4867800    -0.0000150
  H        0.4725330     1.4867860    -0.0000150
  H       -2.7279640    -0.5234220     0.0000090
  H       -2.0152630     1.1834510     0.0000160
  H        2.7279690     0.5234090     0.0000090
  H        2.0152500    -1.1834560     0.0000160
units angstrom
no_reorient  #important for SAPT in psi4, default
symmetry c1  #important for SAPT in psi4, default
}

set PROPERTIES_ORIGIN ["COM"]
properties('MP2/aug-cc-pvtz', properties = ['dipole'])
--------------------------------------------------------------------------

    Molecular point group: c1
  Charge       = 0
  Multiplicity = 1
  Basis Set: AUG-CC-PVTZ
    Blend: AUG-CC-PVTZ
  Basis Set: (AUG-CC-PVTZ AUX)
    Blend: AUG-CC-PVTZ-JKFIT

    Orbital Energies [Eh]
    ---------------------

    Doubly Occupied:

       1A    -11.245645     2A    -11.239664     3A    -11.234865
       4A    -11.229105     5A     -1.094344     6A     -0.997920
       7A     -0.829570     8A     -0.764521     9A     -0.654205
      10A     -0.627813    11A     -0.572425    12A     -0.530869
      13A     -0.483659    14A     -0.445472    15A     -0.322410

  @DF-RHF Final Energy:  -154.95433997068446

   => Energetics <=

    Nuclear Repulsion Energy =            103.8814001636768438
    One-Electron Energy =                -413.1265060559214817
    Two-Electron Energy =                 154.2907659215601655
    Total Energy =                       -154.9543399706844582
  Basis Set: (AUG-CC-PVTZ AUX)
    Blend: AUG-CC-PVTZ-RI
    Molecular point group: c1

    Geometry (in Angstrom), charge = 0, multiplicity = 1:

       Center              X                  Y                   Z               Mass
    ------------   -----------------  -----------------  -----------------  -----------------
         C           -0.592521738586    -0.376777103564    -0.000006573639    12.000000000000
         C            0.619440261414     0.433151896436    -0.000006573639    12.000000000000
         C           -1.833943738586     0.138053896436     0.000005426361    12.000000000000
         C            1.800243261414    -0.208630403564     0.000005826361    12.000000000000
         H           -0.459064738586    -1.458595103564    -0.000014573639     1.007825032230
         H            0.485991261414     1.514970896436    -0.000014573639     1.007825032230
         H           -2.714505738586    -0.495237103564     0.000009426361     1.007825032230
         H           -2.001804738586     1.211635896436     0.000016426361     1.007825032230
         H            2.741427261414     0.551593896436     0.000009426361     1.007825032230
         H            2.028708261414    -1.155271103564     0.000016426361     1.007825032230

  Basis Set: AUG-CC-PVTZ
    Blend: AUG-CC-PVTZ
  Basis Set: (AUG-CC-PVTZ AUX)
    Blend: AUG-CC-PVTZ-JKFIT
	 Reference Energy          =    -154.9543399706844582 [Eh]
	 Singles Energy            =      -0.0000000000000000 [Eh]
	 Same-Spin Energy          =      -0.1595156370854702 [Eh]
	 Opposite-Spin Energy      =      -0.5744867900018890 [Eh]
	 Correlation Energy        =      -0.7340024270873591 [Eh]
	 Total Energy              =    -155.6883423977718053 [Eh]

	 ================> DF-SCS-MP2 Energies <==================
	-----------------------------------------------------------
	 SCS Same-Spin Scale       =       0.3333333333333333 [-]
	 SCS Opposite-Spin Scale   =       1.2000000000000000 [-]
	 SCS Same-Spin Energy      =      -0.0531718790284901 [Eh]
	 SCS Opposite-Spin Energy  =      -0.6893841480022668 [Eh]
	 SCS Correlation Energy    =      -0.7425560270307568 [Eh]
	 SCS Total Energy          =    -155.6968959977152167 [Eh]
	-----------------------------------------------------------

  Dipole Moment: [D]
     X:    -0.0197      Y:    -0.0474      Z:     0.0000     Total:     0.0513

*** Psi4 exiting successfully. Buy a developer a beer!
