                               Psi4 1.4a3.dev225

  ==> Input File <==

--------------------------------------------------------------------------
#psi4
#
memory 32 gb

molecule  {
0 1
  C       -0.6059850    -0.4050260    -0.0000030
  C        0.6059860     0.4050280    -0.0000030
  C       -1.8474080     0.1098660     0.0000030
  C        1.8474080    -0.1098670     0.0000030
  H       -0.4700182    -1.5066694    -0.0000081
  H        0.4724700     1.4868220    -0.0000080
  H       -2.7280470    -0.5233260     0.0000030
  H       -2.0152570     1.1834530     0.0000060
  H        2.7280490     0.5233230     0.0000030
  H        2.0152540    -1.1834540     0.0000060
units angstrom
no_reorient  #important for SAPT in psi4, default
symmetry c1  #important for SAPT in psi4, default
}

set PROPERTIES_ORIGIN ["COM"]
properties('MP2/aug-cc-pvtz', properties = ['dipole'])
--------------------------------------------------------------------------

    Molecular point group: c1
  Charge       = 0
  Multiplicity = 1
  Basis Set: AUG-CC-PVTZ
    Blend: AUG-CC-PVTZ
  Basis Set: (AUG-CC-PVTZ AUX)
    Blend: AUG-CC-PVTZ-JKFIT

    Orbital Energies [Eh]
    ---------------------

    Doubly Occupied:

       1A    -11.244745     2A    -11.242464     3A    -11.232252
       4A    -11.232190     5A     -1.090809     6A     -0.998956
       7A     -0.827490     8A     -0.752491     9A     -0.644284
      10A     -0.634228    11A     -0.557339    12A     -0.544264
      13A     -0.494854    14A     -0.443969    15A     -0.323187

  @DF-RHF Final Energy:  -154.97746684070086

   => Energetics <=

    Nuclear Repulsion Energy =            103.4341475482819561
    One-Electron Energy =                -412.2961848823495643
    Two-Electron Energy =                 153.8845704933667662
    Total Energy =                       -154.9774668407008562
  Basis Set: (AUG-CC-PVTZ AUX)
    Blend: AUG-CC-PVTZ-RI
    Molecular point group: c1

    Geometry (in Angstrom), charge = 0, multiplicity = 1:

       Center              X                  Y                   Z               Mass
    ------------   -----------------  -----------------  -----------------  -----------------
         C           -0.606030922621    -0.404656048730    -0.000003035430    12.000000000000
         C            0.605940077379     0.405397951270    -0.000003035430    12.000000000000
         C           -1.847453922621     0.110235951270     0.000002964570    12.000000000000
         C            1.847362077379    -0.109497048730     0.000002964570    12.000000000000
         H           -0.470064122621    -1.506299448730    -0.000008135430     1.007825032230
         H            0.472424077379     1.487191951270    -0.000008035430     1.007825032230
         H           -2.728092922621    -0.522956048730     0.000002964570     1.007825032230
         H           -2.015302922621     1.183822951270     0.000005964570     1.007825032230
         H            2.728003077379     0.523692951270     0.000002964570     1.007825032230
         H            2.015208077379    -1.183084048730     0.000005964570     1.007825032230

  Basis Set: AUG-CC-PVTZ
    Blend: AUG-CC-PVTZ
  Basis Set: (AUG-CC-PVTZ AUX)
    Blend: AUG-CC-PVTZ-JKFIT
	 Reference Energy          =    -154.9774668407008562 [Eh]
	 Singles Energy            =      -0.0000000000000000 [Eh]
	 Same-Spin Energy          =      -0.1592539415634849 [Eh]
	 Opposite-Spin Energy      =      -0.5735620173109182 [Eh]
	 Correlation Energy        =      -0.7328159588744030 [Eh]
	 Total Energy              =    -155.7102827995752534 [Eh]

	 ================> DF-SCS-MP2 Energies <==================
	-----------------------------------------------------------
	 SCS Same-Spin Scale       =       0.3333333333333333 [-]
	 SCS Opposite-Spin Scale   =       1.2000000000000000 [-]
	 SCS Same-Spin Energy      =      -0.0530846471878283 [Eh]
	 SCS Opposite-Spin Energy  =      -0.6882744207731017 [Eh]
	 SCS Correlation Energy    =      -0.7413590679609300 [Eh]
	 SCS Total Energy          =    -155.7188259086617848 [Eh]
	-----------------------------------------------------------

  Dipole Moment: [D]
     X:     0.0018      Y:     0.0085      Z:    -0.0000     Total:     0.0086

*** Psi4 exiting successfully. Buy a developer a beer!
