                               Psi4 1.3.2 release

  ==> Input File <==

--------------------------------------------------------------------------
#psi4
#
memory 32 gb

molecule  {
0 1
  C       -0.6059800    -0.4049620    -0.0000070
  C        0.5971859     0.3832228    -0.0000070
  C       -1.8474020     0.1098690     0.0000050
  C        1.8474010    -0.1098720     0.0000050
  H       -0.4725230    -1.4867800    -0.0000150
  H        0.4725330     1.4867860    -0.0000150
  H       -2.7279640    -0.5234220     0.0000090
  H       -2.0152630     1.1834510     0.0000160
  H        2.7279690     0.5234090     0.0000090
  H        2.0152500    -1.1834560     0.0000160
units angstrom
no_reorient  #important for SAPT in psi4, default
symmetry c1  #important for SAPT in psi4, default
}

set PROPERTIES_ORIGIN ["COM"]
properties('MP2/aug-cc-pvtz', properties = ['dipole'])
--------------------------------------------------------------------------

    Molecular point group: c1
  Charge       = 0
  Multiplicity = 1
  Basis Set: AUG-CC-PVTZ
    Blend: AUG-CC-PVTZ
  Basis Set: (AUG-CC-PVTZ AUX)
    Blend: AUG-CC-PVTZ-JKFIT

    Orbital Energies [Eh]
    ---------------------

    Doubly Occupied:

       1A    -11.242740     2A    -11.241223     3A    -11.233059
       4A    -11.232233     5A     -1.094005     6A     -0.999148
       7A     -0.831057     8A     -0.751877     9A     -0.645930
      10A     -0.635071    11A     -0.558600    12A     -0.542933
      13A     -0.494941    14A     -0.446454    15A     -0.322084

  @DF-RHF Final Energy:  -154.97700903720647

   => Energetics <=

    Nuclear Repulsion Energy =            103.6952016887885293
    One-Electron Energy =                -412.8017112587917268
    Two-Electron Energy =                 154.1295005327967260
    Total Energy =                       -154.9770090372064715
  Basis Set: (AUG-CC-PVTZ AUX)
    Blend: AUG-CC-PVTZ-RI
    Molecular point group: c1

    Geometry (in Angstrom), charge = 0, multiplicity = 1:

       Center              X                  Y                   Z               Mass
    ------------   -----------------  -----------------  -----------------  -----------------
         C           -0.604027268459    -0.400134373409    -0.000006484828    12.000000000000
         C            0.599138631541     0.388050426591    -0.000006484828    12.000000000000
         C           -1.845449268459     0.114696626591     0.000005515172    12.000000000000
         C            1.849353731541    -0.105044373409     0.000005515172    12.000000000000
         H           -0.470570268459    -1.481952373409    -0.000014484828     1.007825032230
         H            0.474485731541     1.491613626591    -0.000014484828     1.007825032230
         H           -2.726011268459    -0.518594373409     0.000009515172     1.007825032230
         H           -2.013310268459     1.188278626591     0.000016515172     1.007825032230
         H            2.729921731541     0.528236626591     0.000009515172     1.007825032230
         H            2.017202731541    -1.178628373409     0.000016515172     1.007825032230

  Basis Set: AUG-CC-PVTZ
    Blend: AUG-CC-PVTZ
  Basis Set: (AUG-CC-PVTZ AUX)
    Blend: AUG-CC-PVTZ-JKFIT
	 Reference Energy          =    -154.9770090372064715 [Eh]
	 Singles Energy            =      -0.0000000000000000 [Eh]
	 Same-Spin Energy          =      -0.1594968457601675 [Eh]
	 Opposite-Spin Energy      =      -0.5737353780609902 [Eh]
	 Correlation Energy        =      -0.7332322238211577 [Eh]
	 Total Energy              =    -155.7102412610276190 [Eh]

	 ================> DF-SCS-MP2 Energies <==================
	-----------------------------------------------------------
	 SCS Same-Spin Scale       =       0.3333333333333333 [-]
	 SCS Opposite-Spin Scale   =       1.2000000000000000 [-]
	 SCS Same-Spin Energy      =      -0.0531656152533892 [Eh]
	 SCS Opposite-Spin Energy  =      -0.6884824536731882 [Eh]
	 SCS Correlation Energy    =      -0.7416480689265773 [Eh]
	 SCS Total Energy          =    -155.7186571061330369 [Eh]
	-----------------------------------------------------------

  Dipole Moment: [D]
     X:    -0.0124      Y:    -0.0075      Z:     0.0000     Total:     0.0145

*** Psi4 exiting successfully. Buy a developer a beer!
