                               Psi4 1.3.2 release

  ==> Input File <==

--------------------------------------------------------------------------
#psi4
#
memory 32 gb

molecule  {
0 1
  C       -0.6059800    -0.4049620    -0.0000070
  C        0.6199326     0.3836920    -0.0000073
  C       -1.8474020     0.1098690     0.0000050
  C        1.8474010    -0.1098720     0.0000050
  H       -0.4725230    -1.4867800    -0.0000150
  H        0.4725330     1.4867860    -0.0000150
  H       -2.7279640    -0.5234220     0.0000090
  H       -2.0152630     1.1834510     0.0000160
  H        2.7279690     0.5234090     0.0000090
  H        2.0152500    -1.1834560     0.0000160
units angstrom
no_reorient  #important for SAPT in psi4, default
symmetry c1  #important for SAPT in psi4, default
}

set PROPERTIES_ORIGIN ["COM"]
properties('MP2/aug-cc-pvtz', properties = ['dipole'])
--------------------------------------------------------------------------

    Molecular point group: c1
  Charge       = 0
  Multiplicity = 1
  Basis Set: AUG-CC-PVTZ
    Blend: AUG-CC-PVTZ
  Basis Set: (AUG-CC-PVTZ AUX)
    Blend: AUG-CC-PVTZ-JKFIT

    Orbital Energies [Eh]
    ---------------------

    Doubly Occupied:

       1A    -11.242519     2A    -11.240979     3A    -11.232763
       4A    -11.229160     5A     -1.092813     6A     -1.002666
       7A     -0.828162     8A     -0.750909     9A     -0.646384
      10A     -0.634402    11A     -0.561674    12A     -0.543200
      13A     -0.489989    14A     -0.446005    15A     -0.326426

  @DF-RHF Final Energy:  -154.97787116970449

   => Energetics <=

    Nuclear Repulsion Energy =            103.6710676897158550
    One-Electron Energy =                -412.7617750461907917
    Two-Electron Energy =                 154.1128361867704371
    Total Energy =                       -154.9778711697044855
  Basis Set: (AUG-CC-PVTZ AUX)
    Blend: AUG-CC-PVTZ-RI
    Molecular point group: c1

    Geometry (in Angstrom), charge = 0, multiplicity = 1:

       Center              X                  Y                   Z               Mass
    ------------   -----------------  -----------------  -----------------  -----------------
         C           -0.609077699594    -0.400238549500    -0.000006418219    12.000000000000
         C            0.616834900406     0.388415450500    -0.000006718219    12.000000000000
         C           -1.850499699594     0.114592450500     0.000005581781    12.000000000000
         C            1.844303300406    -0.105148549500     0.000005581781    12.000000000000
         H           -0.475620699594    -1.482056549500    -0.000014418219     1.007825032230
         H            0.469435300406     1.491509450500    -0.000014418219     1.007825032230
         H           -2.731061699594    -0.518698549500     0.000009581781     1.007825032230
         H           -2.018360699594     1.188174450500     0.000016581781     1.007825032230
         H            2.724871300406     0.528132450500     0.000009581781     1.007825032230
         H            2.012152300406    -1.178732549500     0.000016581781     1.007825032230

  Basis Set: AUG-CC-PVTZ
    Blend: AUG-CC-PVTZ
  Basis Set: (AUG-CC-PVTZ AUX)
    Blend: AUG-CC-PVTZ-JKFIT
	 Reference Energy          =    -154.9778711697044855 [Eh]
	 Singles Energy            =      -0.0000000000000000 [Eh]
	 Same-Spin Energy          =      -0.1590834320100509 [Eh]
	 Opposite-Spin Energy      =      -0.5730163345325702 [Eh]
	 Correlation Energy        =      -0.7320997665426210 [Eh]
	 Total Energy              =    -155.7099709362471174 [Eh]

	 ================> DF-SCS-MP2 Energies <==================
	-----------------------------------------------------------
	 SCS Same-Spin Scale       =       0.3333333333333333 [-]
	 SCS Opposite-Spin Scale   =       1.2000000000000000 [-]
	 SCS Same-Spin Energy      =      -0.0530278106700170 [Eh]
	 SCS Opposite-Spin Energy  =      -0.6876196014390842 [Eh]
	 SCS Correlation Energy    =      -0.7406474121091011 [Eh]
	 SCS Total Energy          =    -155.7185185818135835 [Eh]
	-----------------------------------------------------------

  Dipole Moment: [D]
     X:     0.0021      Y:    -0.0077      Z:     0.0000     Total:     0.0080

*** Psi4 exiting successfully. Buy a developer a beer!
