                               Psi4 1.3.2 release

  ==> Input File <==

--------------------------------------------------------------------------
#psi4
#
memory 32 gb

molecule  {
0 1
  C       -0.6059800    -0.4049620    -0.0000070
  C        0.5146821     0.5272146    -0.0000054
  C       -1.8474020     0.1098690     0.0000050
  C        1.8474010    -0.1098720     0.0000050
  H       -0.4725230    -1.4867800    -0.0000150
  H        0.4725330     1.4867860    -0.0000150
  H       -2.7279640    -0.5234220     0.0000090
  H       -2.0152630     1.1834510     0.0000160
  H        2.7279690     0.5234090     0.0000090
  H        2.0152500    -1.1834560     0.0000160
units angstrom
no_reorient  #important for SAPT in psi4, default
symmetry c1  #important for SAPT in psi4, default
}

set PROPERTIES_ORIGIN ["COM"]
properties('MP2/aug-cc-pvtz', properties = ['dipole'])
--------------------------------------------------------------------------

    Molecular point group: c1
  Charge       = 0
  Multiplicity = 1
  Basis Set: AUG-CC-PVTZ
    Blend: AUG-CC-PVTZ
  Basis Set: (AUG-CC-PVTZ AUX)
    Blend: AUG-CC-PVTZ-JKFIT

    Orbital Energies [Eh]
    ---------------------

    Doubly Occupied:

       1A    -11.251415     2A    -11.249418     3A    -11.244467
       4A    -11.229196     5A     -1.087457     6A     -0.979323
       7A     -0.830410     8A     -0.780161     9A     -0.645090
      10A     -0.633382    11A     -0.560262    12A     -0.539315
      13A     -0.507011    14A     -0.435415    15A     -0.302910

  @DF-RHF Final Energy:  -154.93881167244365

   => Energetics <=

    Nuclear Repulsion Energy =            102.7304779518383526
    One-Electron Energy =                -410.7881120026537474
    Two-Electron Energy =                 153.1188223783717604
    Total Energy =                       -154.9388116724436486
  Basis Set: (AUG-CC-PVTZ AUX)
    Blend: AUG-CC-PVTZ-RI
    Molecular point group: c1

    Geometry (in Angstrom), charge = 0, multiplicity = 1:

       Center              X                  Y                   Z               Mass
    ------------   -----------------  -----------------  -----------------  -----------------
         C           -0.585709017448    -0.432104754602    -0.000006840074    12.000000000000
         C            0.534953082552     0.500071845398    -0.000005240074    12.000000000000
         C           -1.827131017448     0.082726245398     0.000005159926    12.000000000000
         C            1.867671982552    -0.137014754602     0.000005159926    12.000000000000
         H           -0.452252017448    -1.513922754602    -0.000014840074     1.007825032230
         H            0.492803982552     1.459643245398    -0.000014840074     1.007825032230
         H           -2.707693017448    -0.550564754602     0.000009159926     1.007825032230
         H           -1.994992017448     1.156308245398     0.000016159926     1.007825032230
         H            2.748239982552     0.496266245398     0.000009159926     1.007825032230
         H            2.035520982552    -1.210598754602     0.000016159926     1.007825032230

  Basis Set: AUG-CC-PVTZ
    Blend: AUG-CC-PVTZ
  Basis Set: (AUG-CC-PVTZ AUX)
    Blend: AUG-CC-PVTZ-JKFIT
	 Reference Energy          =    -154.9388116724436486 [Eh]
	 Singles Energy            =      -0.0000000000000000 [Eh]
	 Same-Spin Energy          =      -0.1609465849997727 [Eh]
	 Opposite-Spin Energy      =      -0.5783152540917451 [Eh]
	 Correlation Energy        =      -0.7392618390915178 [Eh]
	 Total Energy              =    -155.6780735115351604 [Eh]

	 ================> DF-SCS-MP2 Energies <==================
	-----------------------------------------------------------
	 SCS Same-Spin Scale       =       0.3333333333333333 [-]
	 SCS Opposite-Spin Scale   =       1.2000000000000000 [-]
	 SCS Same-Spin Energy      =      -0.0536488616665909 [Eh]
	 SCS Opposite-Spin Energy  =      -0.6939783049100942 [Eh]
	 SCS Correlation Energy    =      -0.7476271665766850 [Eh]
	 SCS Total Energy          =    -155.6864388390203260 [Eh]
	-----------------------------------------------------------

  Dipole Moment: [D]
     X:    -0.0355      Y:    -0.0052      Z:     0.0000     Total:     0.0359

*** Psi4 exiting successfully. Buy a developer a beer!
