                               Psi4 1.3.2 release

  ==> Input File <==

--------------------------------------------------------------------------
#psi4
#
memory 32 gb

molecule  {
0 1
  C       -0.6059800    -0.4049620    -0.0000070
  C        0.6891251     0.4605298    -0.0000070
  C       -1.8474020     0.1098690     0.0000050
  C        1.8474010    -0.1098720     0.0000050
  H       -0.4725230    -1.4867800    -0.0000150
  H        0.4725330     1.4867860    -0.0000150
  H       -2.7279640    -0.5234220     0.0000090
  H       -2.0152630     1.1834510     0.0000160
  H        2.7279690     0.5234090     0.0000090
  H        2.0152500    -1.1834560     0.0000160
units angstrom
no_reorient  #important for SAPT in psi4, default
symmetry c1  #important for SAPT in psi4, default
}

set PROPERTIES_ORIGIN ["COM"]
properties('MP2/aug-cc-pvtz', properties = ['dipole'])
--------------------------------------------------------------------------

    Molecular point group: c1
  Charge       = 0
  Multiplicity = 1
  Basis Set: AUG-CC-PVTZ
    Blend: AUG-CC-PVTZ
  Basis Set: (AUG-CC-PVTZ AUX)
    Blend: AUG-CC-PVTZ-JKFIT

    Orbital Energies [Eh]
    ---------------------

    Doubly Occupied:

       1A    -11.245846     2A    -11.238462     3A    -11.229114
       4A    -11.224728     5A     -1.085161     6A     -1.006740
       7A     -0.814561     8A     -0.759404     9A     -0.644316
      10A     -0.632038    11A     -0.575396    12A     -0.543882
      13A     -0.475378    14A     -0.438491    15A     -0.335945

  @DF-RHF Final Energy:  -154.97048347337744

   => Energetics <=

    Nuclear Repulsion Energy =            103.0644949611776582
    One-Electron Energy =                -411.5710321339046800
    Two-Electron Energy =                 153.5360536993495657
    Total Energy =                       -154.9704834733774419
  Basis Set: (AUG-CC-PVTZ AUX)
    Blend: AUG-CC-PVTZ-RI
    Molecular point group: c1

    Geometry (in Angstrom), charge = 0, multiplicity = 1:

       Center              X                  Y                   Z               Mass
    ------------   -----------------  -----------------  -----------------  -----------------
         C           -0.624440453589    -0.417298783180    -0.000006484828    12.000000000000
         C            0.670664646411     0.448193016820    -0.000006484828    12.000000000000
         C           -1.865862453589     0.097532216820     0.000005515172    12.000000000000
         C            1.828940546411    -0.122208783180     0.000005515172    12.000000000000
         H           -0.490983453589    -1.499116783180    -0.000014484828     1.007825032230
         H            0.454072546411     1.474449216820    -0.000014484828     1.007825032230
         H           -2.746424453589    -0.535758783180     0.000009515172     1.007825032230
         H           -2.033723453589     1.171114216820     0.000016515172     1.007825032230
         H            2.709508546411     0.511072216820     0.000009515172     1.007825032230
         H            1.996789546411    -1.195792783180     0.000016515172     1.007825032230

  Basis Set: AUG-CC-PVTZ
    Blend: AUG-CC-PVTZ
  Basis Set: (AUG-CC-PVTZ AUX)
    Blend: AUG-CC-PVTZ-JKFIT
	 Reference Energy          =    -154.9704834733774419 [Eh]
	 Singles Energy            =      -0.0000000000000000 [Eh]
	 Same-Spin Energy          =      -0.1579536268497506 [Eh]
	 Opposite-Spin Energy      =      -0.5717309061757564 [Eh]
	 Correlation Energy        =      -0.7296845330255070 [Eh]
	 Total Energy              =    -155.7001680064029472 [Eh]

	 ================> DF-SCS-MP2 Energies <==================
	-----------------------------------------------------------
	 SCS Same-Spin Scale       =       0.3333333333333333 [-]
	 SCS Opposite-Spin Scale   =       1.2000000000000000 [-]
	 SCS Same-Spin Energy      =      -0.0526512089499169 [Eh]
	 SCS Opposite-Spin Energy  =      -0.6860770874109077 [Eh]
	 SCS Correlation Energy    =      -0.7387282963608245 [Eh]
	 SCS Total Energy          =    -155.7092117697382605 [Eh]
	-----------------------------------------------------------

  Dipole Moment: [D]
     X:     0.0789      Y:     0.0193      Z:     0.0000     Total:     0.0812

*** Psi4 exiting successfully. Buy a developer a beer!
