                               Psi4 1.3.2 release

  ==> Input File <==

--------------------------------------------------------------------------
#psi4
#
memory 32 gb

molecule  {
0 1
  C       -0.6059800    -0.4049620    -0.0000070
  C        0.5465319     0.4875362    -0.0000059
  C       -1.8474020     0.1098690     0.0000050
  C        1.8474010    -0.1098720     0.0000050
  H       -0.4725230    -1.4867800    -0.0000150
  H        0.4725330     1.4867860    -0.0000150
  H       -2.7279640    -0.5234220     0.0000090
  H       -2.0152630     1.1834510     0.0000160
  H        2.7279690     0.5234090     0.0000090
  H        2.0152500    -1.1834560     0.0000160
units angstrom
no_reorient  #important for SAPT in psi4, default
symmetry c1  #important for SAPT in psi4, default
}

set PROPERTIES_ORIGIN ["COM"]
properties('MP2/aug-cc-pvtz', properties = ['dipole'])
--------------------------------------------------------------------------

    Molecular point group: c1
  Charge       = 0
  Multiplicity = 1
  Basis Set: AUG-CC-PVTZ
    Blend: AUG-CC-PVTZ
  Basis Set: (AUG-CC-PVTZ AUX)
    Blend: AUG-CC-PVTZ-JKFIT

    Orbital Energies [Eh]
    ---------------------

    Doubly Occupied:

       1A    -11.248112     2A    -11.243833     3A    -11.243240
       4A    -11.229960     5A     -1.087792     6A     -0.985299
       7A     -0.828405     8A     -0.771828     9A     -0.640372
      10A     -0.636930    11A     -0.555360    12A     -0.542823
      13A     -0.508884    14A     -0.437435    15A     -0.309622

  @DF-RHF Final Energy:  -154.95959202589430

   => Energetics <=

    Nuclear Repulsion Energy =            102.9659684245375502
    One-Electron Energy =                -411.3113333698520364
    Two-Electron Energy =                 153.3857729194201909
    Total Energy =                       -154.9595920258942954
  Basis Set: (AUG-CC-PVTZ AUX)
    Blend: AUG-CC-PVTZ-RI
    Molecular point group: c1

    Geometry (in Angstrom), charge = 0, multiplicity = 1:

       Center              X                  Y                   Z               Mass
    ------------   -----------------  -----------------  -----------------  -----------------
         C           -0.592780602406    -0.423294992011    -0.000006729060    12.000000000000
         C            0.559731297594     0.469203207989    -0.000005629060    12.000000000000
         C           -1.834202602406     0.091536007989     0.000005270940    12.000000000000
         C            1.860600397594    -0.128204992011     0.000005270940    12.000000000000
         H           -0.459323602406    -1.505112992011    -0.000014729060     1.007825032230
         H            0.485732397594     1.468453007989    -0.000014729060     1.007825032230
         H           -2.714764602406    -0.541754992011     0.000009270940     1.007825032230
         H           -2.002063602406     1.165118007989     0.000016270940     1.007825032230
         H            2.741168397594     0.505076007989     0.000009270940     1.007825032230
         H            2.028449397594    -1.201788992011     0.000016270940     1.007825032230

  Basis Set: AUG-CC-PVTZ
    Blend: AUG-CC-PVTZ
  Basis Set: (AUG-CC-PVTZ AUX)
    Blend: AUG-CC-PVTZ-JKFIT
	 Reference Energy          =    -154.9595920258942954 [Eh]
	 Singles Energy            =      -0.0000000000000000 [Eh]
	 Same-Spin Energy          =      -0.1601797836691813 [Eh]
	 Opposite-Spin Energy      =      -0.5762049688464448 [Eh]
	 Correlation Energy        =      -0.7363847525156262 [Eh]
	 Total Energy              =    -155.6959767784099142 [Eh]

	 ================> DF-SCS-MP2 Energies <==================
	-----------------------------------------------------------
	 SCS Same-Spin Scale       =       0.3333333333333333 [-]
	 SCS Opposite-Spin Scale   =       1.2000000000000000 [-]
	 SCS Same-Spin Energy      =      -0.0533932612230604 [Eh]
	 SCS Opposite-Spin Energy  =      -0.6914459626157338 [Eh]
	 SCS Correlation Energy    =      -0.7448392238387942 [Eh]
	 SCS Total Energy          =    -155.7044312497330907 [Eh]
	-----------------------------------------------------------

  Dipole Moment: [D]
     X:    -0.0183      Y:     0.0048      Z:     0.0000     Total:     0.0189

*** Psi4 exiting successfully. Buy a developer a beer!
