                               Psi4 1.4a3.dev225

  ==> Input File <==

--------------------------------------------------------------------------
#psi4
#
memory 32 gb

molecule  {
0 1
  C       -0.6059850    -0.4050260    -0.0000030
  C        0.6475557     0.4328122    -0.0000030
  C       -1.8474080     0.1098660     0.0000030
  C        1.8474080    -0.1098670     0.0000030
  H       -0.4724680    -1.4868200    -0.0000080
  H        0.4724700     1.4868220    -0.0000080
  H       -2.7280470    -0.5233260     0.0000030
  H       -2.0152570     1.1834530     0.0000060
  H        2.7280490     0.5233230     0.0000030
  H        2.0152540    -1.1834540     0.0000060
units angstrom
no_reorient  #important for SAPT in psi4, default
symmetry c1  #important for SAPT in psi4, default
}

set PROPERTIES_ORIGIN ["COM"]
properties('MP2/aug-cc-pvtz', properties = ['dipole'])
--------------------------------------------------------------------------

    Molecular point group: c1
  Charge       = 0
  Multiplicity = 1
  Basis Set: AUG-CC-PVTZ
    Blend: AUG-CC-PVTZ
  Basis Set: (AUG-CC-PVTZ AUX)
    Blend: AUG-CC-PVTZ-JKFIT

    Orbital Energies [Eh]
    ---------------------

    Doubly Occupied:

       1A    -11.244461     2A    -11.240205     3A    -11.230575
       4A    -11.228213     5A     -1.087213     6A     -1.003305
       7A     -0.820604     8A     -0.757297     9A     -0.643974
      10A     -0.633423    11A     -0.565725    12A     -0.545157
      13A     -0.487122    14A     -0.440565    15A     -0.329840

  @DF-RHF Final Energy:  -154.97711839743039

   => Energetics <=

    Nuclear Repulsion Energy =            103.2757576937906521
    One-Electron Energy =                -411.9903936837121137
    Two-Electron Energy =                 153.7375175924910877
    Total Energy =                       -154.9771183974303881
  Basis Set: (AUG-CC-PVTZ AUX)
    Blend: AUG-CC-PVTZ-RI
    Molecular point group: c1

    Geometry (in Angstrom), charge = 0, multiplicity = 1:

       Center              X                  Y                   Z               Mass
    ------------   -----------------  -----------------  -----------------  -----------------
         C           -0.615214927055    -0.411195087861    -0.000003037294    12.000000000000
         C            0.638325772945     0.426643112139    -0.000003037294    12.000000000000
         C           -1.856637927055     0.103696912139     0.000002962706    12.000000000000
         C            1.838178072945    -0.116036087861     0.000002962706    12.000000000000
         H           -0.481697927055    -1.492989087861    -0.000008037294     1.007825032230
         H            0.463240072945     1.480652912139    -0.000008037294     1.007825032230
         H           -2.737276927055    -0.529495087861     0.000002962706     1.007825032230
         H           -2.024486927055     1.177283912139     0.000005962706     1.007825032230
         H            2.718819072945     0.517153912139     0.000002962706     1.007825032230
         H            2.006024072945    -1.189623087861     0.000005962706     1.007825032230

  Basis Set: AUG-CC-PVTZ
    Blend: AUG-CC-PVTZ
  Basis Set: (AUG-CC-PVTZ AUX)
    Blend: AUG-CC-PVTZ-JKFIT
	 Reference Energy          =    -154.9771183974303881 [Eh]
	 Singles Energy            =      -0.0000000000000000 [Eh]
	 Same-Spin Energy          =      -0.1584586049102779 [Eh]
	 Opposite-Spin Energy      =      -0.5723647202801869 [Eh]
	 Correlation Energy        =      -0.7308233251904649 [Eh]
	 Total Energy              =    -155.7079417226208591 [Eh]

	 ================> DF-SCS-MP2 Energies <==================
	-----------------------------------------------------------
	 SCS Same-Spin Scale       =       0.3333333333333333 [-]
	 SCS Opposite-Spin Scale   =       1.2000000000000000 [-]
	 SCS Same-Spin Energy      =      -0.0528195349700926 [Eh]
	 SCS Opposite-Spin Energy  =      -0.6868376643362243 [Eh]
	 SCS Correlation Energy    =      -0.7396571993063169 [Eh]
	 SCS Total Energy          =    -155.7167755967367100 [Eh]
	-----------------------------------------------------------

  Dipole Moment: [D]
     X:     0.0375      Y:     0.0091      Z:    -0.0000     Total:     0.0386

*** Psi4 exiting successfully. Buy a developer a beer!
