                               Psi4 1.3.2 release

  ==> Input File <==

--------------------------------------------------------------------------
#psi4
#
memory 32 gb

molecule  {
0 1
  C       -0.6059800    -0.4049620    -0.0000070
  C        0.6151563     0.4265543    -0.0000070
  C       -1.8474020     0.1098690     0.0000050
  C        1.8474010    -0.1098720     0.0000050
  H       -0.4725230    -1.4867800    -0.0000150
  H        0.4725330     1.4867860    -0.0000150
  H       -2.7279640    -0.5234220     0.0000090
  H       -2.0152630     1.1834510     0.0000160
  H        2.7279690     0.5234090     0.0000090
  H        2.0152500    -1.1834560     0.0000160
units angstrom
no_reorient  #important for SAPT in psi4, default
symmetry c1  #important for SAPT in psi4, default
}

set PROPERTIES_ORIGIN ["COM"]
properties('MP2/aug-cc-pvtz', properties = ['dipole'])
--------------------------------------------------------------------------

    Molecular point group: c1
  Charge       = 0
  Multiplicity = 1
  Basis Set: AUG-CC-PVTZ
    Blend: AUG-CC-PVTZ
  Basis Set: (AUG-CC-PVTZ AUX)
    Blend: AUG-CC-PVTZ-JKFIT

    Orbital Energies [Eh]
    ---------------------

    Doubly Occupied:

       1A    -11.243371     2A    -11.242035     3A    -11.232091
       4A    -11.231169     5A     -1.088649     6A     -0.999049
       7A     -0.824826     8A     -0.757954     9A     -0.643275
      10A     -0.634622    11A     -0.559106    12A     -0.546111
      13A     -0.495277    14A     -0.441352    15A     -0.324143

  @DF-RHF Final Energy:  -154.97787554463633

   => Energetics <=

    Nuclear Repulsion Energy =            103.3416686672752149
    One-Electron Energy =                -412.1130290881325209
    Two-Electron Energy =                 153.7934848762209867
    Total Energy =                       -154.9778755446363334
  Basis Set: (AUG-CC-PVTZ AUX)
    Blend: AUG-CC-PVTZ-RI
    Molecular point group: c1

    Geometry (in Angstrom), charge = 0, multiplicity = 1:

       Center              X                  Y                   Z               Mass
    ------------   -----------------  -----------------  -----------------  -----------------
         C           -0.608017221624    -0.409755230796    -0.000006484828    12.000000000000
         C            0.613119078376     0.421761069204    -0.000006484828    12.000000000000
         C           -1.849439221624     0.105075769204     0.000005515172    12.000000000000
         C            1.845363778376    -0.114665230796     0.000005515172    12.000000000000
         H           -0.474560221624    -1.491573230796    -0.000014484828     1.007825032230
         H            0.470495778376     1.481992769204    -0.000014484828     1.007825032230
         H           -2.730001221624    -0.528215230796     0.000009515172     1.007825032230
         H           -2.017300221624     1.178657769204     0.000016515172     1.007825032230
         H            2.725931778376     0.518615769204     0.000009515172     1.007825032230
         H            2.013212778376    -1.188249230796     0.000016515172     1.007825032230

  Basis Set: AUG-CC-PVTZ
    Blend: AUG-CC-PVTZ
  Basis Set: (AUG-CC-PVTZ AUX)
    Blend: AUG-CC-PVTZ-JKFIT
	 Reference Energy          =    -154.9778755446363334 [Eh]
	 Singles Energy            =      -0.0000000000000000 [Eh]
	 Same-Spin Energy          =      -0.1589629463444467 [Eh]
	 Opposite-Spin Energy      =      -0.5732025168577236 [Eh]
	 Correlation Energy        =      -0.7321654632021702 [Eh]
	 Total Energy              =    -155.7100410078384982 [Eh]

	 ================> DF-SCS-MP2 Energies <==================
	-----------------------------------------------------------
	 SCS Same-Spin Scale       =       0.3333333333333333 [-]
	 SCS Opposite-Spin Scale   =       1.2000000000000000 [-]
	 SCS Same-Spin Energy      =      -0.0529876487814822 [Eh]
	 SCS Opposite-Spin Energy  =      -0.6878430202292684 [Eh]
	 SCS Correlation Energy    =      -0.7408306690107506 [Eh]
	 SCS Total Energy          =    -155.7187062136470956 [Eh]
	-----------------------------------------------------------

  Dipole Moment: [D]
     X:     0.0132      Y:     0.0059      Z:     0.0000     Total:     0.0144

*** Psi4 exiting successfully. Buy a developer a beer!
