                               Psi4 1.4a3.dev225

  ==> Input File <==

--------------------------------------------------------------------------
#psi4
#
memory 32 gb

molecule  {
0 1
  C       -0.6059850    -0.4050260    -0.0000030
  C        0.6226139     0.4161417    -0.0000030
  C       -1.8474080     0.1098660     0.0000030
  C        1.8474080    -0.1098670     0.0000030
  H       -0.4724680    -1.4868200    -0.0000080
  H        0.4724700     1.4868220    -0.0000080
  H       -2.7280470    -0.5233260     0.0000030
  H       -2.0152570     1.1834530     0.0000060
  H        2.7280490     0.5233230     0.0000030
  H        2.0152540    -1.1834540     0.0000060
units angstrom
no_reorient  #important for SAPT in psi4, default
symmetry c1  #important for SAPT in psi4, default
}

set PROPERTIES_ORIGIN ["COM"]
properties('MP2/aug-cc-pvtz', properties = ['dipole'])
--------------------------------------------------------------------------

    Molecular point group: c1
  Charge       = 0
  Multiplicity = 1
  Basis Set: AUG-CC-PVTZ
    Blend: AUG-CC-PVTZ
  Basis Set: (AUG-CC-PVTZ AUX)
    Blend: AUG-CC-PVTZ-JKFIT

    Orbital Energies [Eh]
    ---------------------

    Doubly Occupied:

       1A    -11.243335     2A    -11.241388     3A    -11.231478
       4A    -11.230505     5A     -1.089392     6A     -1.000847
       7A     -0.824777     8A     -0.755885     9A     -0.644197
      10A     -0.634309    11A     -0.560476    12A     -0.545438
      13A     -0.492821    14A     -0.442388    15A     -0.325864

  @DF-RHF Final Energy:  -154.97842800400727

   => Energetics <=

    Nuclear Repulsion Energy =            103.4161931544392701
    One-Electron Energy =                -412.2630461789961487
    Two-Electron Energy =                 153.8684250205496085
    Total Energy =                       -154.9784280040072701
  Basis Set: (AUG-CC-PVTZ AUX)
    Blend: AUG-CC-PVTZ-RI
    Molecular point group: c1

    Geometry (in Angstrom), charge = 0, multiplicity = 1:

       Center              X                  Y                   Z               Mass
    ------------   -----------------  -----------------  -----------------  -----------------
         C           -0.609677119668    -0.407493750426    -0.000003037294    12.000000000000
         C            0.618921780332     0.413673949574    -0.000003037294    12.000000000000
         C           -1.851100119668     0.107398249574     0.000002962706    12.000000000000
         C            1.843715880332    -0.112334750426     0.000002962706    12.000000000000
         H           -0.476160119668    -1.489287750426    -0.000008037294     1.007825032230
         H            0.468777880332     1.484354249574    -0.000008037294     1.007825032230
         H           -2.731739119668    -0.525793750426     0.000002962706     1.007825032230
         H           -2.018949119668     1.180985249574     0.000005962706     1.007825032230
         H            2.724356880332     0.520855249574     0.000002962706     1.007825032230
         H            2.011561880332    -1.185921750426     0.000005962706     1.007825032230

  Basis Set: AUG-CC-PVTZ
    Blend: AUG-CC-PVTZ
  Basis Set: (AUG-CC-PVTZ AUX)
    Blend: AUG-CC-PVTZ-JKFIT
	 Reference Energy          =    -154.9784280040072701 [Eh]
	 Singles Energy            =      -0.0000000000000000 [Eh]
	 Same-Spin Energy          =      -0.1588801243729570 [Eh]
	 Opposite-Spin Energy      =      -0.5729476504776518 [Eh]
	 Correlation Energy        =      -0.7318277748506088 [Eh]
	 Total Energy              =    -155.7102557788578849 [Eh]

	 ================> DF-SCS-MP2 Energies <==================
	-----------------------------------------------------------
	 SCS Same-Spin Scale       =       0.3333333333333333 [-]
	 SCS Opposite-Spin Scale   =       1.2000000000000000 [-]
	 SCS Same-Spin Energy      =      -0.0529600414576523 [Eh]
	 SCS Opposite-Spin Energy  =      -0.6875371805731821 [Eh]
	 SCS Correlation Energy    =      -0.7404972220308345 [Eh]
	 SCS Total Energy          =    -155.7189252260380954 [Eh]
	-----------------------------------------------------------

  Dipole Moment: [D]
     X:     0.0146      Y:     0.0036      Z:    -0.0000     Total:     0.0151

*** Psi4 exiting successfully. Buy a developer a beer!
