                               Psi4 1.4a3.dev225

  ==> Input File <==

--------------------------------------------------------------------------
#psi4
#
memory 32 gb

molecule  {
0 1
  C       -0.6059850    -0.4050260    -0.0000030
  C        0.6059860     0.4050280    -0.0000030
  C       -1.8289340     0.1022037     0.0000029
  C        1.8474080    -0.1098670     0.0000030
  H       -0.4724680    -1.4868200    -0.0000080
  H        0.4724700     1.4868220    -0.0000080
  H       -2.7280470    -0.5233260     0.0000030
  H       -2.0152570     1.1834530     0.0000060
  H        2.7280490     0.5233230     0.0000030
  H        2.0152540    -1.1834540     0.0000060
units angstrom
no_reorient  #important for SAPT in psi4, default
symmetry c1  #important for SAPT in psi4, default
}

set PROPERTIES_ORIGIN ["COM"]
properties('MP2/aug-cc-pvtz', properties = ['dipole'])
--------------------------------------------------------------------------

    Molecular point group: c1
  Charge       = 0
  Multiplicity = 1
  Basis Set: AUG-CC-PVTZ
    Blend: AUG-CC-PVTZ
  Basis Set: (AUG-CC-PVTZ AUX)
    Blend: AUG-CC-PVTZ-JKFIT

    Orbital Energies [Eh]
    ---------------------

    Doubly Occupied:

       1A    -11.242044     2A    -11.239051     3A    -11.231692
       4A    -11.231035     5A     -1.093497     6A     -1.001296
       7A     -0.825625     8A     -0.754289     9A     -0.645506
      10A     -0.634308    11A     -0.559956    12A     -0.541673
      13A     -0.492861    14A     -0.446090    15A     -0.325545

  @DF-RHF Final Energy:  -154.97818496784993

   => Energetics <=

    Nuclear Repulsion Energy =            103.7790844433441890
    One-Electron Energy =                -412.9855999747859983
    Two-Electron Energy =                 154.2283305635918964
    Total Energy =                       -154.9781849678499270
  Basis Set: (AUG-CC-PVTZ AUX)
    Blend: AUG-CC-PVTZ-RI
    Molecular point group: c1

    Geometry (in Angstrom), charge = 0, multiplicity = 1:

       Center              X                  Y                   Z               Mass
    ------------   -----------------  -----------------  -----------------  -----------------
         C           -0.610087007736    -0.403324930554    -0.000003015092    12.000000000000
         C            0.601883992264     0.406729069446    -0.000003015092    12.000000000000
         C           -1.833036007736     0.103904769446     0.000002884908    12.000000000000
         C            1.843305992264    -0.108165930554     0.000002984908    12.000000000000
         H           -0.476570007736    -1.485118930554    -0.000008015092     1.007825032230
         H            0.468367992264     1.488523069446    -0.000008015092     1.007825032230
         H           -2.732149007736    -0.521624930554     0.000002984908     1.007825032230
         H           -2.019359007736     1.185154069446     0.000005984908     1.007825032230
         H            2.723946992264     0.525024069446     0.000002984908     1.007825032230
         H            2.011151992264    -1.181752930554     0.000005984908     1.007825032230

  Basis Set: AUG-CC-PVTZ
    Blend: AUG-CC-PVTZ
  Basis Set: (AUG-CC-PVTZ AUX)
    Blend: AUG-CC-PVTZ-JKFIT
	 Reference Energy          =    -154.9781849678499270 [Eh]
	 Singles Energy            =      -0.0000000000000000 [Eh]
	 Same-Spin Energy          =      -0.1590742589890232 [Eh]
	 Opposite-Spin Energy      =      -0.5729930137288350 [Eh]
	 Correlation Energy        =      -0.7320672727178582 [Eh]
	 Total Energy              =    -155.7102522405677973 [Eh]

	 ================> DF-SCS-MP2 Energies <==================
	-----------------------------------------------------------
	 SCS Same-Spin Scale       =       0.3333333333333333 [-]
	 SCS Opposite-Spin Scale   =       1.2000000000000000 [-]
	 SCS Same-Spin Energy      =      -0.0530247529963411 [Eh]
	 SCS Opposite-Spin Energy  =      -0.6875916164746020 [Eh]
	 SCS Correlation Energy    =      -0.7406163694709430 [Eh]
	 SCS Total Energy          =    -155.7188013373208832 [Eh]
	-----------------------------------------------------------

  Dipole Moment: [D]
     X:    -0.0144      Y:    -0.0012      Z:    -0.0000     Total:     0.0144

*** Psi4 exiting successfully. Buy a developer a beer!
