                               Psi4 1.3.2 release

  ==> Input File <==

--------------------------------------------------------------------------
#psi4
#
memory 32 gb

molecule  {
0 1
  C       -0.6059800    -0.4049620    -0.0000070
  C        0.6059820     0.4049670    -0.0000070
  C       -1.8474020     0.1098690     0.0000050
  C        1.8474010    -0.1098720     0.0000050
  H       -0.4602794    -1.5860276    -0.0000157
  H        0.4725330     1.4867860    -0.0000150
  H       -2.7279640    -0.5234220     0.0000090
  H       -2.0152630     1.1834510     0.0000160
  H        2.7279690     0.5234090     0.0000090
  H        2.0152500    -1.1834560     0.0000160
units angstrom
no_reorient  #important for SAPT in psi4, default
symmetry c1  #important for SAPT in psi4, default
}

set PROPERTIES_ORIGIN ["COM"]
properties('MP2/aug-cc-pvtz', properties = ['dipole'])
--------------------------------------------------------------------------

    Molecular point group: c1
  Charge       = 0
  Multiplicity = 1
  Basis Set: AUG-CC-PVTZ
    Blend: AUG-CC-PVTZ
  Basis Set: (AUG-CC-PVTZ AUX)
    Blend: AUG-CC-PVTZ-JKFIT

    Orbital Energies [Eh]
    ---------------------

    Doubly Occupied:

       1A    -11.253663     2A    -11.243395     3A    -11.232965
       4A    -11.232580     5A     -1.089556     6A     -0.998759
       7A     -0.826934     8A     -0.744120     9A     -0.643840
      10A     -0.631458    11A     -0.556166    12A     -0.540849
      13A     -0.489640    14A     -0.444605    15A     -0.323621

  @DF-RHF Final Energy:  -154.97089082791172

   => Energetics <=

    Nuclear Repulsion Energy =            103.1289004903528763
    One-Electron Energy =                -411.6952806376741592
    Two-Electron Energy =                 153.5954893194095803
    Total Energy =                       -154.9708908279117168
  Basis Set: (AUG-CC-PVTZ AUX)
    Blend: AUG-CC-PVTZ-RI
    Molecular point group: c1

    Geometry (in Angstrom), charge = 0, multiplicity = 1:

       Center              X                  Y                   Z               Mass
    ------------   -----------------  -----------------  -----------------  -----------------
         C           -0.606208568350    -0.403111529081    -0.000006471775    12.000000000000
         C            0.605753431650     0.406817470919    -0.000006471775    12.000000000000
         C           -1.847630568350     0.111719470919     0.000005528225    12.000000000000
         C            1.847172431650    -0.108021529081     0.000005528225    12.000000000000
         H           -0.460507968350    -1.584177129081    -0.000015171775     1.007825032230
         H            0.472304431650     1.488636470919    -0.000014471775     1.007825032230
         H           -2.728192568350    -0.521571529081     0.000009528225     1.007825032230
         H           -2.015491568350     1.185301470919     0.000016528225     1.007825032230
         H            2.727740431650     0.525259470919     0.000009528225     1.007825032230
         H            2.015021431650    -1.181605529081     0.000016528225     1.007825032230

  Basis Set: AUG-CC-PVTZ
    Blend: AUG-CC-PVTZ
  Basis Set: (AUG-CC-PVTZ AUX)
    Blend: AUG-CC-PVTZ-JKFIT
	 Reference Energy          =    -154.9708908279117168 [Eh]
	 Singles Energy            =      -0.0000000000000000 [Eh]
	 Same-Spin Energy          =      -0.1594437813957653 [Eh]
	 Opposite-Spin Energy      =      -0.5742571840877395 [Eh]
	 Correlation Energy        =      -0.7337009654835048 [Eh]
	 Total Energy              =    -155.7045917933952239 [Eh]

	 ================> DF-SCS-MP2 Energies <==================
	-----------------------------------------------------------
	 SCS Same-Spin Scale       =       0.3333333333333333 [-]
	 SCS Opposite-Spin Scale   =       1.2000000000000000 [-]
	 SCS Same-Spin Energy      =      -0.0531479271319218 [Eh]
	 SCS Opposite-Spin Energy  =      -0.6891086209052874 [Eh]
	 SCS Correlation Energy    =      -0.7422565480372091 [Eh]
	 SCS Total Energy          =    -155.7131473759489211 [Eh]
	-----------------------------------------------------------

  Dipole Moment: [D]
     X:     0.0082      Y:     0.0483      Z:     0.0000     Total:     0.0489

*** Psi4 exiting successfully. Buy a developer a beer!
