                               Psi4 1.4a3.dev225

  ==> Input File <==

--------------------------------------------------------------------------
#psi4
#
memory 32 gb

molecule  {
0 1
  C       -0.6059850    -0.4050260    -0.0000030
  C        0.6059860     0.4050280    -0.0000030
  C       -1.8474080     0.1098660     0.0000030
  C        1.8474080    -0.1098670     0.0000030
  H       -0.4663434    -1.5364435    -0.0000082
  H        0.4724700     1.4868220    -0.0000080
  H       -2.7280470    -0.5233260     0.0000030
  H       -2.0152570     1.1834530     0.0000060
  H        2.7280490     0.5233230     0.0000030
  H        2.0152540    -1.1834540     0.0000060
units angstrom
no_reorient  #important for SAPT in psi4, default
symmetry c1  #important for SAPT in psi4, default
}

set PROPERTIES_ORIGIN ["COM"]
properties('MP2/aug-cc-pvtz', properties = ['dipole'])
--------------------------------------------------------------------------

    Molecular point group: c1
  Charge       = 0
  Multiplicity = 1
  Basis Set: AUG-CC-PVTZ
    Blend: AUG-CC-PVTZ
  Basis Set: (AUG-CC-PVTZ AUX)
    Blend: AUG-CC-PVTZ-JKFIT

    Orbital Energies [Eh]
    ---------------------

    Doubly Occupied:

       1A    -11.248132     2A    -11.242826     3A    -11.232498
       4A    -11.232331     5A     -1.090252     6A     -0.998836
       7A     -0.827196     8A     -0.749115     9A     -0.644035
      10A     -0.633196    11A     -0.556759    12A     -0.543044
      13A     -0.493113    14A     -0.444183    15A     -0.323335

  @DF-RHF Final Energy:  -154.97569113776444

   => Energetics <=

    Nuclear Repulsion Energy =            103.3154609554570413
    One-Electron Energy =                -412.0646011555331825
    Two-Electron Energy =                 153.7734490623116699
    Total Energy =                       -154.9756911377644428
  Basis Set: (AUG-CC-PVTZ AUX)
    Blend: AUG-CC-PVTZ-RI
    Molecular point group: c1

    Geometry (in Angstrom), charge = 0, multiplicity = 1:

       Center              X                  Y                   Z               Mass
    ------------   -----------------  -----------------  -----------------  -----------------
         C           -0.606099447402    -0.404100844724    -0.000003033565    12.000000000000
         C            0.605871552598     0.405953155276    -0.000003033565    12.000000000000
         C           -1.847522447402     0.110791155276     0.000002966435    12.000000000000
         C            1.847293552598    -0.108941844724     0.000002966435    12.000000000000
         H           -0.466457847402    -1.535518344724    -0.000008233565     1.007825032230
         H            0.472355552598     1.487747155276    -0.000008033565     1.007825032230
         H           -2.728161447402    -0.522400844724     0.000002966435     1.007825032230
         H           -2.015371447402     1.184378155276     0.000005966435     1.007825032230
         H            2.727934552598     0.524248155276     0.000002966435     1.007825032230
         H            2.015139552598    -1.182528844724     0.000005966435     1.007825032230

  Basis Set: AUG-CC-PVTZ
    Blend: AUG-CC-PVTZ
  Basis Set: (AUG-CC-PVTZ AUX)
    Blend: AUG-CC-PVTZ-JKFIT
	 Reference Energy          =    -154.9756911377644428 [Eh]
	 Singles Energy            =      -0.0000000000000000 [Eh]
	 Same-Spin Energy          =      -0.1593211262408653 [Eh]
	 Opposite-Spin Energy      =      -0.5737950789225013 [Eh]
	 Correlation Energy        =      -0.7331162051633665 [Eh]
	 Total Energy              =    -155.7088073429277983 [Eh]

	 ================> DF-SCS-MP2 Energies <==================
	-----------------------------------------------------------
	 SCS Same-Spin Scale       =       0.3333333333333333 [-]
	 SCS Opposite-Spin Scale   =       1.2000000000000000 [-]
	 SCS Same-Spin Energy      =      -0.0531070420802884 [Eh]
	 SCS Opposite-Spin Energy  =      -0.6885540947070015 [Eh]
	 SCS Correlation Energy    =      -0.7416611367872898 [Eh]
	 SCS Total Energy          =    -155.7173522745517289 [Eh]
	-----------------------------------------------------------

  Dipole Moment: [D]
     X:     0.0043      Y:     0.0223      Z:    -0.0000     Total:     0.0227

*** Psi4 exiting successfully. Buy a developer a beer!
