                               Psi4 1.3.2 release

  ==> Input File <==

--------------------------------------------------------------------------
#psi4
#
memory 32 gb

molecule  {
0 1
  C       -0.6059800    -0.4049620    -0.0000070
  C        0.6059820     0.4049670    -0.0000070
  C       -1.8474020     0.1098690     0.0000050
  C        1.8474010    -0.1098720     0.0000050
  H       -0.4970101    -1.2882847    -0.0000135
  H        0.4725330     1.4867860    -0.0000150
  H       -2.7279640    -0.5234220     0.0000090
  H       -2.0152630     1.1834510     0.0000160
  H        2.7279690     0.5234090     0.0000090
  H        2.0152500    -1.1834560     0.0000160
units angstrom
no_reorient  #important for SAPT in psi4, default
symmetry c1  #important for SAPT in psi4, default
}

set PROPERTIES_ORIGIN ["COM"]
properties('MP2/aug-cc-pvtz', properties = ['dipole'])
--------------------------------------------------------------------------

    Molecular point group: c1
  Charge       = 0
  Multiplicity = 1
  Basis Set: AUG-CC-PVTZ
    Blend: AUG-CC-PVTZ
  Basis Set: (AUG-CC-PVTZ AUX)
    Blend: AUG-CC-PVTZ-JKFIT

    Orbital Energies [Eh]
    ---------------------

    Doubly Occupied:

       1A    -11.240780     2A    -11.231611     3A    -11.231359
       4A    -11.218156     5A     -1.099027     6A     -1.001671
       7A     -0.836014     8A     -0.783462     9A     -0.650120
      10A     -0.638709    11A     -0.566169    12A     -0.548594
      13A     -0.502201    14A     -0.443105    15A     -0.322592

  @DF-RHF Final Energy:  -154.94391252974060

   => Energetics <=

    Nuclear Repulsion Energy =            104.4770836498891668
    One-Electron Energy =                -414.2148494188954260
    Two-Electron Energy =                 154.7938532392656725
    Total Energy =                       -154.9439125297406008
  Basis Set: (AUG-CC-PVTZ AUX)
    Blend: AUG-CC-PVTZ-RI
    Molecular point group: c1

    Geometry (in Angstrom), charge = 0, multiplicity = 1:

       Center              X                  Y                   Z               Mass
    ------------   -----------------  -----------------  -----------------  -----------------
         C           -0.605523643136    -0.408663604577    -0.000006512798    12.000000000000
         C            0.606438356864     0.401265395423    -0.000006512798    12.000000000000
         C           -1.846945643136     0.106167395423     0.000005487202    12.000000000000
         C            1.847857356864    -0.113573604577     0.000005487202    12.000000000000
         H           -0.496553743136    -1.291986304577    -0.000013012798     1.007825032230
         H            0.472989356864     1.483084395423    -0.000014512798     1.007825032230
         H           -2.727507643136    -0.527123604577     0.000009487202     1.007825032230
         H           -2.014806643136     1.179749395423     0.000016487202     1.007825032230
         H            2.728425356864     0.519707395423     0.000009487202     1.007825032230
         H            2.015706356864    -1.187157604577     0.000016487202     1.007825032230

  Basis Set: AUG-CC-PVTZ
    Blend: AUG-CC-PVTZ
  Basis Set: (AUG-CC-PVTZ AUX)
    Blend: AUG-CC-PVTZ-JKFIT
	 Reference Energy          =    -154.9439125297406008 [Eh]
	 Singles Energy            =      -0.0000000000000000 [Eh]
	 Same-Spin Energy          =      -0.1590019967353621 [Eh]
	 Opposite-Spin Energy      =      -0.5730282585805812 [Eh]
	 Correlation Energy        =      -0.7320302553159432 [Eh]
	 Total Energy              =    -155.6759427850565487 [Eh]

	 ================> DF-SCS-MP2 Energies <==================
	-----------------------------------------------------------
	 SCS Same-Spin Scale       =       0.3333333333333333 [-]
	 SCS Opposite-Spin Scale   =       1.2000000000000000 [-]
	 SCS Same-Spin Energy      =      -0.0530006655784540 [Eh]
	 SCS Opposite-Spin Energy  =      -0.6876339102966974 [Eh]
	 SCS Correlation Energy    =      -0.7406345758751515 [Eh]
	 SCS Total Energy          =    -155.6845471056157635 [Eh]
	-----------------------------------------------------------

  Dipole Moment: [D]
     X:    -0.0235      Y:    -0.0517      Z:     0.0000     Total:     0.0568

*** Psi4 exiting successfully. Buy a developer a beer!
