                               Psi4 1.4a3.dev225

  ==> Input File <==

--------------------------------------------------------------------------
#psi4
#
memory 32 gb

molecule  {
0 1
  C       -0.6059850    -0.4050260    -0.0000030
  C        0.5893581     0.3939143    -0.0000030
  C       -1.8474080     0.1098660     0.0000030
  C        1.8474080    -0.1098670     0.0000030
  H       -0.4724680    -1.4868200    -0.0000080
  H        0.4724700     1.4868220    -0.0000080
  H       -2.7280470    -0.5233260     0.0000030
  H       -2.0152570     1.1834530     0.0000060
  H        2.7280490     0.5233230     0.0000030
  H        2.0152540    -1.1834540     0.0000060
units angstrom
no_reorient  #important for SAPT in psi4, default
symmetry c1  #important for SAPT in psi4, default
}

set PROPERTIES_ORIGIN ["COM"]
properties('MP2/aug-cc-pvtz', properties = ['dipole'])
--------------------------------------------------------------------------

    Molecular point group: c1
  Charge       = 0
  Multiplicity = 1
  Basis Set: AUG-CC-PVTZ
    Blend: AUG-CC-PVTZ
  Basis Set: (AUG-CC-PVTZ AUX)
    Blend: AUG-CC-PVTZ-JKFIT

    Orbital Energies [Eh]
    ---------------------

    Doubly Occupied:

       1A    -11.243348     2A    -11.241221     3A    -11.233742
       4A    -11.232746     5A     -1.093408     6A     -0.997187
       7A     -0.830866     8A     -0.753895     9A     -0.644971
      10A     -0.635437    11A     -0.556325    12A     -0.543764
      13A     -0.498227    14A     -0.445481    15A     -0.320248

  @DF-RHF Final Energy:  -154.97674099431703

   => Energetics <=

    Nuclear Repulsion Energy =            103.6207976143204519
    One-Electron Energy =                -412.6533444694512127
    Two-Electron Energy =                 154.0558058608137344
    Total Energy =                       -154.9767409943170264
  Basis Set: (AUG-CC-PVTZ AUX)
    Blend: AUG-CC-PVTZ-RI
    Molecular point group: c1

    Geometry (in Angstrom), charge = 0, multiplicity = 1:

       Center              X                  Y                   Z               Mass
    ------------   -----------------  -----------------  -----------------  -----------------
         C           -0.602293361684    -0.402558619044    -0.000003037294    12.000000000000
         C            0.593049738316     0.396381680956    -0.000003037294    12.000000000000
         C           -1.843716361684     0.112333380956     0.000002962706    12.000000000000
         C            1.851099638316    -0.107399619044     0.000002962706    12.000000000000
         H           -0.468776361684    -1.484352619044    -0.000008037294     1.007825032230
         H            0.476161638316     1.489289380956    -0.000008037294     1.007825032230
         H           -2.724355361684    -0.520858619044     0.000002962706     1.007825032230
         H           -2.011565361684     1.185920380956     0.000005962706     1.007825032230
         H            2.731740638316     0.525790380956     0.000002962706     1.007825032230
         H            2.018945638316    -1.180986619044     0.000005962706     1.007825032230

  Basis Set: AUG-CC-PVTZ
    Blend: AUG-CC-PVTZ
  Basis Set: (AUG-CC-PVTZ AUX)
    Blend: AUG-CC-PVTZ-JKFIT
	 Reference Energy          =    -154.9767409943170264 [Eh]
	 Singles Energy            =      -0.0000000000000000 [Eh]
	 Same-Spin Energy          =      -0.1595863064173287 [Eh]
	 Opposite-Spin Energy      =      -0.5739818118943558 [Eh]
	 Correlation Energy        =      -0.7335681183116844 [Eh]
	 Total Energy              =    -155.7103091126287211 [Eh]

	 ================> DF-SCS-MP2 Energies <==================
	-----------------------------------------------------------
	 SCS Same-Spin Scale       =       0.3333333333333333 [-]
	 SCS Opposite-Spin Scale   =       1.2000000000000000 [-]
	 SCS Same-Spin Energy      =      -0.0531954354724429 [Eh]
	 SCS Opposite-Spin Energy  =      -0.6887781742732270 [Eh]
	 SCS Correlation Energy    =      -0.7419736097456698 [Eh]
	 SCS Total Energy          =    -155.7187146040626828 [Eh]
	-----------------------------------------------------------

  Dipole Moment: [D]
     X:    -0.0142      Y:    -0.0036      Z:    -0.0000     Total:     0.0147

*** Psi4 exiting successfully. Buy a developer a beer!
