                               Psi4 1.4a3.dev225

  ==> Input File <==

--------------------------------------------------------------------------
#psi4
#
memory 32 gb

molecule  {
0 1
  C       -0.6059850    -0.4050260    -0.0000030
  C        0.6059860     0.4050280    -0.0000030
  C       -1.8935931     0.1290217     0.0000032
  C        1.8474080    -0.1098670     0.0000030
  H       -0.4724680    -1.4868200    -0.0000080
  H        0.4724700     1.4868220    -0.0000080
  H       -2.7280470    -0.5233260     0.0000030
  H       -2.0152570     1.1834530     0.0000060
  H        2.7280490     0.5233230     0.0000030
  H        2.0152540    -1.1834540     0.0000060
units angstrom
no_reorient  #important for SAPT in psi4, default
symmetry c1  #important for SAPT in psi4, default
}

set PROPERTIES_ORIGIN ["COM"]
properties('MP2/aug-cc-pvtz', properties = ['dipole'])
--------------------------------------------------------------------------

    Molecular point group: c1
  Charge       = 0
  Multiplicity = 1
  Basis Set: AUG-CC-PVTZ
    Blend: AUG-CC-PVTZ
  Basis Set: (AUG-CC-PVTZ AUX)
    Blend: AUG-CC-PVTZ-JKFIT

    Orbital Energies [Eh]
    ---------------------

    Doubly Occupied:

       1A    -11.250202     2A    -11.243292     3A    -11.234698
       4A    -11.233255     5A     -1.086762     6A     -0.993640
       7A     -0.833184     8A     -0.756189     9A     -0.643494
      10A     -0.636044    11A     -0.557455    12A     -0.548273
      13A     -0.501630    14A     -0.439106    15A     -0.316971

  @DF-RHF Final Energy:  -154.97268513815220

   => Energetics <=

    Nuclear Repulsion Energy =            102.8879096933298740
    One-Electron Energy =                -411.1727979401455286
    Two-Electron Energy =                 153.3122031086634252
    Total Energy =                       -154.9726851381522010
  Basis Set: (AUG-CC-PVTZ AUX)
    Blend: AUG-CC-PVTZ-RI
    Molecular point group: c1

    Geometry (in Angstrom), charge = 0, multiplicity = 1:

       Center              X                  Y                   Z               Mass
    ------------   -----------------  -----------------  -----------------  -----------------
         C           -0.595730800823    -0.409279309086    -0.000003081700    12.000000000000
         C            0.616240199177     0.400774690914    -0.000003081700    12.000000000000
         C           -1.883338900823     0.124768390914     0.000003118300    12.000000000000
         C            1.857662199177    -0.114120309086     0.000002918300    12.000000000000
         H           -0.462213800823    -1.491073309086    -0.000008081700     1.007825032230
         H            0.482724199177     1.482568690914    -0.000008081700     1.007825032230
         H           -2.717792800823    -0.527579309086     0.000002918300     1.007825032230
         H           -2.005002800823     1.179199690914     0.000005918300     1.007825032230
         H            2.738303199177     0.519069690914     0.000002918300     1.007825032230
         H            2.025508199177    -1.187707309086     0.000005918300     1.007825032230

  Basis Set: AUG-CC-PVTZ
    Blend: AUG-CC-PVTZ
  Basis Set: (AUG-CC-PVTZ AUX)
    Blend: AUG-CC-PVTZ-JKFIT
	 Reference Energy          =    -154.9726851381522010 [Eh]
	 Singles Energy            =      -0.0000000000000000 [Eh]
	 Same-Spin Energy          =      -0.1596747668331605 [Eh]
	 Opposite-Spin Energy      =      -0.5747560554182803 [Eh]
	 Correlation Energy        =      -0.7344308222514409 [Eh]
	 Total Energy              =    -155.7071159604036552 [Eh]

	 ================> DF-SCS-MP2 Energies <==================
	-----------------------------------------------------------
	 SCS Same-Spin Scale       =       0.3333333333333333 [-]
	 SCS Opposite-Spin Scale   =       1.2000000000000000 [-]
	 SCS Same-Spin Energy      =      -0.0532249222777201 [Eh]
	 SCS Opposite-Spin Energy  =      -0.6897072665019364 [Eh]
	 SCS Correlation Energy    =      -0.7429321887796565 [Eh]
	 SCS Total Energy          =    -155.7156173269318629 [Eh]
	-----------------------------------------------------------

  Dipole Moment: [D]
     X:     0.0393      Y:     0.0013      Z:    -0.0000     Total:     0.0394

*** Psi4 exiting successfully. Buy a developer a beer!
