                               Psi4 1.3.2 release

  ==> Input File <==

--------------------------------------------------------------------------
#psi4
#
memory 32 gb

molecule  {
0 1
  C       -0.6059800    -0.4049620    -0.0000070
  C        0.6059820     0.4049670    -0.0000070
  C       -1.6626586     0.0332539     0.0000032
  C        1.8474010    -0.1098720     0.0000050
  H       -0.4725230    -1.4867800    -0.0000150
  H        0.4725330     1.4867860    -0.0000150
  H       -2.7279640    -0.5234220     0.0000090
  H       -2.0152630     1.1834510     0.0000160
  H        2.7279690     0.5234090     0.0000090
  H        2.0152500    -1.1834560     0.0000160
units angstrom
no_reorient  #important for SAPT in psi4, default
symmetry c1  #important for SAPT in psi4, default
}

set PROPERTIES_ORIGIN ["COM"]
properties('MP2/aug-cc-pvtz', properties = ['dipole'])
--------------------------------------------------------------------------

    Molecular point group: c1
  Charge       = 0
  Multiplicity = 1
  Basis Set: AUG-CC-PVTZ
    Blend: AUG-CC-PVTZ
  Basis Set: (AUG-CC-PVTZ AUX)
    Blend: AUG-CC-PVTZ-JKFIT

    Orbital Energies [Eh]
    ---------------------

    Doubly Occupied:

       1A    -11.240231     2A    -11.229521     3A    -11.222489
       4A    -11.207248     5A     -1.128278     6A     -1.019230
       7A     -0.811030     8A     -0.744571     9A     -0.653415
      10A     -0.635677    11A     -0.573255    12A     -0.525661
      13A     -0.478628    14A     -0.445435    15A     -0.346088

  @DF-RHF Final Energy:  -154.90528409475550

   => Energetics <=

    Nuclear Repulsion Energy =            106.5384408323402994
    One-Electron Energy =                -418.3659388545225397
    Two-Electron Energy =                 156.9222139274267249
    Total Energy =                       -154.9052840947555012
  Basis Set: (AUG-CC-PVTZ AUX)
    Blend: AUG-CC-PVTZ-RI
    Molecular point group: c1

    Geometry (in Angstrom), charge = 0, multiplicity = 1:

       Center              X                  Y                   Z               Mass
    ------------   -----------------  -----------------  -----------------  -----------------
         C           -0.646998684823    -0.387951432510    -0.000006085175    12.000000000000
         C            0.564963315177     0.421977567490    -0.000006085175    12.000000000000
         C           -1.703677284823     0.050264467490     0.000004114825    12.000000000000
         C            1.806382315177    -0.092861432510     0.000005914825    12.000000000000
         H           -0.513541684823    -1.469769432510    -0.000014085175     1.007825032230
         H            0.431514315177     1.503796567490    -0.000014085175     1.007825032230
         H           -2.768982684823    -0.506411432510     0.000009914825     1.007825032230
         H           -2.056281684823     1.200461567490     0.000016914825     1.007825032230
         H            2.686950315177     0.540419567490     0.000009914825     1.007825032230
         H            1.974231315177    -1.166445432510     0.000016914825     1.007825032230

  Basis Set: AUG-CC-PVTZ
    Blend: AUG-CC-PVTZ
  Basis Set: (AUG-CC-PVTZ AUX)
    Blend: AUG-CC-PVTZ-JKFIT
	 Reference Energy          =    -154.9052840947555012 [Eh]
	 Singles Energy            =      -0.0000000000000000 [Eh]
	 Same-Spin Energy          =      -0.1591123029877737 [Eh]
	 Opposite-Spin Energy      =      -0.5715110087507975 [Eh]
	 Correlation Energy        =      -0.7306233117385712 [Eh]
	 Total Energy              =    -155.6359074064940842 [Eh]

	 ================> DF-SCS-MP2 Energies <==================
	-----------------------------------------------------------
	 SCS Same-Spin Scale       =       0.3333333333333333 [-]
	 SCS Opposite-Spin Scale   =       1.2000000000000000 [-]
	 SCS Same-Spin Energy      =      -0.0530374343292579 [Eh]
	 SCS Opposite-Spin Energy  =      -0.6858132105009570 [Eh]
	 SCS Correlation Energy    =      -0.7388506448302149 [Eh]
	 SCS Total Energy          =    -155.6441347395857235 [Eh]
	-----------------------------------------------------------

  Dipole Moment: [D]
     X:    -0.0625      Y:    -0.0460      Z:     0.0000     Total:     0.0776

*** Psi4 exiting successfully. Buy a developer a beer!
