                               Psi4 1.3.2 release

  ==> Input File <==

--------------------------------------------------------------------------
#psi4
#
memory 32 gb

molecule  {
0 1
  C       -0.6059800    -0.4049620    -0.0000070
  C        0.6059820     0.4049670    -0.0000070
  C       -1.8474020     0.1098690     0.0000050
  C        1.8084636    -0.1952149     0.0000053
  H       -0.4725230    -1.4867800    -0.0000150
  H        0.4725330     1.4867860    -0.0000150
  H       -2.7279640    -0.5234220     0.0000090
  H       -2.0152630     1.1834510     0.0000160
  H        2.7279690     0.5234090     0.0000090
  H        2.0152500    -1.1834560     0.0000160
units angstrom
no_reorient  #important for SAPT in psi4, default
symmetry c1  #important for SAPT in psi4, default
}

set PROPERTIES_ORIGIN ["COM"]
properties('MP2/aug-cc-pvtz', properties = ['dipole'])
--------------------------------------------------------------------------

    Molecular point group: c1
  Charge       = 0
  Multiplicity = 1
  Basis Set: AUG-CC-PVTZ
    Blend: AUG-CC-PVTZ
  Basis Set: (AUG-CC-PVTZ AUX)
    Blend: AUG-CC-PVTZ-JKFIT

    Orbital Energies [Eh]
    ---------------------

    Doubly Occupied:

       1A    -11.243988     2A    -11.240328     3A    -11.233384
       4A    -11.229933     5A     -1.092963     6A     -0.997985
       7A     -0.827301     8A     -0.761059     9A     -0.647747
      10A     -0.631413    11A     -0.566106    12A     -0.537072
      13A     -0.490606    14A     -0.444616    15A     -0.322381

  @DF-RHF Final Energy:  -154.96747772031927

   => Energetics <=

    Nuclear Repulsion Energy =            103.7451048741281028
    One-Electron Energy =                -412.8913980873035143
    Two-Electron Energy =                 154.1788154928561312
    Total Energy =                       -154.9674777203192662
  Basis Set: (AUG-CC-PVTZ AUX)
    Blend: AUG-CC-PVTZ-RI
    Molecular point group: c1

    Geometry (in Angstrom), charge = 0, multiplicity = 1:

       Center              X                  Y                   Z               Mass
    ------------   -----------------  -----------------  -----------------  -----------------
         C           -0.597335020354    -0.386013606238    -0.000006551436    12.000000000000
         C            0.614626979646     0.423915393762    -0.000006551436    12.000000000000
         C           -1.838757020354     0.128817393762     0.000005448564    12.000000000000
         C            1.817108579646    -0.176266506238     0.000005748564    12.000000000000
         H           -0.463878020354    -1.467831606238    -0.000014551436     1.007825032230
         H            0.481177979646     1.505734393762    -0.000014551436     1.007825032230
         H           -2.719319020354    -0.504473606238     0.000009448564     1.007825032230
         H           -2.006618020354     1.202399393762     0.000016448564     1.007825032230
         H            2.736613979646     0.542357393762     0.000009448564     1.007825032230
         H            2.023894979646    -1.164507606238     0.000016448564     1.007825032230

  Basis Set: AUG-CC-PVTZ
    Blend: AUG-CC-PVTZ
  Basis Set: (AUG-CC-PVTZ AUX)
    Blend: AUG-CC-PVTZ-JKFIT
	 Reference Energy          =    -154.9674777203192662 [Eh]
	 Singles Energy            =      -0.0000000000000000 [Eh]
	 Same-Spin Energy          =      -0.1593500588618234 [Eh]
	 Opposite-Spin Energy      =      -0.5738860741984518 [Eh]
	 Correlation Energy        =      -0.7332361330602752 [Eh]
	 Total Energy              =    -155.7007138533795398 [Eh]

	 ================> DF-SCS-MP2 Energies <==================
	-----------------------------------------------------------
	 SCS Same-Spin Scale       =       0.3333333333333333 [-]
	 SCS Opposite-Spin Scale   =       1.2000000000000000 [-]
	 SCS Same-Spin Energy      =      -0.0531166862872745 [Eh]
	 SCS Opposite-Spin Energy  =      -0.6886632890381422 [Eh]
	 SCS Correlation Energy    =      -0.7417799753254167 [Eh]
	 SCS Total Energy          =    -155.7092576956446806 [Eh]
	-----------------------------------------------------------

  Dipole Moment: [D]
     X:     0.0013      Y:    -0.0349      Z:     0.0000     Total:     0.0350

*** Psi4 exiting successfully. Buy a developer a beer!
