                               Psi4 1.3.2 release

  ==> Input File <==

--------------------------------------------------------------------------
#psi4
#
memory 32 gb

molecule  {
0 1
  C       -0.6059800    -0.4049620    -0.0000070
  C        0.6059820     0.4049670    -0.0000070
  C       -1.8474020     0.1098690     0.0000050
  C        1.8944157     0.0227120     0.0000045
  H       -0.4725230    -1.4867800    -0.0000150
  H        0.4725330     1.4867860    -0.0000150
  H       -2.7279640    -0.5234220     0.0000090
  H       -2.0152630     1.1834510     0.0000160
  H        2.7279690     0.5234090     0.0000090
  H        2.0152500    -1.1834560     0.0000160
units angstrom
no_reorient  #important for SAPT in psi4, default
symmetry c1  #important for SAPT in psi4, default
}

set PROPERTIES_ORIGIN ["COM"]
properties('MP2/aug-cc-pvtz', properties = ['dipole'])
--------------------------------------------------------------------------

    Molecular point group: c1
  Charge       = 0
  Multiplicity = 1
  Basis Set: AUG-CC-PVTZ
    Blend: AUG-CC-PVTZ
  Basis Set: (AUG-CC-PVTZ AUX)
    Blend: AUG-CC-PVTZ-JKFIT

    Orbital Energies [Eh]
    ---------------------

    Doubly Occupied:

       1A    -11.246591     2A    -11.244236     3A    -11.236515
       4A    -11.234227     5A     -1.091162     6A     -1.003174
       7A     -0.837640     8A     -0.753594     9A     -0.665801
      10A     -0.626145    11A     -0.575838    12A     -0.527983
      13A     -0.480652    14A     -0.444919    15A     -0.326168

  @DF-RHF Final Energy:  -154.95452133089765

   => Energetics <=

    Nuclear Repulsion Energy =            103.2892294906009880
    One-Electron Energy =                -411.8982121618917063
    Two-Electron Energy =                 153.6544613403930839
    Total Energy =                       -154.9545213308976486
  Basis Set: (AUG-CC-PVTZ AUX)
    Blend: AUG-CC-PVTZ-RI
    Molecular point group: c1

    Geometry (in Angstrom), charge = 0, multiplicity = 1:

       Center              X                  Y                   Z               Mass
    ------------   -----------------  -----------------  -----------------  -----------------
         C           -0.616418894584    -0.434399737012    -0.000006373813    12.000000000000
         C            0.595543105416     0.375529262988    -0.000006373813    12.000000000000
         C           -1.857840894584     0.080431262988     0.000005626187    12.000000000000
         C            1.883976805416    -0.006725737012     0.000005126187    12.000000000000
         H           -0.482961894584    -1.516217737012    -0.000014373813     1.007825032230
         H            0.462094105416     1.457348262988    -0.000014373813     1.007825032230
         H           -2.738402894584    -0.552859737012     0.000009626187     1.007825032230
         H           -2.025701894584     1.154013262988     0.000016626187     1.007825032230
         H            2.717530105416     0.493971262988     0.000009626187     1.007825032230
         H            2.004811105416    -1.212893737012     0.000016626187     1.007825032230

  Basis Set: AUG-CC-PVTZ
    Blend: AUG-CC-PVTZ
  Basis Set: (AUG-CC-PVTZ AUX)
    Blend: AUG-CC-PVTZ-JKFIT
	 Reference Energy          =    -154.9545213308976486 [Eh]
	 Singles Energy            =      -0.0000000000000000 [Eh]
	 Same-Spin Energy          =      -0.1594850125117912 [Eh]
	 Opposite-Spin Energy      =      -0.5746057889452252 [Eh]
	 Correlation Energy        =      -0.7340908014570164 [Eh]
	 Total Energy              =    -155.6886121323546774 [Eh]

	 ================> DF-SCS-MP2 Energies <==================
	-----------------------------------------------------------
	 SCS Same-Spin Scale       =       0.3333333333333333 [-]
	 SCS Opposite-Spin Scale   =       1.2000000000000000 [-]
	 SCS Same-Spin Energy      =      -0.0531616708372637 [Eh]
	 SCS Opposite-Spin Energy  =      -0.6895269467342702 [Eh]
	 SCS Correlation Energy    =      -0.7426886175715339 [Eh]
	 SCS Total Energy          =    -155.6972099484691796 [Eh]
	-----------------------------------------------------------

  Dipole Moment: [D]
     X:    -0.1041      Y:     0.0934      Z:     0.0000     Total:     0.1399

*** Psi4 exiting successfully. Buy a developer a beer!
