                               Psi4 1.3.2 release

  ==> Input File <==

--------------------------------------------------------------------------
#psi4
#
memory 32 gb

molecule  {
0 1
  C       -0.6059800    -0.4049620    -0.0000070
  C        0.5589673     0.2723830    -0.0000068
  C       -1.8474020     0.1098690     0.0000050
  C        1.8474010    -0.1098720     0.0000050
  H       -0.4725230    -1.4867800    -0.0000150
  H        0.4725330     1.4867860    -0.0000150
  H       -2.7279640    -0.5234220     0.0000090
  H       -2.0152630     1.1834510     0.0000160
  H        2.7279690     0.5234090     0.0000090
  H        2.0152500    -1.1834560     0.0000160
units angstrom
no_reorient  #important for SAPT in psi4, default
symmetry c1  #important for SAPT in psi4, default
}

set PROPERTIES_ORIGIN ["COM"]
properties('MP2/aug-cc-pvtz', properties = ['dipole'])
--------------------------------------------------------------------------

    Molecular point group: c1
  Charge       = 0
  Multiplicity = 1
  Basis Set: AUG-CC-PVTZ
    Blend: AUG-CC-PVTZ
  Basis Set: (AUG-CC-PVTZ AUX)
    Blend: AUG-CC-PVTZ-JKFIT

    Orbital Energies [Eh]
    ---------------------

    Doubly Occupied:

       1A    -11.245231     2A    -11.238941     3A    -11.235937
       4A    -11.234866     5A     -1.109722     6A     -1.000287
       7A     -0.851131     8A     -0.738715     9A     -0.654719
      10A     -0.635160    11A     -0.572891    12A     -0.537231
      13A     -0.468947    14A     -0.460956    15A     -0.317562

  @DF-RHF Final Energy:  -154.95257090714202

   => Energetics <=

    Nuclear Repulsion Energy =            104.5986891045569394
    One-Electron Energy =                -414.4979231176079679
    Two-Electron Energy =                 154.9466631059089821
    Total Energy =                       -154.9525709071420181
  Basis Set: (AUG-CC-PVTZ AUX)
    Blend: AUG-CC-PVTZ-RI
    Molecular point group: c1

    Geometry (in Angstrom), charge = 0, multiplicity = 1:

       Center              X                  Y                   Z               Mass
    ------------   -----------------  -----------------  -----------------  -----------------
         C           -0.595541624063    -0.375524703571    -0.000006529233    12.000000000000
         C            0.569405675937     0.301820296429    -0.000006329233    12.000000000000
         C           -1.836963624063     0.139306296429     0.000005470767    12.000000000000
         C            1.857839375937    -0.080434703571     0.000005470767    12.000000000000
         H           -0.462084624063    -1.457342703571    -0.000014529233     1.007825032230
         H            0.482971375937     1.516223296429    -0.000014529233     1.007825032230
         H           -2.717525624063    -0.493984703571     0.000009470767     1.007825032230
         H           -2.004824624063     1.212888296429     0.000016470767     1.007825032230
         H            2.738407375937     0.552846296429     0.000009470767     1.007825032230
         H            2.025688375937    -1.154018703571     0.000016470767     1.007825032230

  Basis Set: AUG-CC-PVTZ
    Blend: AUG-CC-PVTZ
  Basis Set: (AUG-CC-PVTZ AUX)
    Blend: AUG-CC-PVTZ-JKFIT
	 Reference Energy          =    -154.9525709071420181 [Eh]
	 Singles Energy            =      -0.0000000000000000 [Eh]
	 Same-Spin Energy          =      -0.1613988411559213 [Eh]
	 Opposite-Spin Energy      =      -0.5764774737969627 [Eh]
	 Correlation Energy        =      -0.7378763149528840 [Eh]
	 Total Energy              =    -155.6904472220948890 [Eh]

	 ================> DF-SCS-MP2 Energies <==================
	-----------------------------------------------------------
	 SCS Same-Spin Scale       =       0.3333333333333333 [-]
	 SCS Opposite-Spin Scale   =       1.2000000000000000 [-]
	 SCS Same-Spin Energy      =      -0.0537996137186404 [Eh]
	 SCS Opposite-Spin Energy  =      -0.6917729685563552 [Eh]
	 SCS Correlation Energy    =      -0.7455725822749956 [Eh]
	 SCS Total Energy          =    -155.6981434894170206 [Eh]
	-----------------------------------------------------------

  Dipole Moment: [D]
     X:    -0.0669      Y:    -0.0778      Z:     0.0000     Total:     0.1026

*** Psi4 exiting successfully. Buy a developer a beer!
