                               Psi4 1.4a3.dev225

  ==> Input File <==

--------------------------------------------------------------------------
#psi4
#
memory 32 gb

molecule  {
0 1
  C       -0.6059850    -0.4050260    -0.0000030
  C        0.6059860     0.4050280    -0.0000030
  C       -1.8474080     0.1098660     0.0000030
  C        1.8474080    -0.1098670     0.0000030
  H       -0.4785926    -1.4371965    -0.0000078
  H        0.4724700     1.4868220    -0.0000080
  H       -2.7280470    -0.5233260     0.0000030
  H       -2.0152570     1.1834530     0.0000060
  H        2.7280490     0.5233230     0.0000030
  H        2.0152540    -1.1834540     0.0000060
units angstrom
no_reorient  #important for SAPT in psi4, default
symmetry c1  #important for SAPT in psi4, default
}

set PROPERTIES_ORIGIN ["COM"]
properties('MP2/aug-cc-pvtz', properties = ['dipole'])
--------------------------------------------------------------------------

    Molecular point group: c1
  Charge       = 0
  Multiplicity = 1
  Basis Set: AUG-CC-PVTZ
    Blend: AUG-CC-PVTZ
  Basis Set: (AUG-CC-PVTZ AUX)
    Blend: AUG-CC-PVTZ-JKFIT

    Orbital Energies [Eh]
    ---------------------

    Doubly Occupied:

       1A    -11.241904     2A    -11.236430     3A    -11.231893
       4A    -11.231734     5A     -1.092550     6A     -0.999449
       7A     -0.828706     8A     -0.761452     9A     -0.645378
      10A     -0.636346    11A     -0.559441    12A     -0.546514
      13A     -0.498069    14A     -0.443559    15A     -0.322907

  @DF-RHF Final Energy:  -154.97730734993618

   => Energetics <=

    Nuclear Repulsion Energy =            103.7299765111360870
    One-Electron Energy =                -412.8619014381321790
    Two-Electron Energy =                 154.1546175770598950
    Total Energy =                       -154.9773073499361828
  Basis Set: (AUG-CC-PVTZ AUX)
    Blend: AUG-CC-PVTZ-RI
    Molecular point group: c1

    Geometry (in Angstrom), charge = 0, multiplicity = 1:

       Center              X                  Y                   Z               Mass
    ------------   -----------------  -----------------  -----------------  -----------------
         C           -0.605871033951    -0.405951524746    -0.000003041024    12.000000000000
         C            0.606099966049     0.404102475254    -0.000003041024    12.000000000000
         C           -1.847294033951     0.108940475254     0.000002958976    12.000000000000
         C            1.847521966049    -0.110792524746     0.000002958976    12.000000000000
         H           -0.478478633951    -1.438122024746    -0.000007841024     1.007825032230
         H            0.472583966049     1.485896475254    -0.000008041024     1.007825032230
         H           -2.727933033951    -0.524251524746     0.000002958976     1.007825032230
         H           -2.015143033951     1.182527475254     0.000005958976     1.007825032230
         H            2.728162966049     0.522397475254     0.000002958976     1.007825032230
         H            2.015367966049    -1.184379524746     0.000005958976     1.007825032230

  Basis Set: AUG-CC-PVTZ
    Blend: AUG-CC-PVTZ
  Basis Set: (AUG-CC-PVTZ AUX)
    Blend: AUG-CC-PVTZ-JKFIT
	 Reference Energy          =    -154.9773073499361828 [Eh]
	 Singles Energy            =      -0.0000000000000000 [Eh]
	 Same-Spin Energy          =      -0.1591215576657052 [Eh]
	 Opposite-Spin Energy      =      -0.5731637627883288 [Eh]
	 Correlation Energy        =      -0.7322853204540340 [Eh]
	 Total Energy              =    -155.7095926703902080 [Eh]

	 ================> DF-SCS-MP2 Energies <==================
	-----------------------------------------------------------
	 SCS Same-Spin Scale       =       0.3333333333333333 [-]
	 SCS Opposite-Spin Scale   =       1.2000000000000000 [-]
	 SCS Same-Spin Energy      =      -0.0530405192219017 [Eh]
	 SCS Opposite-Spin Energy  =      -0.6877965153459945 [Eh]
	 SCS Correlation Energy    =      -0.7408370345678962 [Eh]
	 SCS Total Energy          =    -155.7181443845040860 [Eh]
	-----------------------------------------------------------

  Dipole Moment: [D]
     X:    -0.0049      Y:    -0.0185      Z:    -0.0000     Total:     0.0191

*** Psi4 exiting successfully. Buy a developer a beer!
