                               Psi4 1.4a3.dev225

  ==> Input File <==

--------------------------------------------------------------------------
#psi4
#
memory 32 gb

molecule  {
0 1
  C       -0.6059850    -0.4050260    -0.0000030
  C        0.6059860     0.4050280    -0.0000030
  C       -1.8658820     0.1175283     0.0000031
  C        1.8474080    -0.1098670     0.0000030
  H       -0.4724680    -1.4868200    -0.0000080
  H        0.4724700     1.4868220    -0.0000080
  H       -2.7280470    -0.5233260     0.0000030
  H       -2.0152570     1.1834530     0.0000060
  H        2.7280490     0.5233230     0.0000030
  H        2.0152540    -1.1834540     0.0000060
units angstrom
no_reorient  #important for SAPT in psi4, default
symmetry c1  #important for SAPT in psi4, default
}

set PROPERTIES_ORIGIN ["COM"]
properties('MP2/aug-cc-pvtz', properties = ['dipole'])
--------------------------------------------------------------------------

    Molecular point group: c1
  Charge       = 0
  Multiplicity = 1
  Basis Set: AUG-CC-PVTZ
    Blend: AUG-CC-PVTZ
  Basis Set: (AUG-CC-PVTZ AUX)
    Blend: AUG-CC-PVTZ-JKFIT

    Orbital Energies [Eh]
    ---------------------

    Doubly Occupied:

       1A    -11.245583     2A    -11.242657     3A    -11.233148
       4A    -11.232540     5A     -1.089260     6A     -0.996859
       7A     -0.829915     8A     -0.755453     9A     -0.643757
      10A     -0.635483    11A     -0.556030    12A     -0.548032
      13A     -0.498464    14A     -0.441801    15A     -0.320645

  @DF-RHF Final Energy:  -154.97677558305148

   => Energetics <=

    Nuclear Repulsion Energy =            103.2597087296753813
    One-Electron Energy =                -411.9337103053462670
    Two-Electron Energy =                 153.6972259926194226
    Total Energy =                       -154.9767755830514773
  Basis Set: (AUG-CC-PVTZ AUX)
    Blend: AUG-CC-PVTZ-RI
    Molecular point group: c1

    Geometry (in Angstrom), charge = 0, multiplicity = 1:

       Center              X                  Y                   Z               Mass
    ------------   -----------------  -----------------  -----------------  -----------------
         C           -0.601883473616    -0.406727438916    -0.000003059497    12.000000000000
         C            0.610087526384     0.403326561084    -0.000003059497    12.000000000000
         C           -1.861780473616     0.115826861084     0.000003040503    12.000000000000
         C            1.851509526384    -0.111568438916     0.000002940503    12.000000000000
         H           -0.468366473616    -1.488521438916    -0.000008059497     1.007825032230
         H            0.476571526384     1.485120561084    -0.000008059497     1.007825032230
         H           -2.723945473616    -0.525027438916     0.000002940503     1.007825032230
         H           -2.011155473616     1.181751561084     0.000005940503     1.007825032230
         H            2.732150526384     0.521621561084     0.000002940503     1.007825032230
         H            2.019355526384    -1.185155438916     0.000005940503     1.007825032230

  Basis Set: AUG-CC-PVTZ
    Blend: AUG-CC-PVTZ
  Basis Set: (AUG-CC-PVTZ AUX)
    Blend: AUG-CC-PVTZ-JKFIT
	 Reference Energy          =    -154.9767755830514773 [Eh]
	 Singles Energy            =      -0.0000000000000000 [Eh]
	 Same-Spin Energy          =      -0.1593773504871143 [Eh]
	 Opposite-Spin Energy      =      -0.5739165936932311 [Eh]
	 Correlation Energy        =      -0.7332939441803454 [Eh]
	 Total Energy              =    -155.7100695272318092 [Eh]

	 ================> DF-SCS-MP2 Energies <==================
	-----------------------------------------------------------
	 SCS Same-Spin Scale       =       0.3333333333333333 [-]
	 SCS Opposite-Spin Scale   =       1.2000000000000000 [-]
	 SCS Same-Spin Energy      =      -0.0531257834957048 [Eh]
	 SCS Opposite-Spin Energy  =      -0.6886999124318773 [Eh]
	 SCS Correlation Energy    =      -0.7418256959275821 [Eh]
	 SCS Total Energy          =    -155.7186012789790652 [Eh]
	-----------------------------------------------------------

  Dipole Moment: [D]
     X:     0.0153      Y:     0.0008      Z:    -0.0000     Total:     0.0153

*** Psi4 exiting successfully. Buy a developer a beer!
