                               Psi4 1.4a2.dev612

  ==> Input File <==

--------------------------------------------------------------------------
#psi4
#
memory 32 gb

molecule  {
0 1
  N        0.0358730    -0.9798690     0.3249120
  N        1.3785830     0.9084480    -0.0806070
  C       -1.2345860    -0.4058730     0.1373700
  C        1.2874650    -0.4145780     0.1205110
  C       -2.2834660    -1.2695640    -0.2193620
  C       -1.5135820     0.9493270     0.3763290
  C        2.4028291    -1.2867427    -0.0329955
  C       -3.5834040    -0.7896780    -0.3581100
  C       -2.8175520     1.4190740     0.2143410
  C       -3.8597110     0.5618000    -0.1426300
  C        3.6734950    -0.6966520    -0.0183070
  C        3.7809840     0.6818220    -0.2348670
  C        2.6094310     1.4280530    -0.2543460
  H        0.0343890    -1.9933920     0.2907710
  H       -2.0721120    -2.3220440    -0.4067350
  H       -0.7127900     1.6203970     0.6554980
  H        2.3062980    -2.3249110     0.3351780
  H       -4.3793760    -1.4759950    -0.6376530
  H       -3.0201620     2.4727340     0.3929930
  H       -4.8713210     0.9418730    -0.2585160
  H        4.5591860    -1.3270150     0.0072260
  H        4.7445120     1.1601010    -0.3803610
  H        2.6378470     2.5042230    -0.4179490
units angstrom
no_reorient  #important for SAPT in psi4, default
symmetry c1  #important for SAPT in psi4, default
}

set PROPERTIES_ORIGIN ["COM"]
properties('MP2/aug-cc-pvtz', properties = ['dipole'])
--------------------------------------------------------------------------

    Molecular point group: c1
  Charge       = 0
  Multiplicity = 1
  Basis Set: AUG-CC-PVTZ
    Blend: AUG-CC-PVTZ
  Basis Set: (AUG-CC-PVTZ AUX)
    Blend: AUG-CC-PVTZ-JKFIT

    Orbital Energies [Eh]
    ---------------------

    Doubly Occupied:

       1A    -15.592574     2A    -15.556367     3A    -11.330821
       4A    -11.282881     5A    -11.282566     6A    -11.267310
       7A    -11.242025     8A    -11.235378     9A    -11.232018
      10A    -11.230692    11A    -11.230514    12A    -11.223503
      13A    -11.220805    14A     -1.296466    15A     -1.222778
      16A     -1.134736    17A     -1.086082    18A     -1.034321
      19A     -1.009681    20A     -0.980950    21A     -0.868711
      22A     -0.861119    23A     -0.824702    24A     -0.801742
      25A     -0.727941    26A     -0.714691    27A     -0.678023
      28A     -0.662632    29A     -0.640365    30A     -0.624222
      31A     -0.598250    32A     -0.596358    33A     -0.584198
      34A     -0.579227    35A     -0.568218    36A     -0.533522
      37A     -0.516076    38A     -0.508174    39A     -0.489611
      40A     -0.459740    41A     -0.418463    42A     -0.385246
      43A     -0.343085    44A     -0.332694    45A     -0.283318

  @DF-RHF Final Energy:  -531.43929494913959

   => Energetics <=

    Nuclear Repulsion Energy =            698.1708058564056500
    One-Electron Energy =               -2104.6346087719889510
    Two-Electron Energy =                 875.0245079664437071
    Total Energy =                       -531.4392949491395939
  Basis Set: (AUG-CC-PVTZ AUX)
    Blend: AUG-CC-PVTZ-RI
    Molecular point group: c1

    Geometry (in Angstrom), charge = 0, multiplicity = 1:

       Center              X                  Y                   Z               Mass
    ------------   -----------------  -----------------  -----------------  -----------------
         N            0.032521796949    -0.982067290991     0.336356953218    14.003074004430
         N            1.375231796949     0.906249709009    -0.069162046782    14.003074004430
         C           -1.237937203051    -0.408071290991     0.148814953218    12.000000000000
         C            1.284113796949    -0.416776290991     0.131955953218    12.000000000000
         C           -2.286817203051    -1.271762290991    -0.207917046782    12.000000000000
         C           -1.516933203051     0.947128709009     0.387773953218    12.000000000000
         C            2.399477896949    -1.288940990991    -0.021550546782    12.000000000000
         C           -3.586755203051    -0.791876290991    -0.346665046782    12.000000000000
         C           -2.820903203051     1.416875709009     0.225785953218    12.000000000000
         C           -3.863062203051     0.559601709009    -0.131185046782    12.000000000000
         C            3.670143796949    -0.698850290991    -0.006862046782    12.000000000000
         C            3.777632796949     0.679623709009    -0.223422046782    12.000000000000
         C            2.606079796949     1.425854709009    -0.242901046782    12.000000000000
         H            0.031037796949    -1.995590290991     0.302215953218     1.007825032230
         H           -2.075463203051    -2.324242290991    -0.395290046782     1.007825032230
         H           -0.716141203051     1.618198709009     0.666942953218     1.007825032230
         H            2.302946796949    -2.327109290991     0.346622953218     1.007825032230
         H           -4.382727203051    -1.478193290991    -0.626208046782     1.007825032230
         H           -3.023513203051     2.470535709009     0.404437953218     1.007825032230
         H           -4.874672203051     0.939674709009    -0.247071046782     1.007825032230
         H            4.555834796949    -1.329213290991     0.018670953218     1.007825032230
         H            4.741160796949     1.157902709009    -0.368916046782     1.007825032230
         H            2.634495796949     2.502024709009    -0.406504046782     1.007825032230

  Basis Set: AUG-CC-PVTZ
    Blend: AUG-CC-PVTZ
  Basis Set: (AUG-CC-PVTZ AUX)
    Blend: AUG-CC-PVTZ-JKFIT
	 Reference Energy          =    -531.4392949491395939 [Eh]
	 Singles Energy            =      -0.0000000000000000 [Eh]
	 Same-Spin Energy          =      -0.5923067854900612 [Eh]
	 Opposite-Spin Energy      =      -1.8148502179258372 [Eh]
	 Correlation Energy        =      -2.4071570034158984 [Eh]
	 Total Energy              =    -533.8464519525555261 [Eh]

	 ================> DF-SCS-MP2 Energies <==================
	-----------------------------------------------------------
	 SCS Same-Spin Scale       =       0.3333333333333333 [-]
	 SCS Opposite-Spin Scale   =       1.2000000000000000 [-]
	 SCS Same-Spin Energy      =      -0.1974355951633537 [Eh]
	 SCS Opposite-Spin Energy  =      -2.1778202615110045 [Eh]
	 SCS Correlation Energy    =      -2.3752558566743582 [Eh]
	 SCS Total Energy          =    -533.8145508058139512 [Eh]
	-----------------------------------------------------------

  Dipole Moment: [D]
     X:     1.4367      Y:    -1.7417      Z:     0.0275     Total:     2.2580

*** Psi4 exiting successfully. Buy a developer a beer!
