                               Psi4 1.4a2.dev612

  ==> Input File <==

--------------------------------------------------------------------------
#psi4
#
memory 32 gb

molecule  {
0 1
  N        0.0358730    -0.9798690     0.3249120
  N        1.3785830     0.9084480    -0.0806070
  C       -1.2345860    -0.4058730     0.1373700
  C        1.2874650    -0.4145780     0.1205110
  C       -2.2834660    -1.2695640    -0.2193620
  C       -1.4731654     0.9869115     0.1840950
  C        2.4196470    -1.2564020     0.1639730
  C       -3.5834040    -0.7896780    -0.3581100
  C       -2.8175520     1.4190740     0.2143410
  C       -3.8597110     0.5618000    -0.1426300
  C        3.6734950    -0.6966520    -0.0183070
  C        3.7809840     0.6818220    -0.2348670
  C        2.6094310     1.4280530    -0.2543460
  H        0.0343890    -1.9933920     0.2907710
  H       -2.0721120    -2.3220440    -0.4067350
  H       -0.7127900     1.6203970     0.6554980
  H        2.3062980    -2.3249110     0.3351780
  H       -4.3793760    -1.4759950    -0.6376530
  H       -3.0201620     2.4727340     0.3929930
  H       -4.8713210     0.9418730    -0.2585160
  H        4.5591860    -1.3270150     0.0072260
  H        4.7445120     1.1601010    -0.3803610
  H        2.6378470     2.5042230    -0.4179490
units angstrom
no_reorient  #important for SAPT in psi4, default
symmetry c1  #important for SAPT in psi4, default
}

set PROPERTIES_ORIGIN ["COM"]
properties('MP2/aug-cc-pvtz', properties = ['dipole'])
--------------------------------------------------------------------------

    Molecular point group: c1
  Charge       = 0
  Multiplicity = 1
  Basis Set: AUG-CC-PVTZ
    Blend: AUG-CC-PVTZ
  Basis Set: (AUG-CC-PVTZ AUX)
    Blend: AUG-CC-PVTZ-JKFIT

    Orbital Energies [Eh]
    ---------------------

    Doubly Occupied:

       1A    -15.593557     2A    -15.555729     3A    -11.328102
       4A    -11.285706     5A    -11.279648     6A    -11.263729
       7A    -11.239978     8A    -11.236755     9A    -11.234784
      10A    -11.230619    11A    -11.229660    12A    -11.222977
      13A    -11.222081    14A     -1.296842    15A     -1.222520
      16A     -1.133128    17A     -1.088158    18A     -1.034850
      19A     -1.007139    20A     -0.981014    21A     -0.869273
      22A     -0.862295    23A     -0.823407    24A     -0.800714
      25A     -0.727925    26A     -0.714558    27A     -0.679365
      28A     -0.663046    29A     -0.641860    30A     -0.623444
      31A     -0.600780    32A     -0.591738    33A     -0.586835
      34A     -0.578314    35A     -0.566947    36A     -0.534513
      37A     -0.515405    38A     -0.507549    39A     -0.488885
      40A     -0.459271    41A     -0.416964    42A     -0.385959
      43A     -0.343207    44A     -0.331292    45A     -0.281578

  @DF-RHF Final Energy:  -531.43894700476494

   => Energetics <=

    Nuclear Repulsion Energy =            698.5445866911851454
    One-Electron Energy =               -2105.4028649629876782
    Two-Electron Energy =                 875.4193312670377054
    Total Energy =                       -531.4389470047649411
  Basis Set: (AUG-CC-PVTZ AUX)
    Blend: AUG-CC-PVTZ-RI
    Molecular point group: c1

    Geometry (in Angstrom), charge = 0, multiplicity = 1:

       Center              X                  Y                   Z               Mass
    ------------   -----------------  -----------------  -----------------  -----------------
         N            0.028483719343    -0.986859631782     0.336022919053    14.003074004430
         N            1.371193719343     0.901457368218    -0.069496080947    14.003074004430
         C           -1.241975280657    -0.412863631782     0.148480919053    12.000000000000
         C            1.280075719343    -0.421568631782     0.131621919053    12.000000000000
         C           -2.290855280657    -1.276554631782    -0.208251080947    12.000000000000
         C           -1.480554680657     0.979920868218     0.195205919053    12.000000000000
         C            2.412257719343    -1.263392631782     0.175083919053    12.000000000000
         C           -3.590793280657    -0.796668631782    -0.346999080947    12.000000000000
         C           -2.824941280657     1.412083368218     0.225451919053    12.000000000000
         C           -3.867100280657     0.554809368218    -0.131519080947    12.000000000000
         C            3.666105719343    -0.703642631782    -0.007196080947    12.000000000000
         C            3.773594719343     0.674831368218    -0.223756080947    12.000000000000
         C            2.602041719343     1.421062368218    -0.243235080947    12.000000000000
         H            0.026999719343    -2.000382631782     0.301881919053     1.007825032230
         H           -2.079501280657    -2.329034631782    -0.395624080947     1.007825032230
         H           -0.720179280657     1.613406368218     0.666608919053     1.007825032230
         H            2.298908719343    -2.331901631782     0.346288919053     1.007825032230
         H           -4.386765280657    -1.482985631782    -0.626542080947     1.007825032230
         H           -3.027551280657     2.465743368218     0.404103919053     1.007825032230
         H           -4.878710280657     0.934882368218    -0.247405080947     1.007825032230
         H            4.551796719343    -1.334005631782     0.018336919053     1.007825032230
         H            4.737122719343     1.153110368218    -0.369250080947     1.007825032230
         H            2.630457719343     2.497232368218    -0.406838080947     1.007825032230

  Basis Set: AUG-CC-PVTZ
    Blend: AUG-CC-PVTZ
  Basis Set: (AUG-CC-PVTZ AUX)
    Blend: AUG-CC-PVTZ-JKFIT
	 Reference Energy          =    -531.4389470047649411 [Eh]
	 Singles Energy            =      -0.0000000000000000 [Eh]
	 Same-Spin Energy          =      -0.5927644455717974 [Eh]
	 Opposite-Spin Energy      =      -1.8159412438856142 [Eh]
	 Correlation Energy        =      -2.4087056894574115 [Eh]
	 Total Energy              =    -533.8476526942223472 [Eh]

	 ================> DF-SCS-MP2 Energies <==================
	-----------------------------------------------------------
	 SCS Same-Spin Scale       =       0.3333333333333333 [-]
	 SCS Opposite-Spin Scale   =       1.2000000000000000 [-]
	 SCS Same-Spin Energy      =      -0.1975881485239325 [Eh]
	 SCS Opposite-Spin Energy  =      -2.1791294926627369 [Eh]
	 SCS Correlation Energy    =      -2.3767176411866693 [Eh]
	 SCS Total Energy          =    -533.8156646459516423 [Eh]
	-----------------------------------------------------------

  Dipole Moment: [D]
     X:     1.4890      Y:    -1.9154      Z:     0.0222     Total:     2.4262

*** Psi4 exiting successfully. Buy a developer a beer!
