                               Psi4 1.4a2.dev612

  ==> Input File <==

--------------------------------------------------------------------------
#psi4
#
memory 32 gb

molecule  {
0 1
  N        0.0358730    -0.9798690     0.3249120
  N        1.3785830     0.9084480    -0.0806070
  C       -1.2345860    -0.4058730     0.1373700
  C        1.2874650    -0.4145780     0.1205110
  C       -2.2834660    -1.2695640    -0.2193620
  C       -1.5135820     0.9493270     0.3763290
  C        2.3986246    -1.2943279    -0.0822377
  C       -3.5834040    -0.7896780    -0.3581100
  C       -2.8175520     1.4190740     0.2143410
  C       -3.8597110     0.5618000    -0.1426300
  C        3.6734950    -0.6966520    -0.0183070
  C        3.7809840     0.6818220    -0.2348670
  C        2.6094310     1.4280530    -0.2543460
  H        0.0343890    -1.9933920     0.2907710
  H       -2.0721120    -2.3220440    -0.4067350
  H       -0.7127900     1.6203970     0.6554980
  H        2.3062980    -2.3249110     0.3351780
  H       -4.3793760    -1.4759950    -0.6376530
  H       -3.0201620     2.4727340     0.3929930
  H       -4.8713210     0.9418730    -0.2585160
  H        4.5591860    -1.3270150     0.0072260
  H        4.7445120     1.1601010    -0.3803610
  H        2.6378470     2.5042230    -0.4179490
units angstrom
no_reorient  #important for SAPT in psi4, default
symmetry c1  #important for SAPT in psi4, default
}

set PROPERTIES_ORIGIN ["COM"]
properties('MP2/aug-cc-pvtz', properties = ['dipole'])
--------------------------------------------------------------------------

    Molecular point group: c1
  Charge       = 0
  Multiplicity = 1
  Basis Set: AUG-CC-PVTZ
    Blend: AUG-CC-PVTZ
  Basis Set: (AUG-CC-PVTZ AUX)
    Blend: AUG-CC-PVTZ-JKFIT

    Orbital Energies [Eh]
    ---------------------

    Doubly Occupied:

       1A    -15.592961     2A    -15.556395     3A    -11.332294
       4A    -11.283943     5A    -11.283038     6A    -11.269098
       7A    -11.243354     8A    -11.235495     9A    -11.232144
      10A    -11.230850    11A    -11.230570    12A    -11.223657
      13A    -11.220965    14A     -1.296541    15A     -1.223027
      16A     -1.134862    17A     -1.085038    18A     -1.033930
      19A     -1.009815    20A     -0.980764    21A     -0.868303
      22A     -0.860635    23A     -0.824750    24A     -0.801591
      25A     -0.727913    26A     -0.714583    27A     -0.677186
      28A     -0.661848    29A     -0.639565    30A     -0.623599
      31A     -0.598174    32A     -0.595603    33A     -0.583832
      34A     -0.578827    35A     -0.567792    36A     -0.532819
      37A     -0.515103    38A     -0.508311    39A     -0.489744
      40A     -0.459583    41A     -0.418131    42A     -0.384818
      43A     -0.342942    44A     -0.332833    45A     -0.283835

  @DF-RHF Final Energy:  -531.43304326559223

   => Energetics <=

    Nuclear Repulsion Energy =            697.9290136673067764
    One-Electron Energy =               -2104.1419943428631996
    Two-Electron Energy =                 874.7799374099643046
    Total Energy =                       -531.4330432655922323
  Basis Set: (AUG-CC-PVTZ AUX)
    Blend: AUG-CC-PVTZ-RI
    Molecular point group: c1

    Geometry (in Angstrom), charge = 0, multiplicity = 1:

       Center              X                  Y                   Z               Mass
    ------------   -----------------  -----------------  -----------------  -----------------
         N            0.032818437913    -0.981532130795     0.339831148416    14.003074004430
         N            1.375528437913     0.906784869205    -0.065687851584    14.003074004430
         C           -1.237640562087    -0.407536130795     0.152289148416    12.000000000000
         C            1.284410437913    -0.416241130795     0.135430148416    12.000000000000
         C           -2.286520562087    -1.271227130795    -0.204442851584    12.000000000000
         C           -1.516636562087     0.947663869205     0.391248148416    12.000000000000
         C            2.395570037913    -1.295991030795    -0.067318551584    12.000000000000
         C           -3.586458562087    -0.791341130795    -0.343190851584    12.000000000000
         C           -2.820606562087     1.417410869205     0.229260148416    12.000000000000
         C           -3.862765562087     0.560136869205    -0.127710851584    12.000000000000
         C            3.670440437913    -0.698315130795    -0.003387851584    12.000000000000
         C            3.777929437913     0.680158869205    -0.219947851584    12.000000000000
         C            2.606376437913     1.426389869205    -0.239426851584    12.000000000000
         H            0.031334437913    -1.995055130795     0.305690148416     1.007825032230
         H           -2.075166562087    -2.323707130795    -0.391815851584     1.007825032230
         H           -0.715844562087     1.618733869205     0.670417148416     1.007825032230
         H            2.303243437913    -2.326574130795     0.350097148416     1.007825032230
         H           -4.382430562087    -1.477658130795    -0.622733851584     1.007825032230
         H           -3.023216562087     2.471070869205     0.407912148416     1.007825032230
         H           -4.874375562087     0.940209869205    -0.243596851584     1.007825032230
         H            4.556131437913    -1.328678130795     0.022145148416     1.007825032230
         H            4.741457437913     1.158437869205    -0.365441851584     1.007825032230
         H            2.634792437913     2.502559869205    -0.403029851584     1.007825032230

  Basis Set: AUG-CC-PVTZ
    Blend: AUG-CC-PVTZ
  Basis Set: (AUG-CC-PVTZ AUX)
    Blend: AUG-CC-PVTZ-JKFIT
	 Reference Energy          =    -531.4330432655922323 [Eh]
	 Singles Energy            =      -0.0000000000000000 [Eh]
	 Same-Spin Energy          =      -0.5924569441440968 [Eh]
	 Opposite-Spin Energy      =      -1.8155098541382717 [Eh]
	 Correlation Energy        =      -2.4079667982823683 [Eh]
	 Total Energy              =    -533.8410100638745917 [Eh]

	 ================> DF-SCS-MP2 Energies <==================
	-----------------------------------------------------------
	 SCS Same-Spin Scale       =       0.3333333333333333 [-]
	 SCS Opposite-Spin Scale   =       1.2000000000000000 [-]
	 SCS Same-Spin Energy      =      -0.1974856480480323 [Eh]
	 SCS Opposite-Spin Energy  =      -2.1786118249659259 [Eh]
	 SCS Correlation Energy    =      -2.3760974730139583 [Eh]
	 SCS Total Energy          =    -533.8091407386061746 [Eh]
	-----------------------------------------------------------

  Dipole Moment: [D]
     X:     1.4141      Y:    -1.6862      Z:     0.0513     Total:     2.2013

*** Psi4 exiting successfully. Buy a developer a beer!
