                               Psi4 1.4a2.dev612

  ==> Input File <==

--------------------------------------------------------------------------
#psi4
#
memory 32 gb

molecule  {
0 1
  N        0.0358730    -0.9798690     0.3249120
  N        1.3785830     0.9084480    -0.0806070
  C       -1.2345860    -0.4058730     0.1373700
  C        1.2874650    -0.4145780     0.1205110
  C       -2.2834660    -1.2695640    -0.2193620
  C       -1.5034778     0.9587231     0.3282705
  C        2.4196470    -1.2564020     0.1639730
  C       -3.5834040    -0.7896780    -0.3581100
  C       -2.8175520     1.4190740     0.2143410
  C       -3.8597110     0.5618000    -0.1426300
  C        3.6734950    -0.6966520    -0.0183070
  C        3.7809840     0.6818220    -0.2348670
  C        2.6094310     1.4280530    -0.2543460
  H        0.0343890    -1.9933920     0.2907710
  H       -2.0721120    -2.3220440    -0.4067350
  H       -0.7127900     1.6203970     0.6554980
  H        2.3062980    -2.3249110     0.3351780
  H       -4.3793760    -1.4759950    -0.6376530
  H       -3.0201620     2.4727340     0.3929930
  H       -4.8713210     0.9418730    -0.2585160
  H        4.5591860    -1.3270150     0.0072260
  H        4.7445120     1.1601010    -0.3803610
  H        2.6378470     2.5042230    -0.4179490
units angstrom
no_reorient  #important for SAPT in psi4, default
symmetry c1  #important for SAPT in psi4, default
}

set PROPERTIES_ORIGIN ["COM"]
properties('MP2/aug-cc-pvtz', properties = ['dipole'])
--------------------------------------------------------------------------

    Molecular point group: c1
  Charge       = 0
  Multiplicity = 1
  Basis Set: AUG-CC-PVTZ
    Blend: AUG-CC-PVTZ
  Basis Set: (AUG-CC-PVTZ AUX)
    Blend: AUG-CC-PVTZ-JKFIT

    Orbital Energies [Eh]
    ---------------------

    Doubly Occupied:

       1A    -15.592278     2A    -15.556170     3A    -11.328052
       4A    -11.282768     5A    -11.279892     6A    -11.263747
       7A    -11.239679     8A    -11.235256     9A    -11.232053
      10A    -11.230433    11A    -11.230317    12A    -11.223095
      13A    -11.220718    14A     -1.296427    15A     -1.222398
      16A     -1.134405    17A     -1.088099    18A     -1.034914
      19A     -1.009280    20A     -0.981307    21A     -0.869354
      22A     -0.862158    23A     -0.824628    24A     -0.801927
      25A     -0.728133    26A     -0.714913    27A     -0.679938
      28A     -0.664206    29A     -0.642086    30A     -0.624330
      31A     -0.601049    32A     -0.595468    33A     -0.585088
      34A     -0.579605    35A     -0.568683    36A     -0.534473
      37A     -0.517484    38A     -0.507918    39A     -0.489829
      40A     -0.460195    41A     -0.418603    42A     -0.386101
      43A     -0.343551    44A     -0.332227    45A     -0.282070

  @DF-RHF Final Energy:  -531.44959343462790

   => Energetics <=

    Nuclear Repulsion Energy =            698.6558417841556548
    One-Electron Energy =               -2105.6202663015324106
    Two-Electron Energy =                 875.5148310827488558
    Total Energy =                       -531.4495934346279000
  Basis Set: (AUG-CC-PVTZ AUX)
    Blend: AUG-CC-PVTZ-RI
    Molecular point group: c1

    Geometry (in Angstrom), charge = 0, multiplicity = 1:

       Center              X                  Y                   Z               Mass
    ------------   -----------------  -----------------  -----------------  -----------------
         N            0.030622356417    -0.984870849723     0.325850874956    14.003074004430
         N            1.373332356417     0.903446150277    -0.079668125044    14.003074004430
         C           -1.239836643583    -0.410874849723     0.138308874956    12.000000000000
         C            1.282214356417    -0.419579849723     0.121449874956    12.000000000000
         C           -2.288716643583    -1.274565849723    -0.218423125044    12.000000000000
         C           -1.508728443583     0.953721250277     0.329209374956    12.000000000000
         C            2.414396356417    -1.261403849723     0.164911874956    12.000000000000
         C           -3.588654643583    -0.794679849723    -0.357171125044    12.000000000000
         C           -2.822802643583     1.414072150277     0.215279874956    12.000000000000
         C           -3.864961643583     0.556798150277    -0.141691125044    12.000000000000
         C            3.668244356417    -0.701653849723    -0.017368125044    12.000000000000
         C            3.775733356417     0.676820150277    -0.233928125044    12.000000000000
         C            2.604180356417     1.423051150277    -0.253407125044    12.000000000000
         H            0.029138356417    -1.998393849723     0.291709874956     1.007825032230
         H           -2.077362643583    -2.327045849723    -0.405796125044     1.007825032230
         H           -0.718040643583     1.615395150277     0.656436874956     1.007825032230
         H            2.301047356417    -2.329912849723     0.336116874956     1.007825032230
         H           -4.384626643583    -1.480996849723    -0.636714125044     1.007825032230
         H           -3.025412643583     2.467732150277     0.393931874956     1.007825032230
         H           -4.876571643583     0.936871150277    -0.257577125044     1.007825032230
         H            4.553935356417    -1.332016849723     0.008164874956     1.007825032230
         H            4.739261356417     1.155099150277    -0.379422125044     1.007825032230
         H            2.632596356417     2.499221150277    -0.417010125044     1.007825032230

  Basis Set: AUG-CC-PVTZ
    Blend: AUG-CC-PVTZ
  Basis Set: (AUG-CC-PVTZ AUX)
    Blend: AUG-CC-PVTZ-JKFIT
	 Reference Energy          =    -531.4495934346279000 [Eh]
	 Singles Energy            =      -0.0000000000000000 [Eh]
	 Same-Spin Energy          =      -0.5921138177667511 [Eh]
	 Opposite-Spin Energy      =      -1.8141098723454432 [Eh]
	 Correlation Energy        =      -2.4062236901121943 [Eh]
	 Total Energy              =    -533.8558171247400423 [Eh]

	 ================> DF-SCS-MP2 Energies <==================
	-----------------------------------------------------------
	 SCS Same-Spin Scale       =       0.3333333333333333 [-]
	 SCS Opposite-Spin Scale   =       1.2000000000000000 [-]
	 SCS Same-Spin Energy      =      -0.1973712725889170 [Eh]
	 SCS Opposite-Spin Energy  =      -2.1769318468145316 [Eh]
	 SCS Correlation Energy    =      -2.3743031194034487 [Eh]
	 SCS Total Energy          =    -533.8238965540313075 [Eh]
	-----------------------------------------------------------

  Dipole Moment: [D]
     X:     1.4736      Y:    -1.8586      Z:    -0.0409     Total:     2.3722

*** Psi4 exiting successfully. Buy a developer a beer!
