                               Psi4 1.4a2.dev612

  ==> Input File <==

--------------------------------------------------------------------------
#psi4
#
memory 32 gb

molecule  {
0 1
  N        0.0358730    -0.9798690     0.3249120
  N        1.3785830     0.9084480    -0.0806070
  C       -1.2345860    -0.4058730     0.1373700
  C        1.2874650    -0.4145780     0.1205110
  C       -2.2834660    -1.2695640    -0.2193620
  C       -1.4933737     0.9681193     0.2802120
  C        2.4196470    -1.2564020     0.1639730
  C       -3.5834040    -0.7896780    -0.3581100
  C       -2.8175520     1.4190740     0.2143410
  C       -3.8597110     0.5618000    -0.1426300
  C        3.6734950    -0.6966520    -0.0183070
  C        3.7809840     0.6818220    -0.2348670
  C        2.6094310     1.4280530    -0.2543460
  H        0.0343890    -1.9933920     0.2907710
  H       -2.0721120    -2.3220440    -0.4067350
  H       -0.7127900     1.6203970     0.6554980
  H        2.3062980    -2.3249110     0.3351780
  H       -4.3793760    -1.4759950    -0.6376530
  H       -3.0201620     2.4727340     0.3929930
  H       -4.8713210     0.9418730    -0.2585160
  H        4.5591860    -1.3270150     0.0072260
  H        4.7445120     1.1601010    -0.3803610
  H        2.6378470     2.5042230    -0.4179490
units angstrom
no_reorient  #important for SAPT in psi4, default
symmetry c1  #important for SAPT in psi4, default
}

set PROPERTIES_ORIGIN ["COM"]
properties('MP2/aug-cc-pvtz', properties = ['dipole'])
--------------------------------------------------------------------------

    Molecular point group: c1
  Charge       = 0
  Multiplicity = 1
  Basis Set: AUG-CC-PVTZ
    Blend: AUG-CC-PVTZ
  Basis Set: (AUG-CC-PVTZ AUX)
    Blend: AUG-CC-PVTZ-JKFIT

    Orbital Energies [Eh]
    ---------------------

    Doubly Occupied:

       1A    -15.592619     2A    -15.556024     3A    -11.328061
       4A    -11.283363     5A    -11.279821     6A    -11.263737
       7A    -11.239756     8A    -11.235519     9A    -11.232612
      10A    -11.230476    11A    -11.230118    12A    -11.222802
      13A    -11.221132    14A     -1.296543    15A     -1.222431
      16A     -1.134103    17A     -1.088111    18A     -1.034886
      19A     -1.008806    20A     -0.981271    21A     -0.869341
      22A     -0.862211    23A     -0.824380    24A     -0.801667
      25A     -0.728109    26A     -0.714829    27A     -0.679831
      28A     -0.663950    29A     -0.642043    30A     -0.624092
      31A     -0.600968    32A     -0.594541    33A     -0.585722
      34A     -0.579327    35A     -0.568329    36A     -0.534486
      37A     -0.516854    38A     -0.507983    39A     -0.489889
      40A     -0.460018    41A     -0.418191    42A     -0.386064
      43A     -0.343502    44A     -0.331952    45A     -0.281860

  @DF-RHF Final Energy:  -531.44758532068170

   => Energetics <=

    Nuclear Repulsion Energy =            698.6770175989486233
    One-Electron Energy =               -2105.6645414764129782
    Two-Electron Energy =                 875.5399385567826585
    Total Energy =                       -531.4475853206816964
  Basis Set: (AUG-CC-PVTZ AUX)
    Blend: AUG-CC-PVTZ-RI
    Molecular point group: c1

    Geometry (in Angstrom), charge = 0, multiplicity = 1:

       Center              X                  Y                   Z               Mass
    ------------   -----------------  -----------------  -----------------  -----------------
         N            0.029909479744    -0.985533781779     0.329241556321    14.003074004430
         N            1.372619479744     0.902783218221    -0.076277443679    14.003074004430
         C           -1.240549520256    -0.411537781779     0.141699556321    12.000000000000
         C            1.281501479744    -0.420242781779     0.124840556321    12.000000000000
         C           -2.289429520256    -1.275228781779    -0.215032443679    12.000000000000
         C           -1.499337220256     0.962454518221     0.284541556321    12.000000000000
         C            2.413683479744    -1.262066781779     0.168302556321    12.000000000000
         C           -3.589367520256    -0.795342781779    -0.353780443679    12.000000000000
         C           -2.823515520256     1.413409218221     0.218670556321    12.000000000000
         C           -3.865674520256     0.556135218221    -0.138300443679    12.000000000000
         C            3.667531479744    -0.702316781779    -0.013977443679    12.000000000000
         C            3.775020479744     0.676157218221    -0.230537443679    12.000000000000
         C            2.603467479744     1.422388218221    -0.250016443679    12.000000000000
         H            0.028425479744    -1.999056781779     0.295100556321     1.007825032230
         H           -2.078075520256    -2.327708781779    -0.402405443679     1.007825032230
         H           -0.718753520256     1.614732218221     0.659827556321     1.007825032230
         H            2.300334479744    -2.330575781779     0.339507556321     1.007825032230
         H           -4.385339520256    -1.481659781779    -0.633323443679     1.007825032230
         H           -3.026125520256     2.467069218221     0.397322556321     1.007825032230
         H           -4.877284520256     0.936208218221    -0.254186443679     1.007825032230
         H            4.553222479744    -1.332679781779     0.011555556321     1.007825032230
         H            4.738548479744     1.154436218221    -0.376031443679     1.007825032230
         H            2.631883479744     2.498558218221    -0.413619443679     1.007825032230

  Basis Set: AUG-CC-PVTZ
    Blend: AUG-CC-PVTZ
  Basis Set: (AUG-CC-PVTZ AUX)
    Blend: AUG-CC-PVTZ-JKFIT
	 Reference Energy          =    -531.4475853206816964 [Eh]
	 Singles Energy            =      -0.0000000000000000 [Eh]
	 Same-Spin Energy          =      -0.5922582697435571 [Eh]
	 Opposite-Spin Energy      =      -1.8145008353102217 [Eh]
	 Correlation Energy        =      -2.4067591050537787 [Eh]
	 Total Energy              =    -533.8543444257354622 [Eh]

	 ================> DF-SCS-MP2 Energies <==================
	-----------------------------------------------------------
	 SCS Same-Spin Scale       =       0.3333333333333333 [-]
	 SCS Opposite-Spin Scale   =       1.2000000000000000 [-]
	 SCS Same-Spin Energy      =      -0.1974194232478524 [Eh]
	 SCS Opposite-Spin Energy  =      -2.1774010023722661 [Eh]
	 SCS Correlation Energy    =      -2.3748204256201184 [Eh]
	 SCS Total Energy          =    -533.8224057463017971 [Eh]
	-----------------------------------------------------------

  Dipole Moment: [D]
     X:     1.4803      Y:    -1.8709      Z:    -0.0180     Total:     2.3858

*** Psi4 exiting successfully. Buy a developer a beer!
