                               Psi4 1.4a2.dev612

  ==> Input File <==

--------------------------------------------------------------------------
#psi4
#
memory 32 gb

molecule  {
0 1
  N        0.0358730    -0.9798690     0.3249120
  N        1.3785830     0.9084480    -0.0806070
  C       -1.2345860    -0.4058730     0.1373700
  C        1.2874650    -0.4145780     0.1205110
  C       -2.2834660    -1.2695640    -0.2193620
  C       -1.4630612     0.9963076     0.1360365
  C        2.4196470    -1.2564020     0.1639730
  C       -3.5834040    -0.7896780    -0.3581100
  C       -2.8175520     1.4190740     0.2143410
  C       -3.8597110     0.5618000    -0.1426300
  C        3.6734950    -0.6966520    -0.0183070
  C        3.7809840     0.6818220    -0.2348670
  C        2.6094310     1.4280530    -0.2543460
  H        0.0343890    -1.9933920     0.2907710
  H       -2.0721120    -2.3220440    -0.4067350
  H       -0.7127900     1.6203970     0.6554980
  H        2.3062980    -2.3249110     0.3351780
  H       -4.3793760    -1.4759950    -0.6376530
  H       -3.0201620     2.4727340     0.3929930
  H       -4.8713210     0.9418730    -0.2585160
  H        4.5591860    -1.3270150     0.0072260
  H        4.7445120     1.1601010    -0.3803610
  H        2.6378470     2.5042230    -0.4179490
units angstrom
no_reorient  #important for SAPT in psi4, default
symmetry c1  #important for SAPT in psi4, default
}

set PROPERTIES_ORIGIN ["COM"]
properties('MP2/aug-cc-pvtz', properties = ['dipole'])
--------------------------------------------------------------------------

    Molecular point group: c1
  Charge       = 0
  Multiplicity = 1
  Basis Set: AUG-CC-PVTZ
    Blend: AUG-CC-PVTZ
  Basis Set: (AUG-CC-PVTZ AUX)
    Blend: AUG-CC-PVTZ-JKFIT

    Orbital Energies [Eh]
    ---------------------

    Doubly Occupied:

       1A    -15.594160     2A    -15.555578     3A    -11.328130
       4A    -11.287420     5A    -11.279541     6A    -11.263728
       7A    -11.240122     8A    -11.237741     9A    -11.236348
      10A    -11.230718    11A    -11.229416    12A    -11.224349
      13A    -11.221673    14A     -1.297025    15A     -1.222576
      16A     -1.132481    17A     -1.088189    18A     -1.034847
      19A     -1.005950    20A     -0.980782    21A     -0.869220
      22A     -0.862319    23A     -0.822726    24A     -0.800040
      25A     -0.727783    26A     -0.714406    27A     -0.679062
      28A     -0.662439    29A     -0.641737    30A     -0.623066
      31A     -0.600639    32A     -0.589919    33A     -0.587303
      34A     -0.577696    35A     -0.565842    36A     -0.534522
      37A     -0.514683    38A     -0.506933    39A     -0.487775
      40A     -0.458699    41A     -0.416099    42A     -0.385886
      43A     -0.342976    44A     -0.330938    45A     -0.281517

  @DF-RHF Final Energy:  -531.43226554256944

   => Energetics <=

    Nuclear Repulsion Energy =            698.3937616290044161
    One-Electron Energy =               -2105.1020533782434541
    Two-Electron Energy =                 875.2760262066694850
    Total Energy =                       -531.4322655425694393
  Basis Set: (AUG-CC-PVTZ AUX)
    Blend: AUG-CC-PVTZ-RI
    Molecular point group: c1

    Geometry (in Angstrom), charge = 0, multiplicity = 1:

       Center              X                  Y                   Z               Mass
    ------------   -----------------  -----------------  -----------------  -----------------
         N            0.027770835615    -0.987522556784     0.339413600418    14.003074004430
         N            1.370480835615     0.900794443216    -0.066105399582    14.003074004430
         C           -1.242688164385    -0.413526556784     0.151871600418    12.000000000000
         C            1.279362835615    -0.422231556784     0.135012600418    12.000000000000
         C           -2.291568164385    -1.277217556784    -0.204860399582    12.000000000000
         C           -1.471163364385     0.988654043216     0.150538100418    12.000000000000
         C            2.411544835615    -1.264055556784     0.178474600418    12.000000000000
         C           -3.591506164385    -0.797331556784    -0.343608399582    12.000000000000
         C           -2.825654164385     1.411420443216     0.228842600418    12.000000000000
         C           -3.867813164385     0.554146443216    -0.128128399582    12.000000000000
         C            3.665392835615    -0.704305556784    -0.003805399582    12.000000000000
         C            3.772881835615     0.674168443216    -0.220365399582    12.000000000000
         C            2.601328835615     1.420399443216    -0.239844399582    12.000000000000
         H            0.026286835615    -2.001045556784     0.305272600418     1.007825032230
         H           -2.080214164385    -2.329697556784    -0.392233399582     1.007825032230
         H           -0.720892164385     1.612743443216     0.669999600418     1.007825032230
         H            2.298195835615    -2.332564556784     0.349679600418     1.007825032230
         H           -4.387478164385    -1.483648556784    -0.623151399582     1.007825032230
         H           -3.028264164385     2.465080443216     0.407494600418     1.007825032230
         H           -4.879423164385     0.934219443216    -0.244014399582     1.007825032230
         H            4.551083835615    -1.334668556784     0.021727600418     1.007825032230
         H            4.736409835615     1.152447443216    -0.365859399582     1.007825032230
         H            2.629744835615     2.496569443216    -0.403447399582     1.007825032230

  Basis Set: AUG-CC-PVTZ
    Blend: AUG-CC-PVTZ
  Basis Set: (AUG-CC-PVTZ AUX)
    Blend: AUG-CC-PVTZ-JKFIT
	 Reference Energy          =    -531.4322655425694393 [Eh]
	 Singles Energy            =      -0.0000000000000000 [Eh]
	 Same-Spin Energy          =      -0.5931173703554767 [Eh]
	 Opposite-Spin Energy      =      -1.8169653229063347 [Eh]
	 Correlation Energy        =      -2.4100826932618116 [Eh]
	 Total Energy              =    -533.8423482358311958 [Eh]

	 ================> DF-SCS-MP2 Energies <==================
	-----------------------------------------------------------
	 SCS Same-Spin Scale       =       0.3333333333333333 [-]
	 SCS Opposite-Spin Scale   =       1.2000000000000000 [-]
	 SCS Same-Spin Energy      =      -0.1977057901184922 [Eh]
	 SCS Opposite-Spin Energy  =      -2.1803583874876016 [Eh]
	 SCS Correlation Energy    =      -2.3780641776060940 [Eh]
	 SCS Total Energy          =    -533.8103297201755595 [Eh]
	-----------------------------------------------------------

  Dipole Moment: [D]
     X:     1.4915      Y:    -1.9477      Z:     0.0400     Total:     2.4535

*** Psi4 exiting successfully. Buy a developer a beer!
