                               Psi4 1.4a2.dev612

  ==> Input File <==

--------------------------------------------------------------------------
#psi4
#
memory 32 gb

molecule  {
0 1
  N        0.0358730    -0.9798690     0.3249120
  N        1.3785830     0.9084480    -0.0806070
  C       -1.2345860    -0.4058730     0.1373700
  C        1.2874650    -0.4145780     0.1205110
  C       -2.2834660    -1.2695640    -0.2193620
  C       -1.4832695     0.9775154     0.2321535
  C        2.4196470    -1.2564020     0.1639730
  C       -3.5834040    -0.7896780    -0.3581100
  C       -2.8175520     1.4190740     0.2143410
  C       -3.8597110     0.5618000    -0.1426300
  C        3.6734950    -0.6966520    -0.0183070
  C        3.7809840     0.6818220    -0.2348670
  C        2.6094310     1.4280530    -0.2543460
  H        0.0343890    -1.9933920     0.2907710
  H       -2.0721120    -2.3220440    -0.4067350
  H       -0.7127900     1.6203970     0.6554980
  H        2.3062980    -2.3249110     0.3351780
  H       -4.3793760    -1.4759950    -0.6376530
  H       -3.0201620     2.4727340     0.3929930
  H       -4.8713210     0.9418730    -0.2585160
  H        4.5591860    -1.3270150     0.0072260
  H        4.7445120     1.1601010    -0.3803610
  H        2.6378470     2.5042230    -0.4179490
units angstrom
no_reorient  #important for SAPT in psi4, default
symmetry c1  #important for SAPT in psi4, default
}

set PROPERTIES_ORIGIN ["COM"]
properties('MP2/aug-cc-pvtz', properties = ['dipole'])
--------------------------------------------------------------------------

    Molecular point group: c1
  Charge       = 0
  Multiplicity = 1
  Basis Set: AUG-CC-PVTZ
    Blend: AUG-CC-PVTZ
  Basis Set: (AUG-CC-PVTZ AUX)
    Blend: AUG-CC-PVTZ-JKFIT

    Orbital Energies [Eh]
    ---------------------

    Doubly Occupied:

       1A    -15.593044     2A    -15.555878     3A    -11.328079
       4A    -11.284346     5A    -11.279740     6A    -11.263732
       7A    -11.239856     8A    -11.236016     9A    -11.233530
      10A    -11.230539    11A    -11.229896    12A    -11.222464
      13A    -11.221891    14A     -1.296681    15A     -1.222471
      16A     -1.133674    17A     -1.088131    18A     -1.034864
      19A     -1.008092    20A     -0.981174    21A     -0.869314
      22A     -0.862258    23A     -0.823967    24A     -0.801260
      25A     -0.728038    26A     -0.714705    27A     -0.679631
      28A     -0.663558    29A     -0.641965    30A     -0.623792
      31A     -0.600887    32A     -0.593289    33A     -0.586306
      34A     -0.578878    35A     -0.567763    36A     -0.534500
      37A     -0.516147    38A     -0.507877    39A     -0.489580
      40A     -0.459710    41A     -0.417652    42A     -0.386017
      43A     -0.343385    44A     -0.331636    45A     -0.281695

  @DF-RHF Final Energy:  -531.44404443961321

   => Energetics <=

    Nuclear Repulsion Energy =            698.6395519279516293
    One-Electron Energy =               -2105.5913744232725548
    Two-Electron Energy =                 875.5077780557076039
    Total Energy =                       -531.4440444396132079
  Basis Set: (AUG-CC-PVTZ AUX)
    Blend: AUG-CC-PVTZ-RI
    Molecular point group: c1

    Geometry (in Angstrom), charge = 0, multiplicity = 1:

       Center              X                  Y                   Z               Mass
    ------------   -----------------  -----------------  -----------------  -----------------
         N            0.029196596016    -0.986196706781     0.332632237687    14.003074004430
         N            1.371906596016     0.902120293219    -0.072886762313    14.003074004430
         C           -1.241262403984    -0.412200706781     0.145090237687    12.000000000000
         C            1.280788596016    -0.420905706781     0.128231237687    12.000000000000
         C           -2.290142403984    -1.275891706781    -0.211641762313    12.000000000000
         C           -1.489945903984     0.971187693219     0.239873737687    12.000000000000
         C            2.412970596016    -1.262729706781     0.171693237687    12.000000000000
         C           -3.590080403984    -0.796005706781    -0.350389762313    12.000000000000
         C           -2.824228403984     1.412746293219     0.222061237687    12.000000000000
         C           -3.866387403984     0.555472293219    -0.134909762313    12.000000000000
         C            3.666818596016    -0.702979706781    -0.010586762313    12.000000000000
         C            3.774307596016     0.675494293219    -0.227146762313    12.000000000000
         C            2.602754596016     1.421725293219    -0.246625762313    12.000000000000
         H            0.027712596016    -1.999719706781     0.298491237687     1.007825032230
         H           -2.078788403984    -2.328371706781    -0.399014762313     1.007825032230
         H           -0.719466403984     1.614069293219     0.663218237687     1.007825032230
         H            2.299621596016    -2.331238706781     0.342898237687     1.007825032230
         H           -4.386052403984    -1.482322706781    -0.629932762313     1.007825032230
         H           -3.026838403984     2.466406293219     0.400713237687     1.007825032230
         H           -4.877997403984     0.935545293219    -0.250795762313     1.007825032230
         H            4.552509596016    -1.333342706781     0.014946237687     1.007825032230
         H            4.737835596016     1.153773293219    -0.372640762313     1.007825032230
         H            2.631170596016     2.497895293219    -0.410228762313     1.007825032230

  Basis Set: AUG-CC-PVTZ
    Blend: AUG-CC-PVTZ
  Basis Set: (AUG-CC-PVTZ AUX)
    Blend: AUG-CC-PVTZ-JKFIT
	 Reference Energy          =    -531.4440444396132079 [Eh]
	 Singles Energy            =      -0.0000000000000000 [Eh]
	 Same-Spin Energy          =      -0.5924764639292496 [Eh]
	 Opposite-Spin Energy      =      -1.8151159383717062 [Eh]
	 Correlation Energy        =      -2.4075924023009558 [Eh]
	 Total Energy              =    -533.8516368419141145 [Eh]

	 ================> DF-SCS-MP2 Energies <==================
	-----------------------------------------------------------
	 SCS Same-Spin Scale       =       0.3333333333333333 [-]
	 SCS Opposite-Spin Scale   =       1.2000000000000000 [-]
	 SCS Same-Spin Energy      =      -0.1974921546430832 [Eh]
	 SCS Opposite-Spin Energy  =      -2.1781391260460472 [Eh]
	 SCS Correlation Energy    =      -2.3756312806891304 [Eh]
	 SCS Total Energy          =    -533.8196757203023708 [Eh]
	-----------------------------------------------------------

  Dipole Moment: [D]
     X:     1.4854      Y:    -1.8898      Z:     0.0029     Total:     2.4037

*** Psi4 exiting successfully. Buy a developer a beer!
