                               Psi4 1.4a2.dev612

  ==> Input File <==

--------------------------------------------------------------------------
#psi4
#
memory 32 gb

molecule  {
0 1
  N        0.0358730    -0.9798690     0.3249120
  N        1.3785830     0.9084480    -0.0806070
  C       -1.2345860    -0.4058730     0.1373700
  C        1.2874650    -0.4145780     0.1205110
  C       -2.2834660    -1.2695640    -0.2193620
  C       -1.5135820     0.9493270     0.3763290
  C        2.4112380    -1.2715724     0.0654887
  C       -3.5834040    -0.7896780    -0.3581100
  C       -2.8175520     1.4190740     0.2143410
  C       -3.8597110     0.5618000    -0.1426300
  C        3.6734950    -0.6966520    -0.0183070
  C        3.7809840     0.6818220    -0.2348670
  C        2.6094310     1.4280530    -0.2543460
  H        0.0343890    -1.9933920     0.2907710
  H       -2.0721120    -2.3220440    -0.4067350
  H       -0.7127900     1.6203970     0.6554980
  H        2.3062980    -2.3249110     0.3351780
  H       -4.3793760    -1.4759950    -0.6376530
  H       -3.0201620     2.4727340     0.3929930
  H       -4.8713210     0.9418730    -0.2585160
  H        4.5591860    -1.3270150     0.0072260
  H        4.7445120     1.1601010    -0.3803610
  H        2.6378470     2.5042230    -0.4179490
units angstrom
no_reorient  #important for SAPT in psi4, default
symmetry c1  #important for SAPT in psi4, default
}

set PROPERTIES_ORIGIN ["COM"]
properties('MP2/aug-cc-pvtz', properties = ['dipole'])
--------------------------------------------------------------------------

    Molecular point group: c1
  Charge       = 0
  Multiplicity = 1
  Basis Set: AUG-CC-PVTZ
    Blend: AUG-CC-PVTZ
  Basis Set: (AUG-CC-PVTZ AUX)
    Blend: AUG-CC-PVTZ-JKFIT

    Orbital Energies [Eh]
    ---------------------

    Doubly Occupied:

       1A    -15.592106     2A    -15.556347     3A    -11.328774
       4A    -11.282660     5A    -11.280683     6A    -11.264766
       7A    -11.240209     8A    -11.235237     9A    -11.231871
      10A    -11.230504    11A    -11.230455    12A    -11.223331
      13A    -11.220635    14A     -1.296375    15A     -1.222466
      16A     -1.134587    17A     -1.087553    18A     -1.034812
      19A     -1.009525    20A     -0.981187    21A     -0.869267
      22A     -0.861814    23A     -0.824663    24A     -0.801965
      25A     -0.728069    26A     -0.714869    27A     -0.679416
      28A     -0.663837    29A     -0.641546    30A     -0.624798
      31A     -0.599659    32A     -0.596369    33A     -0.584592
      34A     -0.579649    35A     -0.568742    36A     -0.534348
      37A     -0.517351    38A     -0.507930    39A     -0.489441
      40A     -0.460015    41A     -0.418853    42A     -0.385878
      43A     -0.343344    44A     -0.332510    45A     -0.282613

  @DF-RHF Final Energy:  -531.44748370093248

   => Energetics <=

    Nuclear Repulsion Energy =            698.4886093715920197
    One-Electron Energy =               -2105.2809523181590521
    Two-Electron Energy =                 875.3448592456345523
    Total Energy =                       -531.4474837009324801
  Basis Set: (AUG-CC-PVTZ AUX)
    Blend: AUG-CC-PVTZ-RI
    Molecular point group: c1

    Geometry (in Angstrom), charge = 0, multiplicity = 1:

       Center              X                  Y                   Z               Mass
    ------------   -----------------  -----------------  -----------------  -----------------
         N            0.031928522075    -0.983137604329     0.329408576932    14.003074004430
         N            1.374638522075     0.905179395671    -0.076110423068    14.003074004430
         C           -1.238530477925    -0.409141604329     0.141866576932    12.000000000000
         C            1.283520522075    -0.417846604329     0.125007576932    12.000000000000
         C           -2.287410477925    -1.272832604329    -0.214865423068    12.000000000000
         C           -1.517526477925     0.946058395671     0.380825576932    12.000000000000
         C            2.407293522075    -1.274841004329     0.069985276932    12.000000000000
         C           -3.587348477925    -0.792946604329    -0.353613423068    12.000000000000
         C           -2.821496477925     1.415805395671     0.218837576932    12.000000000000
         C           -3.863655477925     0.558531395671    -0.138133423068    12.000000000000
         C            3.669550522075    -0.699920604329    -0.013810423068    12.000000000000
         C            3.777039522075     0.678553395671    -0.230370423068    12.000000000000
         C            2.605486522075     1.424784395671    -0.249849423068    12.000000000000
         H            0.030444522075    -1.996660604329     0.295267576932     1.007825032230
         H           -2.076056477925    -2.325312604329    -0.402238423068     1.007825032230
         H           -0.716734477925     1.617128395671     0.659994576932     1.007825032230
         H            2.302353522075    -2.328179604329     0.339674576932     1.007825032230
         H           -4.383320477925    -1.479263604329    -0.633156423068     1.007825032230
         H           -3.024106477925     2.469465395671     0.397489576932     1.007825032230
         H           -4.875265477925     0.938604395671    -0.254019423068     1.007825032230
         H            4.555241522075    -1.330283604329     0.011722576932     1.007825032230
         H            4.740567522075     1.156832395671    -0.375864423068     1.007825032230
         H            2.633902522075     2.500954395671    -0.413452423068     1.007825032230

  Basis Set: AUG-CC-PVTZ
    Blend: AUG-CC-PVTZ
  Basis Set: (AUG-CC-PVTZ AUX)
    Blend: AUG-CC-PVTZ-JKFIT
	 Reference Energy          =    -531.4474837009324801 [Eh]
	 Singles Energy            =      -0.0000000000000000 [Eh]
	 Same-Spin Energy          =      -0.5921048088201151 [Eh]
	 Opposite-Spin Energy      =      -1.8140689623662931 [Eh]
	 Correlation Energy        =      -2.4061737711864080 [Eh]
	 Total Energy              =    -533.8536574721189254 [Eh]

	 ================> DF-SCS-MP2 Energies <==================
	-----------------------------------------------------------
	 SCS Same-Spin Scale       =       0.3333333333333333 [-]
	 SCS Opposite-Spin Scale   =       1.2000000000000000 [-]
	 SCS Same-Spin Energy      =      -0.1973682696067050 [Eh]
	 SCS Opposite-Spin Energy  =      -2.1768827548395517 [Eh]
	 SCS Correlation Energy    =      -2.3742510244462567 [Eh]
	 SCS Total Energy          =    -533.8217347253787466 [Eh]
	-----------------------------------------------------------

  Dipole Moment: [D]
     X:     1.4626      Y:    -1.8197      Z:    -0.0187     Total:     2.3347

*** Psi4 exiting successfully. Buy a developer a beer!
