                               Psi4 1.4a2.dev612

  ==> Input File <==

--------------------------------------------------------------------------
#psi4
#
memory 32 gb

molecule  {
0 1
  N        0.0358730    -0.9798690     0.3249120
  N        1.3785830     0.9084480    -0.0806070
  C       -1.2345860    -0.4058730     0.1373700
  C        1.2874650    -0.4145780     0.1205110
  C       -2.2834660    -1.2695640    -0.2193620
  C       -1.5135820     0.9493270     0.3763290
  C        2.4154425    -1.2639872     0.1147309
  C       -3.5834040    -0.7896780    -0.3581100
  C       -2.8175520     1.4190740     0.2143410
  C       -3.8597110     0.5618000    -0.1426300
  C        3.6734950    -0.6966520    -0.0183070
  C        3.7809840     0.6818220    -0.2348670
  C        2.6094310     1.4280530    -0.2543460
  H        0.0343890    -1.9933920     0.2907710
  H       -2.0721120    -2.3220440    -0.4067350
  H       -0.7127900     1.6203970     0.6554980
  H        2.3062980    -2.3249110     0.3351780
  H       -4.3793760    -1.4759950    -0.6376530
  H       -3.0201620     2.4727340     0.3929930
  H       -4.8713210     0.9418730    -0.2585160
  H        4.5591860    -1.3270150     0.0072260
  H        4.7445120     1.1601010    -0.3803610
  H        2.6378470     2.5042230    -0.4179490
units angstrom
no_reorient  #important for SAPT in psi4, default
symmetry c1  #important for SAPT in psi4, default
}

set PROPERTIES_ORIGIN ["COM"]
properties('MP2/aug-cc-pvtz', properties = ['dipole'])
--------------------------------------------------------------------------

    Molecular point group: c1
  Charge       = 0
  Multiplicity = 1
  Basis Set: AUG-CC-PVTZ
    Blend: AUG-CC-PVTZ
  Basis Set: (AUG-CC-PVTZ AUX)
    Blend: AUG-CC-PVTZ-JKFIT

    Orbital Energies [Eh]
    ---------------------

    Doubly Occupied:

       1A    -15.592015     2A    -15.556338     3A    -11.328243
       4A    -11.282594     5A    -11.280176     6A    -11.264064
       7A    -11.239758     8A    -11.235211     9A    -11.231847
      10A    -11.230472    11A    -11.230434    12A    -11.223309
      13A    -11.220621    14A     -1.296349    15A     -1.222392
      16A     -1.134561    17A     -1.087946    18A     -1.034921
      19A     -1.009499    20A     -0.981249    21A     -0.869376
      22A     -0.862009    23A     -0.824668    24A     -0.802020
      25A     -0.728108    26A     -0.714921    27A     -0.679812
      28A     -0.664176    29A     -0.641899    30A     -0.624751
      31A     -0.600454    32A     -0.596189    33A     -0.584568
      34A     -0.579706    35A     -0.568852    36A     -0.534489
      37A     -0.517743    38A     -0.507819    39A     -0.489402
      40A     -0.460134    41A     -0.418919    42A     -0.386056
      43A     -0.343445    44A     -0.332464    45A     -0.282414

  @DF-RHF Final Energy:  -531.44947541268857

   => Energetics <=

    Nuclear Repulsion Energy =            698.5613748253383619
    One-Electron Energy =               -2105.4289145844263658
    Two-Electron Energy =                 875.4180643463994329
    Total Energy =                       -531.4494754126885709
  Basis Set: (AUG-CC-PVTZ AUX)
    Blend: AUG-CC-PVTZ-RI
    Molecular point group: c1

    Geometry (in Angstrom), charge = 0, multiplicity = 1:

       Center              X                  Y                   Z               Mass
    ------------   -----------------  -----------------  -----------------  -----------------
         N            0.031631881110    -0.983672764525     0.325934381733    14.003074004430
         N            1.374341881110     0.904644235475    -0.079584618267    14.003074004430
         C           -1.238827118890    -0.409676764525     0.138392381733    12.000000000000
         C            1.283223881110    -0.418381764525     0.121533381733    12.000000000000
         C           -2.287707118890    -1.273367764525    -0.218339618267    12.000000000000
         C           -1.517823118890     0.945523235475     0.377351381733    12.000000000000
         C            2.411201381110    -1.267790964525     0.115753281733    12.000000000000
         C           -3.587645118890    -0.793481764525    -0.357087618267    12.000000000000
         C           -2.821793118890     1.415270235475     0.215363381733    12.000000000000
         C           -3.863952118890     0.557996235475    -0.141607618267    12.000000000000
         C            3.669253881110    -0.700455764525    -0.017284618267    12.000000000000
         C            3.776742881110     0.678018235475    -0.233844618267    12.000000000000
         C            2.605189881110     1.424249235475    -0.253323618267    12.000000000000
         H            0.030147881110    -1.997195764525     0.291793381733     1.007825032230
         H           -2.076353118890    -2.325847764525    -0.405712618267     1.007825032230
         H           -0.717031118890     1.616593235475     0.656520381733     1.007825032230
         H            2.302056881110    -2.328714764525     0.336200381733     1.007825032230
         H           -4.383617118890    -1.479798764525    -0.636630618267     1.007825032230
         H           -3.024403118890     2.468930235475     0.394015381733     1.007825032230
         H           -4.875562118890     0.938069235475    -0.257493618267     1.007825032230
         H            4.554944881110    -1.330818764525     0.008248381733     1.007825032230
         H            4.740270881110     1.156297235475    -0.379338618267     1.007825032230
         H            2.633605881110     2.500419235475    -0.416926618267     1.007825032230

  Basis Set: AUG-CC-PVTZ
    Blend: AUG-CC-PVTZ
  Basis Set: (AUG-CC-PVTZ AUX)
    Blend: AUG-CC-PVTZ-JKFIT
	 Reference Energy          =    -531.4494754126885709 [Eh]
	 Singles Energy            =      -0.0000000000000000 [Eh]
	 Same-Spin Energy          =      -0.5920595091399267 [Eh]
	 Opposite-Spin Energy      =      -1.8139481747997865 [Eh]
	 Correlation Energy        =      -2.4060076839397131 [Eh]
	 Total Energy              =    -533.8554830966282907 [Eh]

	 ================> DF-SCS-MP2 Energies <==================
	-----------------------------------------------------------
	 SCS Same-Spin Scale       =       0.3333333333333333 [-]
	 SCS Opposite-Spin Scale   =       1.2000000000000000 [-]
	 SCS Same-Spin Energy      =      -0.1973531697133089 [Eh]
	 SCS Opposite-Spin Energy  =      -2.1767378097597438 [Eh]
	 SCS Correlation Energy    =      -2.3740909794730527 [Eh]
	 SCS Total Energy          =    -533.8235663921616379 [Eh]
	-----------------------------------------------------------

  Dipole Moment: [D]
     X:     1.4666      Y:    -1.8419      Z:    -0.0420     Total:     2.3548

*** Psi4 exiting successfully. Buy a developer a beer!
