                               Psi4 1.4a2.dev612

  ==> Input File <==

--------------------------------------------------------------------------
#psi4
#
memory 32 gb

molecule  {
0 1
  N        0.0358730    -0.9798690     0.3249120
  N        1.3785830     0.9084480    -0.0806070
  C       -1.2345860    -0.4058730     0.1373700
  C        1.2874650    -0.4145780     0.1205110
  C       -2.2834660    -1.2695640    -0.2193620
  C       -1.5135820     0.9493270     0.3763290
  C        2.4070336    -1.2791575     0.0162466
  C       -3.5834040    -0.7896780    -0.3581100
  C       -2.8175520     1.4190740     0.2143410
  C       -3.8597110     0.5618000    -0.1426300
  C        3.6734950    -0.6966520    -0.0183070
  C        3.7809840     0.6818220    -0.2348670
  C        2.6094310     1.4280530    -0.2543460
  H        0.0343890    -1.9933920     0.2907710
  H       -2.0721120    -2.3220440    -0.4067350
  H       -0.7127900     1.6203970     0.6554980
  H        2.3062980    -2.3249110     0.3351780
  H       -4.3793760    -1.4759950    -0.6376530
  H       -3.0201620     2.4727340     0.3929930
  H       -4.8713210     0.9418730    -0.2585160
  H        4.5591860    -1.3270150     0.0072260
  H        4.7445120     1.1601010    -0.3803610
  H        2.6378470     2.5042230    -0.4179490
units angstrom
no_reorient  #important for SAPT in psi4, default
symmetry c1  #important for SAPT in psi4, default
}

set PROPERTIES_ORIGIN ["COM"]
properties('MP2/aug-cc-pvtz', properties = ['dipole'])
--------------------------------------------------------------------------

    Molecular point group: c1
  Charge       = 0
  Multiplicity = 1
  Basis Set: AUG-CC-PVTZ
    Blend: AUG-CC-PVTZ
  Basis Set: (AUG-CC-PVTZ AUX)
    Blend: AUG-CC-PVTZ-JKFIT

    Orbital Energies [Eh]
    ---------------------

    Doubly Occupied:

       1A    -15.592290     2A    -15.556355     3A    -11.329639
       4A    -11.282755     5A    -11.281479     6A    -11.265855
       7A    -11.240970     8A    -11.235293     9A    -11.231928
      10A    -11.230577    11A    -11.230479    12A    -11.223395
      13A    -11.220695    14A     -1.296412    15A     -1.222593
      16A     -1.134645    17A     -1.086927    18A     -1.034613
      19A     -1.009585    20A     -0.981089    21A     -0.869039
      22A     -0.861516    23A     -0.824674    24A     -0.801870
      25A     -0.728003    26A     -0.714790    27A     -0.678795
      28A     -0.663312    29A     -0.641031    30A     -0.624624
      31A     -0.598847    32A     -0.596506    33A     -0.584463
      34A     -0.579493    35A     -0.568532    36A     -0.534029
      37A     -0.516808    38A     -0.508047    39A     -0.489510
      40A     -0.459884    41A     -0.418702    42A     -0.385605
      43A     -0.343222    44A     -0.332586    45A     -0.282912

  @DF-RHF Final Energy:  -531.44409862546104

   => Energetics <=

    Nuclear Repulsion Energy =            698.3579614202448056
    One-Electron Energy =               -2105.0153773690472008
    Two-Electron Energy =                 875.2133173233412435
    Total Energy =                       -531.4440986254610380
  Basis Set: (AUG-CC-PVTZ AUX)
    Blend: AUG-CC-PVTZ-RI
    Molecular point group: c1

    Geometry (in Angstrom), charge = 0, multiplicity = 1:

       Center              X                  Y                   Z               Mass
    ------------   -----------------  -----------------  -----------------  -----------------
         N            0.032225155984    -0.982602451188     0.332882765075    14.003074004430
         N            1.374935155984     0.905714548812    -0.072636234925    14.003074004430
         C           -1.238233844016    -0.408606451188     0.145340765075    12.000000000000
         C            1.283817155984    -0.417311451188     0.128481765075    12.000000000000
         C           -2.287113844016    -1.272297451188    -0.211391234925    12.000000000000
         C           -1.517229844016     0.946593548812     0.384299765075    12.000000000000
         C            2.403385755984    -1.281890951188     0.024217365075    12.000000000000
         C           -3.587051844016    -0.792411451188    -0.350139234925    12.000000000000
         C           -2.821199844016     1.416340548812     0.222311765075    12.000000000000
         C           -3.863358844016     0.559066548812    -0.134659234925    12.000000000000
         C            3.669847155984    -0.699385451188    -0.010336234925    12.000000000000
         C            3.777336155984     0.679088548812    -0.226896234925    12.000000000000
         C            2.605783155984     1.425319548812    -0.246375234925    12.000000000000
         H            0.030741155984    -1.996125451188     0.298741765075     1.007825032230
         H           -2.075759844016    -2.324777451188    -0.398764234925     1.007825032230
         H           -0.716437844016     1.617663548812     0.663468765075     1.007825032230
         H            2.302650155984    -2.327644451188     0.343148765075     1.007825032230
         H           -4.383023844016    -1.478728451188    -0.629682234925     1.007825032230
         H           -3.023809844016     2.470000548812     0.400963765075     1.007825032230
         H           -4.874968844016     0.939139548812    -0.250545234925     1.007825032230
         H            4.555538155984    -1.329748451188     0.015196765075     1.007825032230
         H            4.740864155984     1.157367548812    -0.372390234925     1.007825032230
         H            2.634199155984     2.501489548812    -0.409978234925     1.007825032230

  Basis Set: AUG-CC-PVTZ
    Blend: AUG-CC-PVTZ
  Basis Set: (AUG-CC-PVTZ AUX)
    Blend: AUG-CC-PVTZ-JKFIT
	 Reference Energy          =    -531.4440986254610380 [Eh]
	 Singles Energy            =      -0.0000000000000000 [Eh]
	 Same-Spin Energy          =      -0.5921881088470409 [Eh]
	 Opposite-Spin Energy      =      -1.8143669076399309 [Eh]
	 Correlation Energy        =      -2.4065550164869718 [Eh]
	 Total Energy              =    -533.8506536419480426 [Eh]

	 ================> DF-SCS-MP2 Energies <==================
	-----------------------------------------------------------
	 SCS Same-Spin Scale       =       0.3333333333333333 [-]
	 SCS Opposite-Spin Scale   =       1.2000000000000000 [-]
	 SCS Same-Spin Energy      =      -0.1973960362823469 [Eh]
	 SCS Opposite-Spin Energy  =      -2.1772402891679170 [Eh]
	 SCS Correlation Energy    =      -2.3746363254502638 [Eh]
	 SCS Total Energy          =    -533.8187349509113346 [Eh]
	-----------------------------------------------------------

  Dipole Moment: [D]
     X:     1.4527      Y:    -1.7863      Z:     0.0043     Total:     2.3024

*** Psi4 exiting successfully. Buy a developer a beer!
