                               Psi4 1.4a2.dev612

  ==> Input File <==

--------------------------------------------------------------------------
#psi4
#
memory 32 gb

molecule  {
0 1
  N        0.0358730    -0.9798690     0.3249120
  N        1.3785830     0.9084480    -0.0806070
  C       -1.2345860    -0.4058730     0.1373700
  C        1.2874650    -0.4145780     0.1205110
  C       -2.2834660    -1.2695640    -0.2193620
  C       -1.4529570     1.0057038     0.0879780
  C        2.4196470    -1.2564020     0.1639730
  C       -3.5834040    -0.7896780    -0.3581100
  C       -2.8175520     1.4190740     0.2143410
  C       -3.8597110     0.5618000    -0.1426300
  C        3.6734950    -0.6966520    -0.0183070
  C        3.7809840     0.6818220    -0.2348670
  C        2.6094310     1.4280530    -0.2543460
  H        0.0343890    -1.9933920     0.2907710
  H       -2.0721120    -2.3220440    -0.4067350
  H       -0.7127900     1.6203970     0.6554980
  H        2.3062980    -2.3249110     0.3351780
  H       -4.3793760    -1.4759950    -0.6376530
  H       -3.0201620     2.4727340     0.3929930
  H       -4.8713210     0.9418730    -0.2585160
  H        4.5591860    -1.3270150     0.0072260
  H        4.7445120     1.1601010    -0.3803610
  H        2.6378470     2.5042230    -0.4179490
units angstrom
no_reorient  #important for SAPT in psi4, default
symmetry c1  #important for SAPT in psi4, default
}

set PROPERTIES_ORIGIN ["COM"]
properties('MP2/aug-cc-pvtz', properties = ['dipole'])
--------------------------------------------------------------------------

    Molecular point group: c1
  Charge       = 0
  Multiplicity = 1
  Basis Set: AUG-CC-PVTZ
    Blend: AUG-CC-PVTZ
  Basis Set: (AUG-CC-PVTZ AUX)
    Blend: AUG-CC-PVTZ-JKFIT

    Orbital Energies [Eh]
    ---------------------

    Doubly Occupied:

       1A    -15.594859     2A    -15.555423     3A    -11.328161
       4A    -11.289464     5A    -11.279418     6A    -11.263727
       7A    -11.240288     8A    -11.238980     9A    -11.238183
      10A    -11.230834    11A    -11.229175    12A    -11.225975
      13A    -11.221245    14A     -1.297230    15A     -1.222642
      16A     -1.131752    17A     -1.088224    18A     -1.034859
      19A     -1.004534    20A     -0.980467    21A     -0.869158
      22A     -0.862326    23A     -0.821951    24A     -0.799254
      25A     -0.727623    26A     -0.714272    27A     -0.678757
      28A     -0.661770    29A     -0.641609    30A     -0.622675
      31A     -0.600470    32A     -0.588028    33A     -0.587544
      34A     -0.577078    35A     -0.564434    36A     -0.534527
      37A     -0.514034    38A     -0.505961    39A     -0.486216
      40A     -0.457992    41A     -0.415022    42A     -0.385798
      43A     -0.342704    44A     -0.330596    45A     -0.281519

  @DF-RHF Final Energy:  -531.42397473188021

   => Energetics <=

    Nuclear Repulsion Energy =            698.1891575557392571
    One-Electron Energy =               -2104.6927514173312375
    Two-Electron Energy =                 875.0796191297117730
    Total Energy =                       -531.4239747318802074
  Basis Set: (AUG-CC-PVTZ AUX)
    Blend: AUG-CC-PVTZ-RI
    Molecular point group: c1

    Geometry (in Angstrom), charge = 0, multiplicity = 1:

       Center              X                  Y                   Z               Mass
    ------------   -----------------  -----------------  -----------------  -----------------
         N            0.027057951886    -0.988185488840     0.342804281784    14.003074004430
         N            1.369767951886     0.900131511160    -0.062714718216    14.003074004430
         C           -1.243401048114    -0.414189488840     0.155262281784    12.000000000000
         C            1.278649951886    -0.422894488840     0.138403281784    12.000000000000
         C           -2.292281048114    -1.277880488840    -0.201469718216    12.000000000000
         C           -1.461772048114     0.997387311160     0.105870281784    12.000000000000
         C            2.410831951886    -1.264718488840     0.181865281784    12.000000000000
         C           -3.592219048114    -0.797994488840    -0.340217718216    12.000000000000
         C           -2.826367048114     1.410757511160     0.232233281784    12.000000000000
         C           -3.868526048114     0.553483511160    -0.124737718216    12.000000000000
         C            3.664679951886    -0.704968488840    -0.000414718216    12.000000000000
         C            3.772168951886     0.673505511160    -0.216974718216    12.000000000000
         C            2.600615951886     1.419736511160    -0.236453718216    12.000000000000
         H            0.025573951886    -2.001708488840     0.308663281784     1.007825032230
         H           -2.080927048114    -2.330360488840    -0.388842718216     1.007825032230
         H           -0.721605048114     1.612080511160     0.673390281784     1.007825032230
         H            2.297482951886    -2.333227488840     0.353070281784     1.007825032230
         H           -4.388191048114    -1.484311488840    -0.619760718216     1.007825032230
         H           -3.028977048114     2.464417511160     0.410885281784     1.007825032230
         H           -4.880136048114     0.933556511160    -0.240623718216     1.007825032230
         H            4.550370951886    -1.335331488840     0.025118281784     1.007825032230
         H            4.735696951886     1.151784511160    -0.362468718216     1.007825032230
         H            2.629031951886     2.495906511160    -0.400056718216     1.007825032230

  Basis Set: AUG-CC-PVTZ
    Blend: AUG-CC-PVTZ
  Basis Set: (AUG-CC-PVTZ AUX)
    Blend: AUG-CC-PVTZ-JKFIT
	 Reference Energy          =    -531.4239747318802074 [Eh]
	 Singles Energy            =      -0.0000000000000000 [Eh]
	 Same-Spin Energy          =      -0.5935285910025815 [Eh]
	 Opposite-Spin Energy      =      -1.8181780481161827 [Eh]
	 Correlation Energy        =      -2.4117066391187643 [Eh]
	 Total Energy              =    -533.8356813709989410 [Eh]

	 ================> DF-SCS-MP2 Energies <==================
	-----------------------------------------------------------
	 SCS Same-Spin Scale       =       0.3333333333333333 [-]
	 SCS Opposite-Spin Scale   =       1.2000000000000000 [-]
	 SCS Same-Spin Energy      =      -0.1978428636675272 [Eh]
	 SCS Opposite-Spin Energy  =      -2.1818136577394189 [Eh]
	 SCS Correlation Energy    =      -2.3796565214069463 [Eh]
	 SCS Total Energy          =    -533.8036312532871079 [Eh]
	-----------------------------------------------------------

  Dipole Moment: [D]
     X:     1.4935      Y:    -1.9866      Z:     0.0565     Total:     2.4860

*** Psi4 exiting successfully. Buy a developer a beer!
