                               Psi4 1.4a2.dev612

  ==> Input File <==

--------------------------------------------------------------------------
#psi4
#
memory 32 gb

molecule  {
0 1
  N        0.0358730    -0.9798690     0.3249120
  N        1.3785830     0.9084480    -0.0806070
  C       -1.2345860    -0.4058730     0.1373700
  C        1.2874650    -0.4145780     0.1205110
  C       -2.2834660    -1.2695640    -0.2193620
  C       -1.5135820     0.9493270     0.3763290
  C        2.3944201    -1.3019131    -0.1314798
  C       -3.5834040    -0.7896780    -0.3581100
  C       -2.8175520     1.4190740     0.2143410
  C       -3.8597110     0.5618000    -0.1426300
  C        3.6734950    -0.6966520    -0.0183070
  C        3.7809840     0.6818220    -0.2348670
  C        2.6094310     1.4280530    -0.2543460
  H        0.0343890    -1.9933920     0.2907710
  H       -2.0721120    -2.3220440    -0.4067350
  H       -0.7127900     1.6203970     0.6554980
  H        2.3062980    -2.3249110     0.3351780
  H       -4.3793760    -1.4759950    -0.6376530
  H       -3.0201620     2.4727340     0.3929930
  H       -4.8713210     0.9418730    -0.2585160
  H        4.5591860    -1.3270150     0.0072260
  H        4.7445120     1.1601010    -0.3803610
  H        2.6378470     2.5042230    -0.4179490
units angstrom
no_reorient  #important for SAPT in psi4, default
symmetry c1  #important for SAPT in psi4, default
}

set PROPERTIES_ORIGIN ["COM"]
properties('MP2/aug-cc-pvtz', properties = ['dipole'])
--------------------------------------------------------------------------

    Molecular point group: c1
  Charge       = 0
  Multiplicity = 1
  Basis Set: AUG-CC-PVTZ
    Blend: AUG-CC-PVTZ
  Basis Set: (AUG-CC-PVTZ AUX)
    Blend: AUG-CC-PVTZ-JKFIT

    Orbital Energies [Eh]
    ---------------------

    Doubly Occupied:

       1A    -15.593460     2A    -15.556449     3A    -11.334028
       4A    -11.285609     5A    -11.283229     6A    -11.271181
       7A    -11.244931     8A    -11.235645     9A    -11.232306
      10A    -11.231055    11A    -11.230657    12A    -11.223859
      13A    -11.221180    14A     -1.296644    15A     -1.223345
      16A     -1.135027    17A     -1.083826    18A     -1.033432
      19A     -1.009988    20A     -0.980520    21A     -0.867828
      22A     -0.860082    23A     -0.824818    24A     -0.801426
      25A     -0.727948    26A     -0.714479    27A     -0.676363
      28A     -0.661031    29A     -0.638655    30A     -0.622780
      31A     -0.598437    32A     -0.594419    33A     -0.583408
      34A     -0.578261    35A     -0.567234    36A     -0.531925
      37A     -0.513815    38A     -0.508452    39A     -0.489908
      40A     -0.459406    41A     -0.417695    42A     -0.384338
      43A     -0.342801    44A     -0.333008    45A     -0.284469

  @DF-RHF Final Energy:  -531.42531631236034

   => Energetics <=

    Nuclear Repulsion Energy =            697.6348904843049468
    One-Electron Energy =               -2103.5416988854367446
    Two-Electron Energy =                 874.4814920887715743
    Total Energy =                       -531.4253163123603372
  Basis Set: (AUG-CC-PVTZ AUX)
    Blend: AUG-CC-PVTZ-RI
    Molecular point group: c1

    Geometry (in Angstrom), charge = 0, multiplicity = 1:

       Center              X                  Y                   Z               Mass
    ------------   -----------------  -----------------  -----------------  -----------------
         N            0.033115078878    -0.980996970599     0.343305336559    14.003074004430
         N            1.375825078878     0.907320029401    -0.062213663441    14.003074004430
         C           -1.237343921122    -0.407000970599     0.155763336559    12.000000000000
         C            1.284707078878    -0.415705970599     0.138904336559    12.000000000000
         C           -2.286223921122    -1.270691970599    -0.200968663441    12.000000000000
         C           -1.516339921122     0.948199029401     0.394722336559    12.000000000000
         C            2.391662178878    -1.303041070599    -0.113086463441    12.000000000000
         C           -3.586161921122    -0.790805970599    -0.339716663441    12.000000000000
         C           -2.820309921122     1.417946029401     0.232734336559    12.000000000000
         C           -3.862468921122     0.560672029401    -0.124236663441    12.000000000000
         C            3.670737078878    -0.697779970599     0.000086336559    12.000000000000
         C            3.778226078878     0.680694029401    -0.216473663441    12.000000000000
         C            2.606673078878     1.426925029401    -0.235952663441    12.000000000000
         H            0.031631078878    -1.994519970599     0.309164336559     1.007825032230
         H           -2.074869921122    -2.323171970599    -0.388341663441     1.007825032230
         H           -0.715547921122     1.619269029401     0.673891336559     1.007825032230
         H            2.303540078878    -2.326038970599     0.353571336559     1.007825032230
         H           -4.382133921122    -1.477122970599    -0.619259663441     1.007825032230
         H           -3.022919921122     2.471606029401     0.411386336559     1.007825032230
         H           -4.874078921122     0.940745029401    -0.240122663441     1.007825032230
         H            4.556428078878    -1.328142970599     0.025619336559     1.007825032230
         H            4.741754078878     1.158973029401    -0.361967663441     1.007825032230
         H            2.635089078878     2.503095029401    -0.399555663441     1.007825032230

  Basis Set: AUG-CC-PVTZ
    Blend: AUG-CC-PVTZ
  Basis Set: (AUG-CC-PVTZ AUX)
    Blend: AUG-CC-PVTZ-JKFIT
	 Reference Energy          =    -531.4253163123603372 [Eh]
	 Singles Energy            =      -0.0000000000000000 [Eh]
	 Same-Spin Energy          =      -0.5926337683411458 [Eh]
	 Opposite-Spin Energy      =      -1.8163313033990716 [Eh]
	 Correlation Energy        =      -2.4089650717402176 [Eh]
	 Total Energy              =    -533.8342813841005636 [Eh]

	 ================> DF-SCS-MP2 Energies <==================
	-----------------------------------------------------------
	 SCS Same-Spin Scale       =       0.3333333333333333 [-]
	 SCS Opposite-Spin Scale   =       1.2000000000000000 [-]
	 SCS Same-Spin Energy      =      -0.1975445894470486 [Eh]
	 SCS Opposite-Spin Energy  =      -2.1795975640788856 [Eh]
	 SCS Correlation Energy    =      -2.3771421535259343 [Eh]
	 SCS Total Energy          =    -533.8024584658862750 [Eh]
	-----------------------------------------------------------

  Dipole Moment: [D]
     X:     1.3844      Y:    -1.6200      Z:     0.0760     Total:     2.1323

*** Psi4 exiting successfully. Buy a developer a beer!
