                               Psi4 1.3.2 release

  ==> Input File <==

--------------------------------------------------------------------------
#psi4
#
memory 32 gb

molecule  {
0 1
  O        1.0716460     0.4753830     0.0137820
  O        2.5311320    -1.1057930    -0.7123110
  C       -2.3693550    -0.0883010     0.2982860
  C       -3.5980660     0.7810210     0.4066790
  C       -1.2626340     0.3942960    -0.2965320
  C        0.0082920    -0.3313460    -0.5624280
  C       -2.5132090    -1.4745150     0.8629900
  C       -4.7090750     0.3554230    -0.5595870
  C        3.3545870     0.8742710     0.4380940
  C        2.3120420    -0.0450080    -0.1482500
  C        4.7580620     0.3036620     0.3135630
  H       -3.3290990     1.8240090     0.2046860
  H       -3.9789780     0.7461160     1.4360390
  H       -1.2730680     1.4248330    -0.6509560
  H        0.2030610    -0.4353830    -1.6357720
  H        0.0438628    -1.2395977    -0.1654046
  H       -2.7951440    -1.4155820     1.9226690
  H       -3.3106690    -2.0257820     0.3507100
  H       -1.6004590    -2.0681310     0.7873000
  H       -5.0436390    -0.6667330    -0.3605950
  H       -4.3535760     0.4008270    -1.5926810
  H       -5.5777020     1.0147490    -0.4669260
  H        3.2685340     1.8407540    -0.0713220
  H        3.0874670     1.0628020     1.4826470
  H        4.8339620    -0.6514900     0.8358700
  H        5.0104170     0.1293290    -0.7342450
  H        5.4905370     0.9935700     0.7404870
units angstrom
no_reorient  #important for SAPT in psi4, default
symmetry c1  #important for SAPT in psi4, default
}

set PROPERTIES_ORIGIN ["COM"]
properties('MP2/aug-cc-pvtz', properties = ['dipole'])
--------------------------------------------------------------------------

    Molecular point group: c1
  Charge       = 0
  Multiplicity = 1
  Basis Set: AUG-CC-PVTZ
    Blend: AUG-CC-PVTZ
  Basis Set: (AUG-CC-PVTZ AUX)
    Blend: AUG-CC-PVTZ-JKFIT

    Orbital Energies [Eh]
    ---------------------

    Doubly Occupied:

       1A    -20.596283     2A    -20.540758     3A    -11.375477
       4A    -11.274982     5A    -11.244086     6A    -11.242077
       7A    -11.228359     8A    -11.226958     9A    -11.222853
      10A    -11.219191    11A    -11.217796    12A     -1.447942
      13A     -1.347536    14A     -1.113197    15A     -1.064488
      16A     -1.024099    17A     -0.979759    18A     -0.921093
      19A     -0.880851    20A     -0.836527    21A     -0.772953
      22A     -0.725082    23A     -0.687979    24A     -0.682975
      25A     -0.660438    26A     -0.638846    27A     -0.623924
      28A     -0.607437    29A     -0.588273    30A     -0.574497
      31A     -0.555004    32A     -0.545203    33A     -0.536074
      34A     -0.522094    35A     -0.517838    36A     -0.515239
      37A     -0.513722    38A     -0.493127    39A     -0.483898
      40A     -0.466420    41A     -0.459161    42A     -0.444698
      43A     -0.345997

  @DF-RHF Final Energy:  -500.03307480237288

   => Energetics <=

    Nuclear Repulsion Energy =            603.5778805665720483
    One-Electron Energy =               -1877.2915262862607051
    Two-Electron Energy =                 773.6805709173157766
    Total Energy =                       -500.0330748023728802
  Basis Set: (AUG-CC-PVTZ AUX)
    Blend: AUG-CC-PVTZ-RI
    Molecular point group: c1

    Geometry (in Angstrom), charge = 0, multiplicity = 1:

       Center              X                  Y                   Z               Mass
    ------------   -----------------  -----------------  -----------------  -----------------
         O            1.071669080139     0.474791878014     0.014040332812    15.994914619570
         O            2.531155080139    -1.106384121986    -0.712052667188    15.994914619570
         C           -2.369331919861    -0.088892121986     0.298544332812    12.000000000000
         C           -3.598042919861     0.780429878014     0.406937332812    12.000000000000
         C           -1.262610919861     0.393704878014    -0.296273667188    12.000000000000
         C            0.008315080139    -0.331937121986    -0.562169667188    12.000000000000
         C           -2.513185919861    -1.475106121986     0.863248332812    12.000000000000
         C           -4.709051919861     0.354831878014    -0.559328667188    12.000000000000
         C            3.354610080139     0.873679878014     0.438352332812    12.000000000000
         C            2.312065080139    -0.045599121986    -0.147991667188    12.000000000000
         C            4.758085080139     0.303070878014     0.313821332812    12.000000000000
         H           -3.329075919861     1.823417878014     0.204944332812     1.007825032230
         H           -3.978954919861     0.745524878014     1.436297332812     1.007825032230
         H           -1.273044919861     1.424241878014    -0.650697667188     1.007825032230
         H            0.203084080139    -0.435974121986    -1.635513667188     1.007825032230
         H            0.043885880139    -1.240188821986    -0.165146267188     1.007825032230
         H           -2.795120919861    -1.416173121986     1.922927332812     1.007825032230
         H           -3.310645919861    -2.026373121986     0.350968332812     1.007825032230
         H           -1.600435919861    -2.068722121986     0.787558332812     1.007825032230
         H           -5.043615919861    -0.667324121986    -0.360336667188     1.007825032230
         H           -4.353552919861     0.400235878014    -1.592422667188     1.007825032230
         H           -5.577678919861     1.014157878014    -0.466667667188     1.007825032230
         H            3.268557080139     1.840162878014    -0.071063667188     1.007825032230
         H            3.087490080139     1.062210878014     1.482905332812     1.007825032230
         H            4.833985080139    -0.652081121986     0.836128332812     1.007825032230
         H            5.010440080139     0.128737878014    -0.733986667188     1.007825032230
         H            5.490560080139     0.992978878014     0.740745332812     1.007825032230

  Basis Set: AUG-CC-PVTZ
    Blend: AUG-CC-PVTZ
  Basis Set: (AUG-CC-PVTZ AUX)
    Blend: AUG-CC-PVTZ-JKFIT
	 Reference Energy          =    -500.0330748023728802 [Eh]
	 Singles Energy            =      -0.0000000000000000 [Eh]
	 Same-Spin Energy          =      -0.5094176606141375 [Eh]
	 Opposite-Spin Energy      =      -1.7159458733947051 [Eh]
	 Correlation Energy        =      -2.2253635340088427 [Eh]
	 Total Energy              =    -502.2584383363817437 [Eh]

	 ================> DF-SCS-MP2 Energies <==================
	-----------------------------------------------------------
	 SCS Same-Spin Scale       =       0.3333333333333333 [-]
	 SCS Opposite-Spin Scale   =       1.2000000000000000 [-]
	 SCS Same-Spin Energy      =      -0.1698058868713792 [Eh]
	 SCS Opposite-Spin Energy  =      -2.0591350480736459 [Eh]
	 SCS Correlation Energy    =      -2.2289409349450251 [Eh]
	 SCS Total Energy          =    -502.2620157373178813 [Eh]
	-----------------------------------------------------------

  Dipole Moment: [D]
     X:    -1.4608      Y:     1.1552      Z:     0.8381     Total:     2.0423

*** Psi4 exiting successfully. Buy a developer a beer!
