                               Psi4 1.3.2 release

  ==> Input File <==

--------------------------------------------------------------------------
#psi4
#
memory 32 gb

molecule  {
0 1
  O        1.1215328     0.4230957    -0.0101019
  O        2.5311320    -1.1057930    -0.7123110
  C       -2.3693550    -0.0883010     0.2982860
  C       -3.5980660     0.7810210     0.4066790
  C       -1.3006100     0.3370341    -0.3331822
  C        0.0082920    -0.3313460    -0.5624280
  C       -2.5132090    -1.4745150     0.8629900
  C       -4.7090750     0.3554230    -0.5595870
  C        3.3545870     0.8742710     0.4380940
  C        2.3120420    -0.0450080    -0.1482500
  C        4.7580620     0.3036620     0.3135630
  H       -3.3290990     1.8240090     0.2046860
  H       -3.9789780     0.7461160     1.4360390
  H       -1.2730680     1.4248330    -0.6509560
  H        0.2030610    -0.4353830    -1.6357720
  H        0.0474490    -1.3311670    -0.1253770
  H       -2.7951440    -1.4155820     1.9226690
  H       -3.3106690    -2.0257820     0.3507100
  H       -1.6004590    -2.0681310     0.7873000
  H       -5.0436390    -0.6667330    -0.3605950
  H       -4.3535760     0.4008270    -1.5926810
  H       -5.5777020     1.0147490    -0.4669260
  H        3.2685340     1.8407540    -0.0713220
  H        3.0874670     1.0628020     1.4826470
  H        4.8339620    -0.6514900     0.8358700
  H        5.0104170     0.1293290    -0.7342450
  H        5.4905370     0.9935700     0.7404870
units angstrom
no_reorient  #important for SAPT in psi4, default
symmetry c1  #important for SAPT in psi4, default
}

set PROPERTIES_ORIGIN ["COM"]
properties('MP2/aug-cc-pvtz', properties = ['dipole'])
--------------------------------------------------------------------------

    Molecular point group: c1
  Charge       = 0
  Multiplicity = 1
  Basis Set: AUG-CC-PVTZ
    Blend: AUG-CC-PVTZ
  Basis Set: (AUG-CC-PVTZ AUX)
    Blend: AUG-CC-PVTZ-JKFIT

    Orbital Energies [Eh]
    ---------------------

    Doubly Occupied:

       1A    -20.599711     2A    -20.525569     3A    -11.365777
       4A    -11.292155     5A    -11.244031     6A    -11.239296
       7A    -11.231487     8A    -11.227748     9A    -11.226984
      10A    -11.221381    11A    -11.215341    12A     -1.472143
      13A     -1.341075    14A     -1.121211    15A     -1.063864
      16A     -1.026952    17A     -0.983010    18A     -0.926975
      19A     -0.879175    20A     -0.839804    21A     -0.772077
      22A     -0.724420    23A     -0.690045    24A     -0.685388
      25A     -0.664219    26A     -0.641435    27A     -0.625902
      28A     -0.606960    29A     -0.587968    30A     -0.578513
      31A     -0.554853    32A     -0.546274    33A     -0.534694
      34A     -0.520570    35A     -0.517957    36A     -0.512599
      37A     -0.505279    38A     -0.490941    39A     -0.487225
      40A     -0.462587    41A     -0.451649    42A     -0.438670
      43A     -0.358027

  @DF-RHF Final Energy:  -500.03551430968031

   => Energetics <=

    Nuclear Repulsion Energy =            604.6833369308195643
    One-Electron Energy =               -1879.4338231551168974
    Two-Electron Energy =                 774.7149719146168536
    Total Energy =                       -500.0355143096803658
  Basis Set: (AUG-CC-PVTZ AUX)
    Blend: AUG-CC-PVTZ-RI
    Molecular point group: c1

    Geometry (in Angstrom), charge = 0, multiplicity = 1:

       Center              X                  Y                   Z               Mass
    ------------   -----------------  -----------------  -----------------  -----------------
         O            1.119340607405     0.432854379276    -0.004837754966    15.994914619570
         O            2.528939807405    -1.096034320724    -0.707046854966    15.994914619570
         C           -2.371547192595    -0.078542320724     0.303550145034    12.000000000000
         C           -3.600258192595     0.790779679276     0.411943145034    12.000000000000
         C           -1.302802192595     0.346792779276    -0.327918054966    12.000000000000
         C            0.006099807405    -0.321587320724    -0.557163854966    12.000000000000
         C           -2.515401192595    -1.464756320724     0.868254145034    12.000000000000
         C           -4.711267192595     0.365181679276    -0.554322854966    12.000000000000
         C            3.352394807405     0.884029679276     0.443358145034    12.000000000000
         C            2.309849807405    -0.035249320724    -0.142985854966    12.000000000000
         C            4.755869807405     0.313420679276     0.318827145034    12.000000000000
         H           -3.331291192595     1.833767679276     0.209950145034     1.007825032230
         H           -3.981170192595     0.755874679276     1.441303145034     1.007825032230
         H           -1.275260192595     1.434591679276    -0.645691854966     1.007825032230
         H            0.200868807405    -0.425624320724    -1.630507854966     1.007825032230
         H            0.045256807405    -1.321408320724    -0.120112854966     1.007825032230
         H           -2.797336192595    -1.405823320724     1.927933145034     1.007825032230
         H           -3.312861192595    -2.016023320724     0.355974145034     1.007825032230
         H           -1.602651192595    -2.058372320724     0.792564145034     1.007825032230
         H           -5.045831192595    -0.656974320724    -0.355330854966     1.007825032230
         H           -4.355768192595     0.410585679276    -1.587416854966     1.007825032230
         H           -5.579894192595     1.024507679276    -0.461661854966     1.007825032230
         H            3.266341807405     1.850512679276    -0.066057854966     1.007825032230
         H            3.085274807405     1.072560679276     1.487911145034     1.007825032230
         H            4.831769807405    -0.641731320724     0.841134145034     1.007825032230
         H            5.008224807405     0.139087679276    -0.728980854966     1.007825032230
         H            5.488344807405     1.003328679276     0.745751145034     1.007825032230

  Basis Set: AUG-CC-PVTZ
    Blend: AUG-CC-PVTZ
  Basis Set: (AUG-CC-PVTZ AUX)
    Blend: AUG-CC-PVTZ-JKFIT
	 Reference Energy          =    -500.0355143096803090 [Eh]
	 Singles Energy            =      -0.0000000000000000 [Eh]
	 Same-Spin Energy          =      -0.5085515556314271 [Eh]
	 Opposite-Spin Energy      =      -1.7133652268256081 [Eh]
	 Correlation Energy        =      -2.2219167824570354 [Eh]
	 Total Energy              =    -502.2574310921373240 [Eh]

	 ================> DF-SCS-MP2 Energies <==================
	-----------------------------------------------------------
	 SCS Same-Spin Scale       =       0.3333333333333333 [-]
	 SCS Opposite-Spin Scale   =       1.2000000000000000 [-]
	 SCS Same-Spin Energy      =      -0.1695171852104757 [Eh]
	 SCS Opposite-Spin Energy  =      -2.0560382721907295 [Eh]
	 SCS Correlation Energy    =      -2.2255554574012053 [Eh]
	 SCS Total Energy          =    -502.2610697670814943 [Eh]
	-----------------------------------------------------------

  Dipole Moment: [D]
     X:    -1.9612      Y:     1.3663      Z:     0.9803     Total:     2.5834

*** Psi4 exiting successfully. Buy a developer a beer!
