                               Psi4 1.3.2 release

  ==> Input File <==

--------------------------------------------------------------------------
#psi4
#
memory 32 gb

molecule  {
0 1
  O        1.0716460     0.4753830     0.0137820
  O        2.5311320    -1.1057930    -0.7123110
  C       -2.3693550    -0.0883010     0.2982860
  C       -3.5980660     0.7810210     0.4066790
  C       -1.2626340     0.3942960    -0.2965320
  C        0.0082920    -0.3313460    -0.5624280
  C       -2.5132090    -1.4745150     0.8629900
  C       -4.7090750     0.3554230    -0.5595870
  C        3.3545870     0.8742710     0.4380940
  C        2.3120420    -0.0450080    -0.1482500
  C        4.7580620     0.3036620     0.3135630
  H       -3.3290990     1.8240090     0.2046860
  H       -3.9789780     0.7461160     1.4360390
  H       -1.2730680     1.4248330    -0.6509560
  H        0.2030610    -0.4353830    -1.6357720
  H        0.0474490    -1.3311670    -0.1253770
  H       -2.7951440    -1.4155820     1.9226690
  H       -3.3106690    -2.0257820     0.3507100
  H       -1.6004590    -2.0681310     0.7873000
  H       -5.0436390    -0.6667330    -0.3605950
  H       -4.3535760     0.4008270    -1.5926810
  H       -5.5777020     1.0147490    -0.4669260
  H        3.2685340     1.8407540    -0.0713220
  H        3.1362772     1.0283522     1.2917785
  H        4.8339620    -0.6514900     0.8358700
  H        5.0104170     0.1293290    -0.7342450
  H        5.4905370     0.9935700     0.7404870
units angstrom
no_reorient  #important for SAPT in psi4, default
symmetry c1  #important for SAPT in psi4, default
}

set PROPERTIES_ORIGIN ["COM"]
properties('MP2/aug-cc-pvtz', properties = ['dipole'])
--------------------------------------------------------------------------

    Molecular point group: c1
  Charge       = 0
  Multiplicity = 1
  Basis Set: AUG-CC-PVTZ
    Blend: AUG-CC-PVTZ
  Basis Set: (AUG-CC-PVTZ AUX)
    Blend: AUG-CC-PVTZ-JKFIT

    Orbital Energies [Eh]
    ---------------------

    Doubly Occupied:

       1A    -20.597842     2A    -20.540029     3A    -11.374431
       4A    -11.286718     5A    -11.244422     6A    -11.228537
       7A    -11.226531     8A    -11.223431     9A    -11.219302
      10A    -11.218232    11A    -11.216534    12A     -1.448233
      13A     -1.347234    14A     -1.112938    15A     -1.077667
      16A     -1.023028    17A     -0.978144    18A     -0.920228
      19A     -0.885550    20A     -0.836497    21A     -0.773511
      22A     -0.728963    23A     -0.692749    24A     -0.681755
      25A     -0.664244    26A     -0.644974    27A     -0.623646
      28A     -0.610369    29A     -0.588307    30A     -0.574436
      31A     -0.552940    32A     -0.544494    33A     -0.533472
      34A     -0.526838    35A     -0.519278    36A     -0.514454
      37A     -0.512315    38A     -0.499192    39A     -0.484018
      40A     -0.465822    41A     -0.457257    42A     -0.444565
      43A     -0.346234

  @DF-RHF Final Energy:  -500.00448191403279

   => Energetics <=

    Nuclear Repulsion Energy =            604.1322450441506362
    One-Electron Energy =               -1878.2947296806319173
    Two-Electron Energy =                 774.1580027224483729
    Total Energy =                       -500.0044819140327945
  Basis Set: (AUG-CC-PVTZ AUX)
    Blend: AUG-CC-PVTZ-RI
    Molecular point group: c1

    Geometry (in Angstrom), charge = 0, multiplicity = 1:

       Center              X                  Y                   Z               Mass
    ------------   -----------------  -----------------  -----------------  -----------------
         O            1.071330826970     0.475605414057     0.015014109873    15.994914619570
         O            2.530816826970    -1.105570585943    -0.711078890127    15.994914619570
         C           -2.369670173030    -0.088078585943     0.299518109873    12.000000000000
         C           -3.598381173030     0.781243414057     0.407911109873    12.000000000000
         C           -1.262949173030     0.394518414057    -0.295299890127    12.000000000000
         C            0.007976826970    -0.331123585943    -0.561195890127    12.000000000000
         C           -2.513524173030    -1.474292585943     0.864222109873    12.000000000000
         C           -4.709390173030     0.355645414057    -0.558354890127    12.000000000000
         C            3.354271826970     0.874493414057     0.439326109873    12.000000000000
         C            2.311726826970    -0.044785585943    -0.147017890127    12.000000000000
         C            4.757746826970     0.303884414057     0.314795109873    12.000000000000
         H           -3.329414173030     1.824231414057     0.205918109873     1.007825032230
         H           -3.979293173030     0.746338414057     1.437271109873     1.007825032230
         H           -1.273383173030     1.425055414057    -0.649723890127     1.007825032230
         H            0.202745826970    -0.435160585943    -1.634539890127     1.007825032230
         H            0.047133826970    -1.330944585943    -0.124144890127     1.007825032230
         H           -2.795459173030    -1.415359585943     1.923901109873     1.007825032230
         H           -3.310984173030    -2.025559585943     0.351942109873     1.007825032230
         H           -1.600774173030    -2.067908585943     0.788532109873     1.007825032230
         H           -5.043954173030    -0.666510585943    -0.359362890127     1.007825032230
         H           -4.353891173030     0.401049414057    -1.591448890127     1.007825032230
         H           -5.578017173030     1.014971414057    -0.465693890127     1.007825032230
         H            3.268218826970     1.840976414057    -0.070089890127     1.007825032230
         H            3.135962026970     1.028574614057     1.293010609873     1.007825032230
         H            4.833646826970    -0.651267585943     0.837102109873     1.007825032230
         H            5.010101826970     0.129551414057    -0.733012890127     1.007825032230
         H            5.490221826970     0.993792414057     0.741719109873     1.007825032230

  Basis Set: AUG-CC-PVTZ
    Blend: AUG-CC-PVTZ
  Basis Set: (AUG-CC-PVTZ AUX)
    Blend: AUG-CC-PVTZ-JKFIT
	 Reference Energy          =    -500.0044819140327945 [Eh]
	 Singles Energy            =      -0.0000000000000000 [Eh]
	 Same-Spin Energy          =      -0.5098087968675177 [Eh]
	 Opposite-Spin Energy      =      -1.7162468515089189 [Eh]
	 Correlation Energy        =      -2.2260556483764367 [Eh]
	 Total Energy              =    -502.2305375624092108 [Eh]

	 ================> DF-SCS-MP2 Energies <==================
	-----------------------------------------------------------
	 SCS Same-Spin Scale       =       0.3333333333333333 [-]
	 SCS Opposite-Spin Scale   =       1.2000000000000000 [-]
	 SCS Same-Spin Energy      =      -0.1699362656225059 [Eh]
	 SCS Opposite-Spin Energy  =      -2.0594962218107025 [Eh]
	 SCS Correlation Energy    =      -2.2294324874332085 [Eh]
	 SCS Total Energy          =    -502.2339144014659951 [Eh]
	-----------------------------------------------------------

  Dipole Moment: [D]
     X:    -1.4849      Y:     1.1983      Z:     0.8583     Total:     2.0922

*** Psi4 exiting successfully. Buy a developer a beer!
