                               Psi4 1.3.2 release

  ==> Input File <==

--------------------------------------------------------------------------
#psi4
#
memory 32 gb

molecule  {
0 1
  O        1.0716460     0.4753830     0.0137820
  O        2.5520145    -1.1029679    -0.7091101
  C       -2.3693550    -0.0883010     0.2982860
  C       -3.5980660     0.7810210     0.4066790
  C       -1.2626340     0.3942960    -0.2965320
  C        0.0082920    -0.3313460    -0.5624280
  C       -2.5132090    -1.4745150     0.8629900
  C       -4.7090750     0.3554230    -0.5595870
  C        3.3733700     0.8575053     0.4303914
  C        2.3120420    -0.0450080    -0.1482500
  C        4.7580620     0.3036620     0.3135630
  H       -3.3290990     1.8240090     0.2046860
  H       -3.9789780     0.7461160     1.4360390
  H       -1.2730680     1.4248330    -0.6509560
  H        0.2030610    -0.4353830    -1.6357720
  H        0.0474490    -1.3311670    -0.1253770
  H       -2.7951440    -1.4155820     1.9226690
  H       -3.3106690    -2.0257820     0.3507100
  H       -1.6004590    -2.0681310     0.7873000
  H       -5.0436390    -0.6667330    -0.3605950
  H       -4.3535760     0.4008270    -1.5926810
  H       -5.5777020     1.0147490    -0.4669260
  H        3.2685340     1.8407540    -0.0713220
  H        3.0874670     1.0628020     1.4826470
  H        4.8339620    -0.6514900     0.8358700
  H        5.0104170     0.1293290    -0.7342450
  H        5.4905370     0.9935700     0.7404870
units angstrom
no_reorient  #important for SAPT in psi4, default
symmetry c1  #important for SAPT in psi4, default
}

set PROPERTIES_ORIGIN ["COM"]
properties('MP2/aug-cc-pvtz', properties = ['dipole'])
--------------------------------------------------------------------------

    Molecular point group: c1
  Charge       = 0
  Multiplicity = 1
  Basis Set: AUG-CC-PVTZ
    Blend: AUG-CC-PVTZ
  Basis Set: (AUG-CC-PVTZ AUX)
    Blend: AUG-CC-PVTZ-JKFIT

    Orbital Energies [Eh]
    ---------------------

    Doubly Occupied:

       1A    -20.599055     2A    -20.540172     3A    -11.375339
       4A    -11.287605     5A    -11.244865     6A    -11.242368
       7A    -11.228792     8A    -11.226820     9A    -11.223853
      10A    -11.219519    11A    -11.216172    12A     -1.447932
      13A     -1.348825    14A     -1.112984    15A     -1.065413
      16A     -1.022945    17A     -0.978710    18A     -0.920212
      19A     -0.878739    20A     -0.833639    21A     -0.767327
      22A     -0.722407    23A     -0.688136    24A     -0.680245
      25A     -0.659947    26A     -0.637871    27A     -0.624061
      28A     -0.604840    29A     -0.588669    30A     -0.575177
      31A     -0.553679    32A     -0.545691    33A     -0.534415
      34A     -0.527640    35A     -0.516347    36A     -0.515043
      37A     -0.512295    38A     -0.486471    39A     -0.484255
      40A     -0.466247    41A     -0.457929    42A     -0.442851
      43A     -0.346686

  @DF-RHF Final Energy:  -500.03734193200683

   => Energetics <=

    Nuclear Repulsion Energy =            603.0495899617498026
    One-Electron Energy =               -1876.2694865369169293
    Two-Electron Energy =                 773.1825546431604153
    Total Energy =                       -500.0373419320068251
  Basis Set: (AUG-CC-PVTZ AUX)
    Blend: AUG-CC-PVTZ-RI
    Molecular point group: c1

    Geometry (in Angstrom), charge = 0, multiplicity = 1:

       Center              X                  Y                   Z               Mass
    ------------   -----------------  -----------------  -----------------  -----------------
         O            1.068062610809     0.476382288623     0.014046048216    15.994914619570
         O            2.548431110809    -1.101968611377    -0.708846051784    15.994914619570
         C           -2.372938389191    -0.087301711377     0.298550048216    12.000000000000
         C           -3.601649389191     0.782020288623     0.406943048216    12.000000000000
         C           -1.266217389191     0.395295288623    -0.296267951784    12.000000000000
         C            0.004708610809    -0.330346711377    -0.562163951784    12.000000000000
         C           -2.516792389191    -1.473515711377     0.863254048216    12.000000000000
         C           -4.712658389191     0.356422288623    -0.559322951784    12.000000000000
         C            3.369786610809     0.858504588623     0.430655448216    12.000000000000
         C            2.308458610809    -0.044008711377    -0.147985951784    12.000000000000
         C            4.754478610809     0.304661288623     0.313827048216    12.000000000000
         H           -3.332682389191     1.825008288623     0.204950048216     1.007825032230
         H           -3.982561389191     0.747115288623     1.436303048216     1.007825032230
         H           -1.276651389191     1.425832288623    -0.650691951784     1.007825032230
         H            0.199477610809    -0.434383711377    -1.635507951784     1.007825032230
         H            0.043865610809    -1.330167711377    -0.125112951784     1.007825032230
         H           -2.798727389191    -1.414582711377     1.922933048216     1.007825032230
         H           -3.314252389191    -2.024782711377     0.350974048216     1.007825032230
         H           -1.604042389191    -2.067131711377     0.787564048216     1.007825032230
         H           -5.047222389191    -0.665733711377    -0.360330951784     1.007825032230
         H           -4.357159389191     0.401826288623    -1.592416951784     1.007825032230
         H           -5.581285389191     1.015748288623    -0.466661951784     1.007825032230
         H            3.264950610809     1.841753288623    -0.071057951784     1.007825032230
         H            3.083883610809     1.063801288623     1.482911048216     1.007825032230
         H            4.830378610809    -0.650490711377     0.836134048216     1.007825032230
         H            5.006833610809     0.130328288623    -0.733980951784     1.007825032230
         H            5.486953610809     0.994569288623     0.740751048216     1.007825032230

  Basis Set: AUG-CC-PVTZ
    Blend: AUG-CC-PVTZ
  Basis Set: (AUG-CC-PVTZ AUX)
    Blend: AUG-CC-PVTZ-JKFIT
	 Reference Energy          =    -500.0373419320068251 [Eh]
	 Singles Energy            =      -0.0000000000000000 [Eh]
	 Same-Spin Energy          =      -0.5098882329596870 [Eh]
	 Opposite-Spin Energy      =      -1.7169222483080238 [Eh]
	 Correlation Energy        =      -2.2268104812677105 [Eh]
	 Total Energy              =    -502.2641524132745303 [Eh]

	 ================> DF-SCS-MP2 Energies <==================
	-----------------------------------------------------------
	 SCS Same-Spin Scale       =       0.3333333333333333 [-]
	 SCS Opposite-Spin Scale   =       1.2000000000000000 [-]
	 SCS Same-Spin Energy      =      -0.1699627443198957 [Eh]
	 SCS Opposite-Spin Energy  =      -2.0603066979696285 [Eh]
	 SCS Correlation Energy    =      -2.2302694422895240 [Eh]
	 SCS Total Energy          =    -502.2676113742963366 [Eh]
	-----------------------------------------------------------

  Dipole Moment: [D]
     X:    -1.5152      Y:     1.1663      Z:     0.8217     Total:     2.0812

*** Psi4 exiting successfully. Buy a developer a beer!
