                               Psi4 1.3.2 release

  ==> Input File <==

--------------------------------------------------------------------------
#psi4
#
memory 32 gb

molecule  {
0 1
  O        1.0716460     0.4753830     0.0137820
  O        2.5311320    -1.1057930    -0.7123110
  C       -2.3693550    -0.0883010     0.2982860
  C       -3.5166426     0.7234134     0.3994961
  C       -1.2626340     0.3942960    -0.2965320
  C        0.0082920    -0.3313460    -0.5624280
  C       -2.5132090    -1.4745150     0.8629900
  C       -4.7090750     0.3554230    -0.5595870
  C        3.3545870     0.8742710     0.4380940
  C        2.3120420    -0.0450080    -0.1482500
  C        4.7580620     0.3036620     0.3135630
  H       -3.3290990     1.8240090     0.2046860
  H       -3.9789780     0.7461160     1.4360390
  H       -1.2730680     1.4248330    -0.6509560
  H        0.2030610    -0.4353830    -1.6357720
  H        0.0474490    -1.3311670    -0.1253770
  H       -2.7951440    -1.4155820     1.9226690
  H       -3.3106690    -2.0257820     0.3507100
  H       -1.6004590    -2.0681310     0.7873000
  H       -5.0436390    -0.6667330    -0.3605950
  H       -4.3535760     0.4008270    -1.5926810
  H       -5.5777020     1.0147490    -0.4669260
  H        3.2685340     1.8407540    -0.0713220
  H        3.0874670     1.0628020     1.4826470
  H        4.8339620    -0.6514900     0.8358700
  H        5.0104170     0.1293290    -0.7342450
  H        5.4905370     0.9935700     0.7404870
units angstrom
no_reorient  #important for SAPT in psi4, default
symmetry c1  #important for SAPT in psi4, default
}

set PROPERTIES_ORIGIN ["COM"]
properties('MP2/aug-cc-pvtz', properties = ['dipole'])
--------------------------------------------------------------------------

    Molecular point group: c1
  Charge       = 0
  Multiplicity = 1
  Basis Set: AUG-CC-PVTZ
    Blend: AUG-CC-PVTZ
  Basis Set: (AUG-CC-PVTZ AUX)
    Blend: AUG-CC-PVTZ-JKFIT

    Orbital Energies [Eh]
    ---------------------

    Doubly Occupied:

       1A    -20.597829     2A    -20.541136     3A    -11.375901
       4A    -11.287027     5A    -11.242458     6A    -11.239606
       7A    -11.230805     8A    -11.226667     9A    -11.224936
      10A    -11.222041    11A    -11.218070    12A     -1.448589
      13A     -1.348023    14A     -1.124491    15A     -1.064733
      16A     -1.019215    17A     -0.975294    18A     -0.923154
      19A     -0.883150    20A     -0.833712    21A     -0.767948
      22A     -0.724045    23A     -0.689110    24A     -0.682280
      25A     -0.660923    26A     -0.640950    27A     -0.622217
      28A     -0.606777    29A     -0.589753    30A     -0.573120
      31A     -0.552569    32A     -0.546008    33A     -0.533964
      34A     -0.524035    35A     -0.518772    36A     -0.515930
      37A     -0.499564    38A     -0.492697    39A     -0.484055
      40A     -0.467962    41A     -0.457749    42A     -0.444734
      43A     -0.343227

  @DF-RHF Final Energy:  -500.02610284690019

   => Energetics <=

    Nuclear Repulsion Energy =            604.4671612593092505
    One-Electron Energy =               -1879.0560779187114804
    Two-Electron Energy =                 774.5628138125020996
    Total Energy =                       -500.0261028469001303
  Basis Set: (AUG-CC-PVTZ AUX)
    Blend: AUG-CC-PVTZ-RI
    Molecular point group: c1

    Geometry (in Angstrom), charge = 0, multiplicity = 1:

       Center              X                  Y                   Z               Mass
    ------------   -----------------  -----------------  -----------------  -----------------
         O            1.065387205398     0.479811106681     0.014334052019    15.994914619570
         O            2.524873205398    -1.101364893319    -0.711758947981    15.994914619570
         C           -2.375613794602    -0.083872893319     0.298838052019    12.000000000000
         C           -3.522901394602     0.727841506681     0.400048152019    12.000000000000
         C           -1.268892794602     0.398724106681    -0.295979947981    12.000000000000
         C            0.002033205398    -0.326917893319    -0.561875947981    12.000000000000
         C           -2.519467794602    -1.470086893319     0.863542052019    12.000000000000
         C           -4.715333794602     0.359851106681    -0.559034947981    12.000000000000
         C            3.348328205398     0.878699106681     0.438646052019    12.000000000000
         C            2.305783205398    -0.040579893319    -0.147697947981    12.000000000000
         C            4.751803205398     0.308090106681     0.314115052019    12.000000000000
         H           -3.335357794602     1.828437106681     0.205238052019     1.007825032230
         H           -3.985236794602     0.750544106681     1.436591052019     1.007825032230
         H           -1.279326794602     1.429261106681    -0.650403947981     1.007825032230
         H            0.196802205398    -0.430954893319    -1.635219947981     1.007825032230
         H            0.041190205398    -1.326738893319    -0.124824947981     1.007825032230
         H           -2.801402794602    -1.411153893319     1.923221052019     1.007825032230
         H           -3.316927794602    -2.021353893319     0.351262052019     1.007825032230
         H           -1.606717794602    -2.063702893319     0.787852052019     1.007825032230
         H           -5.049897794602    -0.662304893319    -0.360042947981     1.007825032230
         H           -4.359834794602     0.405255106681    -1.592128947981     1.007825032230
         H           -5.583960794602     1.019177106681    -0.466373947981     1.007825032230
         H            3.262275205398     1.845182106681    -0.070769947981     1.007825032230
         H            3.081208205398     1.067230106681     1.483199052019     1.007825032230
         H            4.827703205398    -0.647061893319     0.836422052019     1.007825032230
         H            5.004158205398     0.133757106681    -0.733692947981     1.007825032230
         H            5.484278205398     0.997998106681     0.741039052019     1.007825032230

  Basis Set: AUG-CC-PVTZ
    Blend: AUG-CC-PVTZ
  Basis Set: (AUG-CC-PVTZ AUX)
    Blend: AUG-CC-PVTZ-JKFIT
	 Reference Energy          =    -500.0261028469001872 [Eh]
	 Singles Energy            =      -0.0000000000000000 [Eh]
	 Same-Spin Energy          =      -0.5109240762462732 [Eh]
	 Opposite-Spin Energy      =      -1.7183095523139005 [Eh]
	 Correlation Energy        =      -2.2292336285601735 [Eh]
	 Total Energy              =    -502.2553364754603535 [Eh]

	 ================> DF-SCS-MP2 Energies <==================
	-----------------------------------------------------------
	 SCS Same-Spin Scale       =       0.3333333333333333 [-]
	 SCS Opposite-Spin Scale   =       1.2000000000000000 [-]
	 SCS Same-Spin Energy      =      -0.1703080254154244 [Eh]
	 SCS Opposite-Spin Energy  =      -2.0619714627766803 [Eh]
	 SCS Correlation Energy    =      -2.2322794881921046 [Eh]
	 SCS Total Energy          =    -502.2583823350922785 [Eh]
	-----------------------------------------------------------

  Dipole Moment: [D]
     X:    -1.4235      Y:     1.1769      Z:     0.8174     Total:     2.0198

*** Psi4 exiting successfully. Buy a developer a beer!
