                               Psi4 1.3.2 release

  ==> Input File <==

--------------------------------------------------------------------------
#psi4
#
memory 32 gb

molecule  {
0 1
  O        1.0716460     0.4753830     0.0137820
  O        2.5311320    -1.1057930    -0.7123110
  C       -2.3693550    -0.0883010     0.2982860
  C       -3.5715459     0.8198656     0.3829682
  C       -1.2626340     0.3942960    -0.2965320
  C        0.0082920    -0.3313460    -0.5624280
  C       -2.4635213    -1.4842976     0.8491943
  C       -4.7090750     0.3554230    -0.5595870
  C        3.3545870     0.8742710     0.4380940
  C        2.3120420    -0.0450080    -0.1482500
  C        4.7580620     0.3036620     0.3135630
  H       -3.3290990     1.8240090     0.2046860
  H       -3.9789780     0.7461160     1.4360390
  H       -1.2730680     1.4248330    -0.6509560
  H        0.2030610    -0.4353830    -1.6357720
  H        0.0474490    -1.3311670    -0.1253770
  H       -2.7951440    -1.4155820     1.9226690
  H       -3.3106690    -2.0257820     0.3507100
  H       -1.6004590    -2.0681310     0.7873000
  H       -5.0436390    -0.6667330    -0.3605950
  H       -4.3535760     0.4008270    -1.5926810
  H       -5.5777020     1.0147490    -0.4669260
  H        3.2685340     1.8407540    -0.0713220
  H        3.0874670     1.0628020     1.4826470
  H        4.8339620    -0.6514900     0.8358700
  H        5.0104170     0.1293290    -0.7342450
  H        5.4905370     0.9935700     0.7404870
units angstrom
no_reorient  #important for SAPT in psi4, default
symmetry c1  #important for SAPT in psi4, default
}

set PROPERTIES_ORIGIN ["COM"]
properties('MP2/aug-cc-pvtz', properties = ['dipole'])
--------------------------------------------------------------------------

    Molecular point group: c1
  Charge       = 0
  Multiplicity = 1
  Basis Set: AUG-CC-PVTZ
    Blend: AUG-CC-PVTZ
  Basis Set: (AUG-CC-PVTZ AUX)
    Blend: AUG-CC-PVTZ-JKFIT

    Orbital Energies [Eh]
    ---------------------

    Doubly Occupied:

       1A    -20.597065     2A    -20.540655     3A    -11.375376
       4A    -11.286002     5A    -11.244645     6A    -11.242117
       7A    -11.229757     8A    -11.228425     9A    -11.221239
      10A    -11.220113    11A    -11.217822    12A     -1.447930
      13A     -1.347453    14A     -1.112666    15A     -1.063615
      16A     -1.020335    17A     -0.977939    18A     -0.920150
      19A     -0.879908    20A     -0.833396    21A     -0.767191
      22A     -0.724180    23A     -0.688813    24A     -0.681977
      25A     -0.660205    26A     -0.641841    27A     -0.621484
      28A     -0.604871    29A     -0.584884    30A     -0.571140
      31A     -0.555301    32A     -0.544516    33A     -0.535824
      34A     -0.521506    35A     -0.517671    36A     -0.514089
      37A     -0.508702    38A     -0.492441    39A     -0.484947
      40A     -0.469326    41A     -0.457409    42A     -0.444255
      43A     -0.343386

  @DF-RHF Final Energy:  -500.03204593046758

   => Energetics <=

    Nuclear Repulsion Energy =            603.2496698354132150
    One-Electron Energy =               -1876.6782972843334392
    Two-Electron Energy =                 773.3965815184526491
    Total Energy =                       -500.0320459304675751
  Basis Set: (AUG-CC-PVTZ AUX)
    Blend: AUG-CC-PVTZ-RI
    Molecular point group: c1

    Geometry (in Angstrom), charge = 0, multiplicity = 1:

       Center              X                  Y                   Z               Mass
    ------------   -----------------  -----------------  -----------------  -----------------
         O            1.065788109783     0.473149126719     0.016664917923    15.994914619570
         O            2.525274109783    -1.108026873281    -0.709428082077    15.994914619570
         C           -2.375212890217    -0.090534873281     0.301168917923    12.000000000000
         C           -3.577403790217     0.817631726719     0.385851117923    12.000000000000
         C           -1.268491890217     0.392062126719    -0.293649082077    12.000000000000
         C            0.002434109783    -0.333579873281    -0.559545082077    12.000000000000
         C           -2.469379190217    -1.486531473281     0.852077217923    12.000000000000
         C           -4.714932890217     0.353189126719    -0.556704082077    12.000000000000
         C            3.348729109783     0.872037126719     0.440976917923    12.000000000000
         C            2.306184109783    -0.047241873281    -0.145367082077    12.000000000000
         C            4.752204109783     0.301428126719     0.316445917923    12.000000000000
         H           -3.334956890217     1.821775126719     0.207568917923     1.007825032230
         H           -3.984835890217     0.743882126719     1.438921917923     1.007825032230
         H           -1.278925890217     1.422599126719    -0.648073082077     1.007825032230
         H            0.197203109783    -0.437616873281    -1.632889082077     1.007825032230
         H            0.041591109783    -1.333400873281    -0.122494082077     1.007825032230
         H           -2.801001890217    -1.417815873281     1.925551917923     1.007825032230
         H           -3.316526890217    -2.028015873281     0.353592917923     1.007825032230
         H           -1.606316890217    -2.070364873281     0.790182917923     1.007825032230
         H           -5.049496890217    -0.668966873281    -0.357712082077     1.007825032230
         H           -4.359433890217     0.398593126719    -1.589798082077     1.007825032230
         H           -5.583559890217     1.012515126719    -0.464043082077     1.007825032230
         H            3.262676109783     1.838520126719    -0.068439082077     1.007825032230
         H            3.081609109783     1.060568126719     1.485529917923     1.007825032230
         H            4.828104109783    -0.653723873281     0.838752917923     1.007825032230
         H            5.004559109783     0.127095126719    -0.731362082077     1.007825032230
         H            5.484679109783     0.991336126719     0.743369917923     1.007825032230

  Basis Set: AUG-CC-PVTZ
    Blend: AUG-CC-PVTZ
  Basis Set: (AUG-CC-PVTZ AUX)
    Blend: AUG-CC-PVTZ-JKFIT
	 Reference Energy          =    -500.0320459304675751 [Eh]
	 Singles Energy            =      -0.0000000000000000 [Eh]
	 Same-Spin Energy          =      -0.5097809109730945 [Eh]
	 Opposite-Spin Energy      =      -1.7169118502192338 [Eh]
	 Correlation Energy        =      -2.2266927611923282 [Eh]
	 Total Energy              =    -502.2587386916599144 [Eh]

	 ================> DF-SCS-MP2 Energies <==================
	-----------------------------------------------------------
	 SCS Same-Spin Scale       =       0.3333333333333333 [-]
	 SCS Opposite-Spin Scale   =       1.2000000000000000 [-]
	 SCS Same-Spin Energy      =      -0.1699269703243648 [Eh]
	 SCS Opposite-Spin Energy  =      -2.0602942202630805 [Eh]
	 SCS Correlation Energy    =      -2.2302211905874452 [Eh]
	 SCS Total Energy          =    -502.2622671210550038 [Eh]
	-----------------------------------------------------------

  Dipole Moment: [D]
     X:    -1.4567      Y:     1.1926      Z:     0.8196     Total:     2.0533

*** Psi4 exiting successfully. Buy a developer a beer!
