                               Psi4 1.3.2 release

  ==> Input File <==

--------------------------------------------------------------------------
#psi4
#
memory 32 gb

molecule  {
0 1
  O        1.0716460     0.4753830     0.0137820
  O        2.5311320    -1.1057930    -0.7123110
  C       -2.3998610    -0.0255814     0.2882392
  C       -3.5980660     0.7810210     0.4066790
  C       -1.2626340     0.3942960    -0.2965320
  C        0.0082920    -0.3313460    -0.5624280
  C       -2.5132090    -1.4745150     0.8629900
  C       -4.7090750     0.3554230    -0.5595870
  C        3.3545870     0.8742710     0.4380940
  C        2.3120420    -0.0450080    -0.1482500
  C        4.7580620     0.3036620     0.3135630
  H       -3.3290990     1.8240090     0.2046860
  H       -3.9789780     0.7461160     1.4360390
  H       -1.3266415     1.4292865    -0.6318371
  H        0.2030610    -0.4353830    -1.6357720
  H        0.0474490    -1.3311670    -0.1253770
  H       -2.7951440    -1.4155820     1.9226690
  H       -3.3106690    -2.0257820     0.3507100
  H       -1.6004590    -2.0681310     0.7873000
  H       -5.0436390    -0.6667330    -0.3605950
  H       -4.3535760     0.4008270    -1.5926810
  H       -5.5777020     1.0147490    -0.4669260
  H        3.2685340     1.8407540    -0.0713220
  H        3.0874670     1.0628020     1.4826470
  H        4.8339620    -0.6514900     0.8358700
  H        5.0104170     0.1293290    -0.7342450
  H        5.4905370     0.9935700     0.7404870
units angstrom
no_reorient  #important for SAPT in psi4, default
symmetry c1  #important for SAPT in psi4, default
}

set PROPERTIES_ORIGIN ["COM"]
properties('MP2/aug-cc-pvtz', properties = ['dipole'])
--------------------------------------------------------------------------

    Molecular point group: c1
  Charge       = 0
  Multiplicity = 1
  Basis Set: AUG-CC-PVTZ
    Blend: AUG-CC-PVTZ
  Basis Set: (AUG-CC-PVTZ AUX)
    Blend: AUG-CC-PVTZ-JKFIT

    Orbital Energies [Eh]
    ---------------------

    Doubly Occupied:

       1A    -20.598218     2A    -20.541340     3A    -11.376136
       4A    -11.289860     5A    -11.244000     6A    -11.242517
       7A    -11.226670     8A    -11.226369     9A    -11.222986
      10A    -11.220890    11A    -11.218102    12A     -1.448888
      13A     -1.348259    14A     -1.115574    15A     -1.064866
      16A     -1.023866    17A     -0.970615    18A     -0.920621
      19A     -0.882710    20A     -0.839069    21A     -0.767875
      22A     -0.719756    23A     -0.688159    24A     -0.680812
      25A     -0.661543    26A     -0.637409    27A     -0.628175
      28A     -0.604815    29A     -0.588965    30A     -0.571701
      31A     -0.550842    32A     -0.545407    33A     -0.532403
      34A     -0.521220    35A     -0.517597    36A     -0.515787
      37A     -0.511453    38A     -0.492798    39A     -0.488362
      40A     -0.463900    41A     -0.457601    42A     -0.444911
      43A     -0.345803

  @DF-RHF Final Energy:  -500.03261787411537

   => Energetics <=

    Nuclear Repulsion Energy =            603.0236762915751569
    One-Electron Energy =               -1876.1948807051676340
    Two-Electron Energy =                 773.1385865394771599
    Total Energy =                       -500.0326178741153171
  Basis Set: (AUG-CC-PVTZ AUX)
    Blend: AUG-CC-PVTZ-RI
    Molecular point group: c1

    Geometry (in Angstrom), charge = 0, multiplicity = 1:

       Center              X                  Y                   Z               Mass
    ------------   -----------------  -----------------  -----------------  -----------------
         O            1.074336667320     0.470533237978     0.014430764642    15.994914619570
         O            2.533822667320    -1.110642762022    -0.711662235358    15.994914619570
         C           -2.397170332680    -0.030431162022     0.288887964642    12.000000000000
         C           -3.595375332680     0.776171237978     0.407327764642    12.000000000000
         C           -1.259943332680     0.389446237978    -0.295883235358    12.000000000000
         C            0.010982667320    -0.336195762022    -0.561779235358    12.000000000000
         C           -2.510518332680    -1.479364762022     0.863638764642    12.000000000000
         C           -4.706384332680     0.350573237978    -0.558938235358    12.000000000000
         C            3.357277667320     0.869421237978     0.438742764642    12.000000000000
         C            2.314732667320    -0.049857762022    -0.147601235358    12.000000000000
         C            4.760752667320     0.298812237978     0.314211764642    12.000000000000
         H           -3.326408332680     1.819159237978     0.205334764642     1.007825032230
         H           -3.976287332680     0.741266237978     1.436687764642     1.007825032230
         H           -1.323950832680     1.424436737978    -0.631188335358     1.007825032230
         H            0.205751667320    -0.440232762022    -1.635123235358     1.007825032230
         H            0.050139667320    -1.336016762022    -0.124728235358     1.007825032230
         H           -2.792453332680    -1.420431762022     1.923317764642     1.007825032230
         H           -3.307978332680    -2.030631762022     0.351358764642     1.007825032230
         H           -1.597768332680    -2.072980762022     0.787948764642     1.007825032230
         H           -5.040948332680    -0.671582762022    -0.359946235358     1.007825032230
         H           -4.350885332680     0.395977237978    -1.592032235358     1.007825032230
         H           -5.575011332680     1.009899237978    -0.466277235358     1.007825032230
         H            3.271224667320     1.835904237978    -0.070673235358     1.007825032230
         H            3.090157667320     1.057952237978     1.483295764642     1.007825032230
         H            4.836652667320    -0.656339762022     0.836518764642     1.007825032230
         H            5.013107667320     0.124479237978    -0.733596235358     1.007825032230
         H            5.493227667320     0.988720237978     0.741135764642     1.007825032230

  Basis Set: AUG-CC-PVTZ
    Blend: AUG-CC-PVTZ
  Basis Set: (AUG-CC-PVTZ AUX)
    Blend: AUG-CC-PVTZ-JKFIT
	 Reference Energy          =    -500.0326178741153740 [Eh]
	 Singles Energy            =      -0.0000000000000000 [Eh]
	 Same-Spin Energy          =      -0.5101057179668261 [Eh]
	 Opposite-Spin Energy      =      -1.7173942903901604 [Eh]
	 Correlation Energy        =      -2.2275000083569867 [Eh]
	 Total Energy              =    -502.2601178824723434 [Eh]

	 ================> DF-SCS-MP2 Energies <==================
	-----------------------------------------------------------
	 SCS Same-Spin Scale       =       0.3333333333333333 [-]
	 SCS Opposite-Spin Scale   =       1.2000000000000000 [-]
	 SCS Same-Spin Energy      =      -0.1700352393222754 [Eh]
	 SCS Opposite-Spin Energy  =      -2.0608731484681924 [Eh]
	 SCS Correlation Energy    =      -2.2309083877904676 [Eh]
	 SCS Total Energy          =    -502.2635262619058381 [Eh]
	-----------------------------------------------------------

  Dipole Moment: [D]
     X:    -1.4611      Y:     1.2420      Z:     0.8046     Total:     2.0796

*** Psi4 exiting successfully. Buy a developer a beer!
