                               Psi4 1.4a3.dev225

  ==> Input File <==

--------------------------------------------------------------------------
#psi4
#
memory 32 gb

molecule  {
0 1
  O       -1.1411000    -0.4541930    -0.0251880
  O       -2.5814580     1.1752260    -0.6867450
  C        2.3134570     0.0186930     0.2462000
  C        3.5222300    -0.8802230     0.3222130
  C        1.1937340    -0.4134970    -0.3651820
  C       -0.1069733     0.3800312    -0.5855346
  C        2.4850690     1.3863280     0.8546590
  C        4.7190700    -0.3405130    -0.4677320
  C       -3.4286640    -0.8122060     0.4327630
  C       -2.3749380     0.0938890    -0.1583950
  C       -4.8282690    -0.2261570     0.3119590
  H        3.2581340    -1.8761120    -0.0507320
  H        3.8122360    -1.0018650     1.3748590
  H        1.1815530    -1.4238220    -0.7735790
  H       -0.2705280     0.5138520    -1.6430550
  H       -0.0714200     1.3330110    -0.0949940
  H        3.0182560     1.3061200     1.8081990
  H        3.0814560     2.0379150     0.2067330
  H        1.5342700     1.8877430     1.0433380
  H        5.0646870     0.6170420    -0.0694620
  H        4.4484560    -0.1949880    -1.5176090
  H        5.5583810    -1.0408350    -0.4253590
  H       -3.3536290    -1.7820470    -0.0715700
  H       -3.1585900    -0.9983310     1.4781360
  H       -4.8922970     0.7333770     0.8287030
  H       -5.0879650    -0.0561110    -0.7346540
  H       -5.5642940    -0.9066400     0.7478690
units angstrom
no_reorient  #important for SAPT in psi4, default
symmetry c1  #important for SAPT in psi4, default
}

set PROPERTIES_ORIGIN ["COM"]
properties('MP2/aug-cc-pvtz', properties = ['dipole'])
--------------------------------------------------------------------------

    Molecular point group: c1
  Charge       = 0
  Multiplicity = 1
  Basis Set: AUG-CC-PVTZ
    Blend: AUG-CC-PVTZ
  Basis Set: (AUG-CC-PVTZ AUX)
    Blend: AUG-CC-PVTZ-JKFIT

    Orbital Energies [Eh]
    ---------------------

    Doubly Occupied:

       1A    -20.600891     2A    -20.542681     3A    -11.376983
       4A    -11.285765     5A    -11.243502     6A    -11.241829
       7A    -11.227331     8A    -11.225149     9A    -11.224677
      10A    -11.218924    11A    -11.218244    12A     -1.452363
      13A     -1.350567    14A     -1.108374    15A     -1.063915
      16A     -1.017236    17A     -0.975198    18A     -0.920676
      19A     -0.879219    20A     -0.833248    21A     -0.770572
      22A     -0.719721    23A     -0.689665    24A     -0.682760
      25A     -0.662352    26A     -0.637575    27A     -0.621080
      28A     -0.607094    29A     -0.586926    30A     -0.571060
      31A     -0.553454    32A     -0.544617    33A     -0.534180
      34A     -0.522870    35A     -0.518948    36A     -0.514968
      37A     -0.511138    38A     -0.493789    39A     -0.482610
      40A     -0.461925    41A     -0.459637    42A     -0.445798
      43A     -0.344790

  @DF-RHF Final Energy:  -500.03661986204429

   => Energetics <=

    Nuclear Repulsion Energy =            602.3825381743183698
    One-Electron Energy =               -1874.9497111314071844
    Two-Electron Energy =                 772.5305530950445245
    Total Energy =                       -500.0366198620442901
  Basis Set: (AUG-CC-PVTZ AUX)
    Blend: AUG-CC-PVTZ-RI
    Molecular point group: c1

    Geometry (in Angstrom), charge = 0, multiplicity = 1:

       Center              X                  Y                   Z               Mass
    ------------   -----------------  -----------------  -----------------  -----------------
         O           -1.083580036418    -0.461563514967    -0.011271378420    15.994914619570
         O           -2.523938036418     1.167855485033    -0.672828378420    15.994914619570
         C            2.370976963582     0.011322485033     0.260116621580    12.000000000000
         C            3.579749963582    -0.887593514967     0.336129621580    12.000000000000
         C            1.251253963582    -0.420867514967    -0.351265378420    12.000000000000
         C           -0.049453336418     0.372660685033    -0.571617978420    12.000000000000
         C            2.542588963582     1.378957485033     0.868575621580    12.000000000000
         C            4.776589963582    -0.347883514967    -0.453815378420    12.000000000000
         C           -3.371144036418    -0.819576514967     0.446679621580    12.000000000000
         C           -2.317418036418     0.086518485033    -0.144478378420    12.000000000000
         C           -4.770749036418    -0.233527514967     0.325875621580    12.000000000000
         H            3.315653963582    -1.883482514967    -0.036815378420     1.007825032230
         H            3.869755963582    -1.009235514967     1.388775621580     1.007825032230
         H            1.239072963582    -1.431192514967    -0.759662378420     1.007825032230
         H           -0.213008036418     0.506481485033    -1.629138378420     1.007825032230
         H           -0.013900036418     1.325640485033    -0.081077378420     1.007825032230
         H            3.075775963582     1.298749485033     1.822115621580     1.007825032230
         H            3.138975963582     2.030544485033     0.220649621580     1.007825032230
         H            1.591789963582     1.880372485033     1.057254621580     1.007825032230
         H            5.122206963582     0.609671485033    -0.055545378420     1.007825032230
         H            4.505975963582    -0.202358514967    -1.503692378420     1.007825032230
         H            5.615900963582    -1.048205514967    -0.411442378420     1.007825032230
         H           -3.296109036418    -1.789417514967    -0.057653378420     1.007825032230
         H           -3.101070036418    -1.005701514967     1.492052621580     1.007825032230
         H           -4.834777036418     0.726006485033     0.842619621580     1.007825032230
         H           -5.030445036418    -0.063481514967    -0.720737378420     1.007825032230
         H           -5.506774036418    -0.914010514967     0.761785621580     1.007825032230

  Basis Set: AUG-CC-PVTZ
    Blend: AUG-CC-PVTZ
  Basis Set: (AUG-CC-PVTZ AUX)
    Blend: AUG-CC-PVTZ-JKFIT
	 Reference Energy          =    -500.0366198620442901 [Eh]
	 Singles Energy            =      -0.0000000000000000 [Eh]
	 Same-Spin Energy          =      -0.5093789583261241 [Eh]
	 Opposite-Spin Energy      =      -1.7167852124870513 [Eh]
	 Correlation Energy        =      -2.2261641708131754 [Eh]
	 Total Energy              =    -502.2627840328574393 [Eh]

	 ================> DF-SCS-MP2 Energies <==================
	-----------------------------------------------------------
	 SCS Same-Spin Scale       =       0.3333333333333333 [-]
	 SCS Opposite-Spin Scale   =       1.2000000000000000 [-]
	 SCS Same-Spin Energy      =      -0.1697929861087080 [Eh]
	 SCS Opposite-Spin Energy  =      -2.0601422549844615 [Eh]
	 SCS Correlation Energy    =      -2.2299352410931697 [Eh]
	 SCS Total Energy          =    -502.2665551031374775 [Eh]
	-----------------------------------------------------------

  Dipole Moment: [D]
     X:     1.2712      Y:    -1.1837      Z:     0.7838     Total:     1.9057

*** Psi4 exiting successfully. Buy a developer a beer!
