                               Psi4 1.4a3.dev225

  ==> Input File <==

--------------------------------------------------------------------------
#psi4
#
memory 32 gb

molecule  {
0 1
  O       -1.1411000    -0.4541930    -0.0251880
  O       -2.5814580     1.1752260    -0.6867450
  C        2.3134570     0.0186930     0.2462000
  C        3.5222300    -0.8802230     0.3222130
  C        1.1937340    -0.4134970    -0.3651820
  C       -0.0647290     0.3542590    -0.5783780
  C        2.4850690     1.3863280     0.8546590
  C        4.7190700    -0.3405130    -0.4677320
  C       -3.4286640    -0.8122060     0.4327630
  C       -2.4204118     0.1140889    -0.1633044
  C       -4.8282690    -0.2261570     0.3119590
  H        3.2581340    -1.8761120    -0.0507320
  H        3.8122360    -1.0018650     1.3748590
  H        1.1815530    -1.4238220    -0.7735790
  H       -0.2705280     0.5138520    -1.6430550
  H       -0.0714200     1.3330110    -0.0949940
  H        3.0182560     1.3061200     1.8081990
  H        3.0814560     2.0379150     0.2067330
  H        1.5342700     1.8877430     1.0433380
  H        5.0646870     0.6170420    -0.0694620
  H        4.4484560    -0.1949880    -1.5176090
  H        5.5583810    -1.0408350    -0.4253590
  H       -3.3536290    -1.7820470    -0.0715700
  H       -3.1585900    -0.9983310     1.4781360
  H       -4.8922970     0.7333770     0.8287030
  H       -5.0879650    -0.0561110    -0.7346540
  H       -5.5642940    -0.9066400     0.7478690
units angstrom
no_reorient  #important for SAPT in psi4, default
symmetry c1  #important for SAPT in psi4, default
}

set PROPERTIES_ORIGIN ["COM"]
properties('MP2/aug-cc-pvtz', properties = ['dipole'])
--------------------------------------------------------------------------

    Molecular point group: c1
  Charge       = 0
  Multiplicity = 1
  Basis Set: AUG-CC-PVTZ
    Blend: AUG-CC-PVTZ
  Basis Set: (AUG-CC-PVTZ AUX)
    Blend: AUG-CC-PVTZ-JKFIT

    Orbital Energies [Eh]
    ---------------------

    Doubly Occupied:

       1A    -20.584834     2A    -20.550352     3A    -11.376412
       4A    -11.281139     5A    -11.244904     6A    -11.241129
       7A    -11.226427     8A    -11.223866     9A    -11.220889
      10A    -11.220526    11A    -11.217530    12A     -1.442501
      13A     -1.350734    14A     -1.108807    15A     -1.068170
      16A     -1.017956    17A     -0.972557    18A     -0.917280
      19A     -0.880581    20A     -0.829441    21A     -0.759153
      22A     -0.721839    23A     -0.689936    24A     -0.673976
      25A     -0.660945    26A     -0.639050    27A     -0.623959
      28A     -0.601945    29A     -0.589346    30A     -0.569726
      31A     -0.552041    32A     -0.543656    33A     -0.534866
      34A     -0.523873    35A     -0.520390    36A     -0.511897
      37A     -0.511176    38A     -0.497254    39A     -0.482753
      40A     -0.464469    41A     -0.454884    42A     -0.446909
      43A     -0.342604

  @DF-RHF Final Energy:  -500.03583625353542

   => Energetics <=

    Nuclear Repulsion Energy =            602.2430506524368639
    One-Electron Energy =               -1874.7724136594158608
    Two-Electron Energy =                 772.4935267534436889
    Total Energy =                       -500.0358362535354217
  Basis Set: (AUG-CC-PVTZ AUX)
    Blend: AUG-CC-PVTZ-RI
    Molecular point group: c1

    Geometry (in Angstrom), charge = 0, multiplicity = 1:

       Center              X                  Y                   Z               Mass
    ------------   -----------------  -----------------  -----------------  -----------------
         O           -1.083331796386    -0.461135192338    -0.011444112590    15.994914619570
         O           -2.523689796386     1.168283807662    -0.673001112590    15.994914619570
         C            2.371225203614     0.011750807662     0.259943887410    12.000000000000
         C            3.579998203614    -0.887165192338     0.335956887410    12.000000000000
         C            1.251502203614    -0.420439192338    -0.351438112590    12.000000000000
         C           -0.006960796386     0.347316807662    -0.564634112590    12.000000000000
         C            2.542837203614     1.379385807662     0.868402887410    12.000000000000
         C            4.776838203614    -0.347455192338    -0.453988112590    12.000000000000
         C           -3.370895796386    -0.819148192338     0.446506887410    12.000000000000
         C           -2.362643596386     0.107146707662    -0.149560512590    12.000000000000
         C           -4.770500796386    -0.233099192338     0.325702887410    12.000000000000
         H            3.315902203614    -1.883054192338    -0.036988112590     1.007825032230
         H            3.870004203614    -1.008807192338     1.388602887410     1.007825032230
         H            1.239321203614    -1.430764192338    -0.759835112590     1.007825032230
         H           -0.212759796386     0.506909807662    -1.629311112590     1.007825032230
         H           -0.013651796386     1.326068807662    -0.081250112590     1.007825032230
         H            3.076024203614     1.299177807662     1.821942887410     1.007825032230
         H            3.139224203614     2.030972807662     0.220476887410     1.007825032230
         H            1.592038203614     1.880800807662     1.057081887410     1.007825032230
         H            5.122455203614     0.610099807662    -0.055718112590     1.007825032230
         H            4.506224203614    -0.201930192338    -1.503865112590     1.007825032230
         H            5.616149203614    -1.047777192338    -0.411615112590     1.007825032230
         H           -3.295860796386    -1.788989192338    -0.057826112590     1.007825032230
         H           -3.100821796386    -1.005273192338     1.491879887410     1.007825032230
         H           -4.834528796386     0.726434807662     0.842446887410     1.007825032230
         H           -5.030196796386    -0.063053192338    -0.720910112590     1.007825032230
         H           -5.506525796386    -0.913582192338     0.761612887410     1.007825032230

  Basis Set: AUG-CC-PVTZ
    Blend: AUG-CC-PVTZ
  Basis Set: (AUG-CC-PVTZ AUX)
    Blend: AUG-CC-PVTZ-JKFIT
	 Reference Energy          =    -500.0358362535354217 [Eh]
	 Singles Energy            =      -0.0000000000000000 [Eh]
	 Same-Spin Energy          =      -0.5097668591221447 [Eh]
	 Opposite-Spin Energy      =      -1.7171759108278759 [Eh]
	 Correlation Energy        =      -2.2269427699500204 [Eh]
	 Total Energy              =    -502.2627790234854501 [Eh]

	 ================> DF-SCS-MP2 Energies <==================
	-----------------------------------------------------------
	 SCS Same-Spin Scale       =       0.3333333333333333 [-]
	 SCS Opposite-Spin Scale   =       1.2000000000000000 [-]
	 SCS Same-Spin Energy      =      -0.1699222863740482 [Eh]
	 SCS Opposite-Spin Energy  =      -2.0606110929934509 [Eh]
	 SCS Correlation Energy    =      -2.2305333793674991 [Eh]
	 SCS Total Energy          =    -502.2663696329029221 [Eh]
	-----------------------------------------------------------

  Dipole Moment: [D]
     X:     0.9160      Y:    -1.0719      Z:     0.7688     Total:     1.6060

*** Psi4 exiting successfully. Buy a developer a beer!
