                               Psi4 1.3.2 release

  ==> Input File <==

--------------------------------------------------------------------------
#psi4
#
memory 32 gb

molecule  {
0 1
  O        1.0716460     0.4753830     0.0137820
  O        2.5311320    -1.1057930    -0.7123110
  C       -2.3693550    -0.0883010     0.2982860
  C       -3.5582628     0.8383129     0.3695981
  C       -1.2971763     0.4547053    -0.3076155
  C        0.0082920    -0.3313460    -0.5624280
  C       -2.5132090    -1.4745150     0.8629900
  C       -4.7090750     0.3554230    -0.5595870
  C        3.3545870     0.8742710     0.4380940
  C        2.3120420    -0.0450080    -0.1482500
  C        4.7580620     0.3036620     0.3135630
  H       -3.3290990     1.8240090     0.2046860
  H       -3.9789780     0.7461160     1.4360390
  H       -1.2730680     1.4248330    -0.6509560
  H        0.2030610    -0.4353830    -1.6357720
  H        0.0474490    -1.3311670    -0.1253770
  H       -2.7951440    -1.4155820     1.9226690
  H       -3.3106690    -2.0257820     0.3507100
  H       -1.6004590    -2.0681310     0.7873000
  H       -5.0436390    -0.6667330    -0.3605950
  H       -4.3535760     0.4008270    -1.5926810
  H       -5.5777020     1.0147490    -0.4669260
  H        3.2685340     1.8407540    -0.0713220
  H        3.0874670     1.0628020     1.4826470
  H        4.8339620    -0.6514900     0.8358700
  H        5.0104170     0.1293290    -0.7342450
  H        5.4905370     0.9935700     0.7404870
units angstrom
no_reorient  #important for SAPT in psi4, default
symmetry c1  #important for SAPT in psi4, default
}

set PROPERTIES_ORIGIN ["COM"]
properties('MP2/aug-cc-pvtz', properties = ['dipole'])
--------------------------------------------------------------------------

    Molecular point group: c1
  Charge       = 0
  Multiplicity = 1
  Basis Set: AUG-CC-PVTZ
    Blend: AUG-CC-PVTZ
  Basis Set: (AUG-CC-PVTZ AUX)
    Blend: AUG-CC-PVTZ-JKFIT

    Orbital Energies [Eh]
    ---------------------

    Doubly Occupied:

       1A    -20.596022     2A    -20.540067     3A    -11.374600
       4A    -11.286822     5A    -11.244454     6A    -11.241720
       7A    -11.230463     8A    -11.226759     9A    -11.221016
      10A    -11.219166    11A    -11.217540    12A     -1.446782
      13A     -1.346434    14A     -1.111380    15A     -1.062583
      16A     -1.013214    17A     -0.976055    18A     -0.923812
      19A     -0.877582    20A     -0.832768    21A     -0.766199
      22A     -0.730625    23A     -0.689321    24A     -0.679079
      25A     -0.659227    26A     -0.642579    27A     -0.616473
      28A     -0.606874    29A     -0.585797    30A     -0.571241
      31A     -0.554457    32A     -0.545294    33A     -0.533028
      34A     -0.525999    35A     -0.519694    36A     -0.514630
      37A     -0.514002    38A     -0.492134    39A     -0.484199
      40A     -0.457154    41A     -0.455928    42A     -0.442646
      43A     -0.345035

  @DF-RHF Final Energy:  -500.02589046179435

   => Energetics <=

    Nuclear Repulsion Energy =            602.4371989372532425
    One-Electron Energy =               -1875.0844674476672935
    Two-Electron Energy =                 772.6213780486197038
    Total Energy =                       -500.0258904617943472
  Basis Set: (AUG-CC-PVTZ AUX)
    Blend: AUG-CC-PVTZ-RI
    Molecular point group: c1

    Geometry (in Angstrom), charge = 0, multiplicity = 1:

       Center              X                  Y                   Z               Mass
    ------------   -----------------  -----------------  -----------------  -----------------
         O            1.071241542430     0.466335750700     0.017484152306    15.994914619570
         O            2.530727542430    -1.114840249300    -0.708608847694    15.994914619570
         C           -2.369759457570    -0.097348249300     0.301988152306    12.000000000000
         C           -3.558667257570     0.829265650700     0.373300252306    12.000000000000
         C           -1.297580757570     0.445658050700    -0.303913347694    12.000000000000
         C            0.007887542430    -0.340393249300    -0.558725847694    12.000000000000
         C           -2.513613457570    -1.483562249300     0.866692152306    12.000000000000
         C           -4.709479457570     0.346375750700    -0.555884847694    12.000000000000
         C            3.354182542430     0.865223750700     0.441796152306    12.000000000000
         C            2.311637542430    -0.054055249300    -0.144547847694    12.000000000000
         C            4.757657542430     0.294614750700     0.317265152306    12.000000000000
         H           -3.329503457570     1.814961750700     0.208388152306     1.007825032230
         H           -3.979382457570     0.737068750700     1.439741152306     1.007825032230
         H           -1.273472457570     1.415785750700    -0.647253847694     1.007825032230
         H            0.202656542430    -0.444430249300    -1.632069847694     1.007825032230
         H            0.047044542430    -1.340214249300    -0.121674847694     1.007825032230
         H           -2.795548457570    -1.424629249300     1.926371152306     1.007825032230
         H           -3.311073457570    -2.034829249300     0.354412152306     1.007825032230
         H           -1.600863457570    -2.077178249300     0.791002152306     1.007825032230
         H           -5.044043457570    -0.675780249300    -0.356892847694     1.007825032230
         H           -4.353980457570     0.391779750700    -1.588978847694     1.007825032230
         H           -5.578106457570     1.005701750700    -0.463223847694     1.007825032230
         H            3.268129542430     1.831706750700    -0.067619847694     1.007825032230
         H            3.087062542430     1.053754750700     1.486349152306     1.007825032230
         H            4.833557542430    -0.660537249300     0.839572152306     1.007825032230
         H            5.010012542430     0.120281750700    -0.730542847694     1.007825032230
         H            5.490132542430     0.984522750700     0.744189152306     1.007825032230

  Basis Set: AUG-CC-PVTZ
    Blend: AUG-CC-PVTZ
  Basis Set: (AUG-CC-PVTZ AUX)
    Blend: AUG-CC-PVTZ-JKFIT
	 Reference Energy          =    -500.0258904617943472 [Eh]
	 Singles Energy            =      -0.0000000000000000 [Eh]
	 Same-Spin Energy          =      -0.5093566993896685 [Eh]
	 Opposite-Spin Energy      =      -1.7168292450603135 [Eh]
	 Correlation Energy        =      -2.2261859444499823 [Eh]
	 Total Energy              =    -502.2520764062443277 [Eh]

	 ================> DF-SCS-MP2 Energies <==================
	-----------------------------------------------------------
	 SCS Same-Spin Scale       =       0.3333333333333333 [-]
	 SCS Opposite-Spin Scale   =       1.2000000000000000 [-]
	 SCS Same-Spin Energy      =      -0.1697855664632228 [Eh]
	 SCS Opposite-Spin Energy  =      -2.0601950940723763 [Eh]
	 SCS Correlation Energy    =      -2.2299806605355990 [Eh]
	 SCS Total Energy          =    -502.2558711223299497 [Eh]
	-----------------------------------------------------------

  Dipole Moment: [D]
     X:    -1.4454      Y:     1.1827      Z:     0.8283     Total:     2.0430

*** Psi4 exiting successfully. Buy a developer a beer!
