                               Psi4 1.3.2 release

  ==> Input File <==

--------------------------------------------------------------------------
#psi4
#
memory 32 gb

molecule  {
0 1
  O        1.0670528     0.4660511     0.0081598
  O        2.5206816    -1.1069850    -0.7140276
  C       -2.3693550    -0.0883010     0.2982860
  C       -3.5980660     0.7810210     0.4066790
  C       -1.2626340     0.3942960    -0.2965320
  C        0.0082920    -0.3313460    -0.5624280
  C       -2.5132090    -1.4745150     0.8629900
  C       -4.7090750     0.3554230    -0.5595870
  C        3.3545870     0.8742710     0.4380940
  C        2.3120420    -0.0450080    -0.1482500
  C        4.7580620     0.3036620     0.3135630
  H       -3.3290990     1.8240090     0.2046860
  H       -3.9789780     0.7461160     1.4360390
  H       -1.2730680     1.4248330    -0.6509560
  H        0.2030610    -0.4353830    -1.6357720
  H        0.0474490    -1.3311670    -0.1253770
  H       -2.7951440    -1.4155820     1.9226690
  H       -3.3106690    -2.0257820     0.3507100
  H       -1.6004590    -2.0681310     0.7873000
  H       -5.0436390    -0.6667330    -0.3605950
  H       -4.3535760     0.4008270    -1.5926810
  H       -5.5777020     1.0147490    -0.4669260
  H        3.2685340     1.8407540    -0.0713220
  H        3.0874670     1.0628020     1.4826470
  H        4.8339620    -0.6514900     0.8358700
  H        5.0104170     0.1293290    -0.7342450
  H        5.4905370     0.9935700     0.7404870
units angstrom
no_reorient  #important for SAPT in psi4, default
symmetry c1  #important for SAPT in psi4, default
}

set PROPERTIES_ORIGIN ["COM"]
properties('MP2/aug-cc-pvtz', properties = ['dipole'])
--------------------------------------------------------------------------

    Molecular point group: c1
  Charge       = 0
  Multiplicity = 1
  Basis Set: AUG-CC-PVTZ
    Blend: AUG-CC-PVTZ
  Basis Set: (AUG-CC-PVTZ AUX)
    Blend: AUG-CC-PVTZ-JKFIT

    Orbital Energies [Eh]
    ---------------------

    Doubly Occupied:

       1A    -20.596148     2A    -20.540504     3A    -11.375893
       4A    -11.284946     5A    -11.243680     6A    -11.243646
       7A    -11.228053     8A    -11.225939     9A    -11.222704
      10A    -11.218897    11A    -11.218806    12A     -1.449920
      13A     -1.347502    14A     -1.112013    15A     -1.065017
      16A     -1.021604    17A     -0.977832    18A     -0.920010
      19A     -0.879343    20A     -0.833523    21A     -0.767754
      22A     -0.722943    23A     -0.688641    24A     -0.680697
      25A     -0.660449    26A     -0.638643    27A     -0.623680
      28A     -0.605803    29A     -0.588164    30A     -0.574316
      31A     -0.552320    32A     -0.543876    33A     -0.533274
      34A     -0.523125    35A     -0.517877    36A     -0.514574
      37A     -0.511665    38A     -0.492779    39A     -0.483545
      40A     -0.465056    41A     -0.456094    42A     -0.444896
      43A     -0.345611

  @DF-RHF Final Energy:  -500.03880592647818

   => Energetics <=

    Nuclear Repulsion Energy =            603.3395668144943329
    One-Electron Energy =               -1876.8732141399354987
    Two-Electron Energy =                 773.4948413989628762
    Total Energy =                       -500.0388059264781759
  Basis Set: (AUG-CC-PVTZ AUX)
    Blend: AUG-CC-PVTZ-RI
    Molecular point group: c1

    Geometry (in Angstrom), charge = 0, multiplicity = 1:

       Center              X                  Y                   Z               Mass
    ------------   -----------------  -----------------  -----------------  -----------------
         O            1.068594035283     0.467129354211     0.008911632139    15.994914619570
         O            2.522222835283    -1.105906745789    -0.713275767861    15.994914619570
         C           -2.367813764717    -0.087222745789     0.299037832139    12.000000000000
         C           -3.596524764717     0.782099254211     0.407430832139    12.000000000000
         C           -1.261092764717     0.395374254211    -0.295780167861    12.000000000000
         C            0.009833235283    -0.330267745789    -0.561676167861    12.000000000000
         C           -2.511667764717    -1.473436745789     0.863741832139    12.000000000000
         C           -4.707533764717     0.356501254211    -0.558835167861    12.000000000000
         C            3.356128235283     0.875349254211     0.438845832139    12.000000000000
         C            2.313583235283    -0.043929745789    -0.147498167861    12.000000000000
         C            4.759603235283     0.304740254211     0.314314832139    12.000000000000
         H           -3.327557764717     1.825087254211     0.205437832139     1.007825032230
         H           -3.977436764717     0.747194254211     1.436790832139     1.007825032230
         H           -1.271526764717     1.425911254211    -0.650204167861     1.007825032230
         H            0.204602235283    -0.434304745789    -1.635020167861     1.007825032230
         H            0.048990235283    -1.330088745789    -0.124625167861     1.007825032230
         H           -2.793602764717    -1.414503745789     1.923420832139     1.007825032230
         H           -3.309127764717    -2.024703745789     0.351461832139     1.007825032230
         H           -1.598917764717    -2.067052745789     0.788051832139     1.007825032230
         H           -5.042097764717    -0.665654745789    -0.359843167861     1.007825032230
         H           -4.352034764717     0.401905254211    -1.591929167861     1.007825032230
         H           -5.576160764717     1.015827254211    -0.466174167861     1.007825032230
         H            3.270075235283     1.841832254211    -0.070570167861     1.007825032230
         H            3.089008235283     1.063880254211     1.483398832139     1.007825032230
         H            4.835503235283    -0.650411745789     0.836621832139     1.007825032230
         H            5.011958235283     0.130407254211    -0.733493167861     1.007825032230
         H            5.492078235283     0.994648254211     0.741238832139     1.007825032230

  Basis Set: AUG-CC-PVTZ
    Blend: AUG-CC-PVTZ
  Basis Set: (AUG-CC-PVTZ AUX)
    Blend: AUG-CC-PVTZ-JKFIT
	 Reference Energy          =    -500.0388059264781759 [Eh]
	 Singles Energy            =      -0.0000000000000000 [Eh]
	 Same-Spin Energy          =      -0.5096624461517343 [Eh]
	 Opposite-Spin Energy      =      -1.7164761878428534 [Eh]
	 Correlation Energy        =      -2.2261386339945877 [Eh]
	 Total Energy              =    -502.2649445604727703 [Eh]

	 ================> DF-SCS-MP2 Energies <==================
	-----------------------------------------------------------
	 SCS Same-Spin Scale       =       0.3333333333333333 [-]
	 SCS Opposite-Spin Scale   =       1.2000000000000000 [-]
	 SCS Same-Spin Energy      =      -0.1698874820505781 [Eh]
	 SCS Opposite-Spin Energy  =      -2.0597714254114239 [Eh]
	 SCS Correlation Energy    =      -2.2296589074620021 [Eh]
	 SCS Total Energy          =    -502.2684648339401861 [Eh]
	-----------------------------------------------------------

  Dipole Moment: [D]
     X:    -1.3619      Y:     1.2130      Z:     0.8540     Total:     2.0138

*** Psi4 exiting successfully. Buy a developer a beer!
