                               Psi4 1.3.2 release

  ==> Input File <==

--------------------------------------------------------------------------
#psi4
#
memory 32 gb

molecule  {
0 1
  O        1.0716460     0.4753830     0.0137820
  O        2.5311320    -1.1057930    -0.7123110
  C       -2.3693550    -0.0883010     0.2982860
  C       -3.5980660     0.7810210     0.4066790
  C       -1.2626340     0.3942960    -0.2965320
  C        0.0082920    -0.3313460    -0.5624280
  C       -2.5132090    -1.4745150     0.8629900
  C       -4.7090750     0.3554230    -0.5595870
  C        3.3545870     0.8742710     0.4380940
  C        2.3120420    -0.0450080    -0.1482500
  C        4.7580620     0.3036620     0.3135630
  H       -3.3290990     1.8240090     0.2046860
  H       -3.9789780     0.7461160     1.4360390
  H       -1.2730680     1.4248330    -0.6509560
  H        0.2030610    -0.4353830    -1.6357720
  H        0.0510352    -1.4227363    -0.0853494
  H       -2.7951440    -1.4155820     1.9226690
  H       -3.3106690    -2.0257820     0.3507100
  H       -1.6004590    -2.0681310     0.7873000
  H       -5.0436390    -0.6667330    -0.3605950
  H       -4.3535760     0.4008270    -1.5926810
  H       -5.5777020     1.0147490    -0.4669260
  H        3.2685340     1.8407540    -0.0713220
  H        3.0874670     1.0628020     1.4826470
  H        4.8339620    -0.6514900     0.8358700
  H        5.0104170     0.1293290    -0.7342450
  H        5.4905370     0.9935700     0.7404870
units angstrom
no_reorient  #important for SAPT in psi4, default
symmetry c1  #important for SAPT in psi4, default
}

set PROPERTIES_ORIGIN ["COM"]
properties('MP2/aug-cc-pvtz', properties = ['dipole'])
--------------------------------------------------------------------------

    Molecular point group: c1
  Charge       = 0
  Multiplicity = 1
  Basis Set: AUG-CC-PVTZ
    Blend: AUG-CC-PVTZ
  Basis Set: (AUG-CC-PVTZ AUX)
    Blend: AUG-CC-PVTZ-JKFIT

    Orbital Energies [Eh]
    ---------------------

    Doubly Occupied:

       1A    -20.598649     2A    -20.540799     3A    -11.375626
       4A    -11.297393     5A    -11.244574     6A    -11.242361
       7A    -11.228542     8A    -11.225740     9A    -11.223908
      10A    -11.219272    11A    -11.217965    12A     -1.448515
      13A     -1.347799    14A     -1.112141    15A     -1.063660
      16A     -1.020459    17A     -0.976766    18A     -0.918790
      19A     -0.878065    20A     -0.831638    21A     -0.763572
      22A     -0.720631    23A     -0.687940    24A     -0.677068
      25A     -0.659926    26A     -0.638428    27A     -0.623734
      28A     -0.603236    29A     -0.587876    30A     -0.574380
      31A     -0.551485    32A     -0.544346    33A     -0.531468
      34A     -0.522348    35A     -0.517537    36A     -0.514378
      37A     -0.508655    38A     -0.490901    39A     -0.483979
      40A     -0.465264    41A     -0.454074    42A     -0.443715
      43A     -0.346299

  @DF-RHF Final Energy:  -500.03085052567468

   => Energetics <=

    Nuclear Repulsion Energy =            602.6296423519105474
    One-Electron Energy =               -1875.4731852211825753
    Two-Electron Energy =                 772.8126923435972913
    Total Energy =                       -500.0308505256746230
  Basis Set: (AUG-CC-PVTZ AUX)
    Blend: AUG-CC-PVTZ-RI
    Molecular point group: c1

    Geometry (in Angstrom), charge = 0, multiplicity = 1:

       Center              X                  Y                   Z               Mass
    ------------   -----------------  -----------------  -----------------  -----------------
         O            1.071622777587     0.475974157938     0.013523523926    15.994914619570
         O            2.531108777587    -1.105201842062    -0.712569476074    15.994914619570
         C           -2.369378222413    -0.087709842062     0.298027523926    12.000000000000
         C           -3.598089222413     0.781612157938     0.406420523926    12.000000000000
         C           -1.262657222413     0.394887157938    -0.296790476074    12.000000000000
         C            0.008268777587    -0.330754842062    -0.562686476074    12.000000000000
         C           -2.513232222413    -1.473923842062     0.862731523926    12.000000000000
         C           -4.709098222413     0.356014157938    -0.559845476074    12.000000000000
         C            3.354563777587     0.874862157938     0.437835523926    12.000000000000
         C            2.312018777587    -0.044416842062    -0.148508476074    12.000000000000
         C            4.758038777587     0.304253157938     0.313304523926    12.000000000000
         H           -3.329122222413     1.824600157938     0.204427523926     1.007825032230
         H           -3.979001222413     0.746707157938     1.435780523926     1.007825032230
         H           -1.273091222413     1.425424157938    -0.651214476074     1.007825032230
         H            0.203037777587    -0.434791842062    -1.636030476074     1.007825032230
         H            0.051011977587    -1.422145142062    -0.085607876074     1.007825032230
         H           -2.795167222413    -1.414990842062     1.922410523926     1.007825032230
         H           -3.310692222413    -2.025190842062     0.350451523926     1.007825032230
         H           -1.600482222413    -2.067539842062     0.787041523926     1.007825032230
         H           -5.043662222413    -0.666141842062    -0.360853476074     1.007825032230
         H           -4.353599222413     0.401418157938    -1.592939476074     1.007825032230
         H           -5.577725222413     1.015340157938    -0.467184476074     1.007825032230
         H            3.268510777587     1.841345157938    -0.071580476074     1.007825032230
         H            3.087443777587     1.063393157938     1.482388523926     1.007825032230
         H            4.833938777587    -0.650898842062     0.835611523926     1.007825032230
         H            5.010393777587     0.129920157938    -0.734503476074     1.007825032230
         H            5.490513777587     0.994161157938     0.740228523926     1.007825032230

  Basis Set: AUG-CC-PVTZ
    Blend: AUG-CC-PVTZ
  Basis Set: (AUG-CC-PVTZ AUX)
    Blend: AUG-CC-PVTZ-JKFIT
	 Reference Energy          =    -500.0308505256746798 [Eh]
	 Singles Energy            =      -0.0000000000000000 [Eh]
	 Same-Spin Energy          =      -0.5101771294101080 [Eh]
	 Opposite-Spin Energy      =      -1.7180204103170558 [Eh]
	 Correlation Energy        =      -2.2281975397271636 [Eh]
	 Total Energy              =    -502.2590480654018279 [Eh]

	 ================> DF-SCS-MP2 Energies <==================
	-----------------------------------------------------------
	 SCS Same-Spin Scale       =       0.3333333333333333 [-]
	 SCS Opposite-Spin Scale   =       1.2000000000000000 [-]
	 SCS Same-Spin Energy      =      -0.1700590431367026 [Eh]
	 SCS Opposite-Spin Energy  =      -2.0616244923804667 [Eh]
	 SCS Correlation Energy    =      -2.2316835355171696 [Eh]
	 SCS Total Energy          =    -502.2625340611918432 [Eh]
	-----------------------------------------------------------

  Dipole Moment: [D]
     X:    -1.4312      Y:     1.2221      Z:     0.8218     Total:     2.0536

*** Psi4 exiting successfully. Buy a developer a beer!
