                               Psi4 1.3.2 release

  ==> Input File <==

--------------------------------------------------------------------------
#psi4
#
memory 32 gb

molecule  {
0 1
  O        1.0716460     0.4753830     0.0137820
  O        2.5311320    -1.1057930    -0.7123110
  C       -2.3693550    -0.0883010     0.2982860
  C       -3.5980660     0.7810210     0.4066790
  C       -1.2736360     0.4147716    -0.2999260
  C        0.0082920    -0.3313460    -0.5624280
  C       -2.5378012    -1.4687968     0.8701524
  C       -4.7090750     0.3554230    -0.5595870
  C        3.3545870     0.8742710     0.4380940
  C        2.3120420    -0.0450080    -0.1482500
  C        4.7580620     0.3036620     0.3135630
  H       -3.3290990     1.8240090     0.2046860
  H       -3.9789780     0.7461160     1.4360390
  H       -1.2730680     1.4248330    -0.6509560
  H        0.2030610    -0.4353830    -1.6357720
  H        0.0474490    -1.3311670    -0.1253770
  H       -2.7951440    -1.4155820     1.9226690
  H       -3.3106690    -2.0257820     0.3507100
  H       -1.6004590    -2.0681310     0.7873000
  H       -5.0436390    -0.6667330    -0.3605950
  H       -4.3535760     0.4008270    -1.5926810
  H       -5.5777020     1.0147490    -0.4669260
  H        3.2685340     1.8407540    -0.0713220
  H        3.0874670     1.0628020     1.4826470
  H        4.8339620    -0.6514900     0.8358700
  H        5.0104170     0.1293290    -0.7342450
  H        5.4905370     0.9935700     0.7404870
units angstrom
no_reorient  #important for SAPT in psi4, default
symmetry c1  #important for SAPT in psi4, default
}

set PROPERTIES_ORIGIN ["COM"]
properties('MP2/aug-cc-pvtz', properties = ['dipole'])
--------------------------------------------------------------------------

    Molecular point group: c1
  Charge       = 0
  Multiplicity = 1
  Basis Set: AUG-CC-PVTZ
    Blend: AUG-CC-PVTZ
  Basis Set: (AUG-CC-PVTZ AUX)
    Blend: AUG-CC-PVTZ-JKFIT

    Orbital Energies [Eh]
    ---------------------

    Doubly Occupied:

       1A    -20.597021     2A    -20.540604     3A    -11.375303
       4A    -11.286957     5A    -11.244087     6A    -11.242087
       7A    -11.227090     8A    -11.227063     9A    -11.223452
      10A    -11.218729    11A    -11.217789    12A     -1.447795
      13A     -1.347309    14A     -1.111975    15A     -1.063579
      16A     -1.019634    17A     -0.977296    18A     -0.920952
      19A     -0.878266    20A     -0.833211    21A     -0.767129
      22A     -0.724295    23A     -0.688253    24A     -0.678659
      25A     -0.660059    26A     -0.637976    27A     -0.622738
      28A     -0.605677    29A     -0.590054    30A     -0.576016
      31A     -0.551852    32A     -0.543775    33A     -0.531514
      34A     -0.523932    35A     -0.518847    36A     -0.515127
      37A     -0.512628    38A     -0.492246    39A     -0.483129
      40A     -0.462017    41A     -0.456871    42A     -0.444145
      43A     -0.347057

  @DF-RHF Final Energy:  -500.03720156739604

   => Energetics <=

    Nuclear Repulsion Energy =            602.7836457913756476
    One-Electron Energy =               -1875.7733030941014931
    Two-Electron Energy =                 772.9524557353297496
    Total Energy =                       -500.0372015673960959
  Basis Set: (AUG-CC-PVTZ AUX)
    Blend: AUG-CC-PVTZ-RI
    Molecular point group: c1

    Geometry (in Angstrom), charge = 0, multiplicity = 1:

       Center              X                  Y                   Z               Mass
    ------------   -----------------  -----------------  -----------------  -----------------
         O            1.074381926804     0.473369594922     0.013492265035    15.994914619570
         O            2.533867926804    -1.107806405078    -0.712600734965    15.994914619570
         C           -2.366619073196    -0.090314405078     0.297996265035    12.000000000000
         C           -3.595330073196     0.779007594922     0.406389265035    12.000000000000
         C           -1.270900073196     0.412758194922    -0.300215734965    12.000000000000
         C            0.011027926804    -0.333359405078    -0.562717734965    12.000000000000
         C           -2.535065273196    -1.470810205078     0.869862665035    12.000000000000
         C           -4.706339073196     0.353409594922    -0.559876734965    12.000000000000
         C            3.357322926804     0.872257594922     0.437804265035    12.000000000000
         C            2.314777926804    -0.047021405078    -0.148539734965    12.000000000000
         C            4.760797926804     0.301648594922     0.313273265035    12.000000000000
         H           -3.326363073196     1.821995594922     0.204396265035     1.007825032230
         H           -3.976242073196     0.744102594922     1.435749265035     1.007825032230
         H           -1.270332073196     1.422819594922    -0.651245734965     1.007825032230
         H            0.205796926804    -0.437396405078    -1.636061734965     1.007825032230
         H            0.050184926804    -1.333180405078    -0.125666734965     1.007825032230
         H           -2.792408073196    -1.417595405078     1.922379265035     1.007825032230
         H           -3.307933073196    -2.027795405078     0.350420265035     1.007825032230
         H           -1.597723073196    -2.070144405078     0.787010265035     1.007825032230
         H           -5.040903073196    -0.668746405078    -0.360884734965     1.007825032230
         H           -4.350840073196     0.398813594922    -1.592970734965     1.007825032230
         H           -5.574966073196     1.012735594922    -0.467215734965     1.007825032230
         H            3.271269926804     1.838740594922    -0.071611734965     1.007825032230
         H            3.090202926804     1.060788594922     1.482357265035     1.007825032230
         H            4.836697926804    -0.653503405078     0.835580265035     1.007825032230
         H            5.013152926804     0.127315594922    -0.734534734965     1.007825032230
         H            5.493272926804     0.991556594922     0.740197265035     1.007825032230

  Basis Set: AUG-CC-PVTZ
    Blend: AUG-CC-PVTZ
  Basis Set: (AUG-CC-PVTZ AUX)
    Blend: AUG-CC-PVTZ-JKFIT
	 Reference Energy          =    -500.0372015673960391 [Eh]
	 Singles Energy            =      -0.0000000000000000 [Eh]
	 Same-Spin Energy          =      -0.5096008522624869 [Eh]
	 Opposite-Spin Energy      =      -1.7167745510751340 [Eh]
	 Correlation Energy        =      -2.2263754033376211 [Eh]
	 Total Energy              =    -502.2635769707336522 [Eh]

	 ================> DF-SCS-MP2 Energies <==================
	-----------------------------------------------------------
	 SCS Same-Spin Scale       =       0.3333333333333333 [-]
	 SCS Opposite-Spin Scale   =       1.2000000000000000 [-]
	 SCS Same-Spin Energy      =      -0.1698669507541623 [Eh]
	 SCS Opposite-Spin Energy  =      -2.0601294612901606 [Eh]
	 SCS Correlation Energy    =      -2.2299964120443230 [Eh]
	 SCS Total Energy          =    -502.2671979794403683 [Eh]
	-----------------------------------------------------------

  Dipole Moment: [D]
     X:    -1.4410      Y:     1.1832      Z:     0.8355     Total:     2.0431

*** Psi4 exiting successfully. Buy a developer a beer!
