                               Psi4 1.3.2 release

  ==> Input File <==

--------------------------------------------------------------------------
#psi4
#
memory 32 gb

molecule  {
0 1
  O        1.0716460     0.4753830     0.0137820
  O        2.5311320    -1.1057930    -0.7123110
  C       -2.3693550    -0.0883010     0.2982860
  C       -3.5980660     0.7810210     0.4066790
  C       -1.2626340     0.3942960    -0.2965320
  C        0.0082920    -0.3313460    -0.5624280
  C       -2.5132090    -1.4745150     0.8629900
  C       -4.7090750     0.3554230    -0.5595870
  C        3.3545870     0.8742710     0.4380940
  C        2.3248270    -0.0444538    -0.1712600
  C        4.7580620     0.3036620     0.3135630
  H       -3.3290990     1.8240090     0.2046860
  H       -3.9789780     0.7461160     1.4360390
  H       -1.2730680     1.4248330    -0.6509560
  H        0.2030610    -0.4353830    -1.6357720
  H        0.0474490    -1.3311670    -0.1253770
  H       -2.7951440    -1.4155820     1.9226690
  H       -3.3106690    -2.0257820     0.3507100
  H       -1.6004590    -2.0681310     0.7873000
  H       -5.0436390    -0.6667330    -0.3605950
  H       -4.3535760     0.4008270    -1.5926810
  H       -5.5777020     1.0147490    -0.4669260
  H        3.2685340     1.8407540    -0.0713220
  H        3.1028849     1.0739429     1.4844043
  H        4.8339620    -0.6514900     0.8358700
  H        5.0104170     0.1293290    -0.7342450
  H        5.4905370     0.9935700     0.7404870
units angstrom
no_reorient  #important for SAPT in psi4, default
symmetry c1  #important for SAPT in psi4, default
}

set PROPERTIES_ORIGIN ["COM"]
properties('MP2/aug-cc-pvtz', properties = ['dipole'])
--------------------------------------------------------------------------

    Molecular point group: c1
  Charge       = 0
  Multiplicity = 1
  Basis Set: AUG-CC-PVTZ
    Blend: AUG-CC-PVTZ
  Basis Set: (AUG-CC-PVTZ AUX)
    Blend: AUG-CC-PVTZ-JKFIT

    Orbital Energies [Eh]
    ---------------------

    Doubly Occupied:

       1A    -20.593795     2A    -20.544347     3A    -11.375552
       4A    -11.284848     5A    -11.243286     6A    -11.242477
       7A    -11.227790     8A    -11.225727     9A    -11.222432
      10A    -11.218710    11A    -11.218175    12A     -1.446459
      13A     -1.352226    14A     -1.111494    15A     -1.064094
      16A     -1.020600    17A     -0.976632    18A     -0.918357
      19A     -0.878577    20A     -0.832497    21A     -0.765304
      22A     -0.722703    23A     -0.689120    24A     -0.678309
      25A     -0.661188    26A     -0.638241    27A     -0.623704
      28A     -0.604352    29A     -0.588379    30A     -0.573830
      31A     -0.552419    32A     -0.544098    33A     -0.534343
      34A     -0.521481    35A     -0.519067    36A     -0.513970
      37A     -0.511726    38A     -0.493244    39A     -0.483387
      40A     -0.465444    41A     -0.457717    42A     -0.445918
      43A     -0.345075

  @DF-RHF Final Energy:  -500.03821872606841

   => Energetics <=

    Nuclear Repulsion Energy =            602.9912130758771127
    One-Electron Energy =               -1876.1966666364880894
    Two-Electron Energy =                 773.1672348345425689
    Total Energy =                       -500.0382187260684077
  Basis Set: (AUG-CC-PVTZ AUX)
    Blend: AUG-CC-PVTZ-RI
    Molecular point group: c1

    Geometry (in Angstrom), charge = 0, multiplicity = 1:

       Center              X                  Y                   Z               Mass
    ------------   -----------------  -----------------  -----------------  -----------------
         O            1.070563659296     0.475268496793     0.015539279660    15.994914619570
         O            2.530049659296    -1.105907503207    -0.710553720340    15.994914619570
         C           -2.370437340704    -0.088415503207     0.300043279660    12.000000000000
         C           -3.599148340704     0.780906496793     0.408436279660    12.000000000000
         C           -1.263716340704     0.394181496793    -0.294774720340    12.000000000000
         C            0.007209659296    -0.331460503207    -0.560670720340    12.000000000000
         C           -2.514291340704    -1.474629503207     0.864747279660    12.000000000000
         C           -4.710157340704     0.355308496793    -0.557829720340    12.000000000000
         C            3.353504659296     0.874156496793     0.439851279660    12.000000000000
         C            2.323744659296    -0.044568303207    -0.169502720340    12.000000000000
         C            4.756979659296     0.303547496793     0.315320279660    12.000000000000
         H           -3.330181340704     1.823894496793     0.206443279660     1.007825032230
         H           -3.980060340704     0.746001496793     1.437796279660     1.007825032230
         H           -1.274150340704     1.424718496793    -0.649198720340     1.007825032230
         H            0.201978659296    -0.435497503207    -1.634014720340     1.007825032230
         H            0.046366659296    -1.331281503207    -0.123619720340     1.007825032230
         H           -2.796226340704    -1.415696503207     1.924426279660     1.007825032230
         H           -3.311751340704    -2.025896503207     0.352467279660     1.007825032230
         H           -1.601541340704    -2.068245503207     0.789057279660     1.007825032230
         H           -5.044721340704    -0.666847503207    -0.358837720340     1.007825032230
         H           -4.354658340704     0.400712496793    -1.590923720340     1.007825032230
         H           -5.578784340704     1.014634496793    -0.465168720340     1.007825032230
         H            3.267451659296     1.840639496793    -0.069564720340     1.007825032230
         H            3.101802559296     1.073828396793     1.486161579660     1.007825032230
         H            4.832879659296    -0.651604503207     0.837627279660     1.007825032230
         H            5.009334659296     0.129214496793    -0.732487720340     1.007825032230
         H            5.489454659296     0.993455496793     0.742244279660     1.007825032230

  Basis Set: AUG-CC-PVTZ
    Blend: AUG-CC-PVTZ
  Basis Set: (AUG-CC-PVTZ AUX)
    Blend: AUG-CC-PVTZ-JKFIT
	 Reference Energy          =    -500.0382187260684077 [Eh]
	 Singles Energy            =      -0.0000000000000000 [Eh]
	 Same-Spin Energy          =      -0.5096644433177344 [Eh]
	 Opposite-Spin Energy      =      -1.7167054897743419 [Eh]
	 Correlation Energy        =      -2.2263699330920765 [Eh]
	 Total Energy              =    -502.2645886591604949 [Eh]

	 ================> DF-SCS-MP2 Energies <==================
	-----------------------------------------------------------
	 SCS Same-Spin Scale       =       0.3333333333333333 [-]
	 SCS Opposite-Spin Scale   =       1.2000000000000000 [-]
	 SCS Same-Spin Energy      =      -0.1698881477725781 [Eh]
	 SCS Opposite-Spin Energy  =      -2.0600465877292100 [Eh]
	 SCS Correlation Energy    =      -2.2299347355017880 [Eh]
	 SCS Total Energy          =    -502.2681534615701935 [Eh]
	-----------------------------------------------------------

  Dipole Moment: [D]
     X:    -1.3035      Y:     1.1374      Z:     0.7918     Total:     1.9026

*** Psi4 exiting successfully. Buy a developer a beer!
