                               Psi4 1.3.2 release

  ==> Input File <==

--------------------------------------------------------------------------
#psi4
#
memory 32 gb

molecule  {
0 1
  O        1.0716460     0.4753830     0.0137820
  O        2.5311320    -1.1057930    -0.7123110
  C       -2.3693550    -0.0883010     0.2982860
  C       -3.5980660     0.7810210     0.4066790
  C       -1.2626340     0.3942960    -0.2965320
  C        0.0255903    -0.3482153    -0.5701741
  C       -2.5132090    -1.4745150     0.8629900
  C       -4.7090750     0.3554230    -0.5595870
  C        3.3545870     0.8742710     0.4380940
  C        2.3026049    -0.0633800    -0.1597637
  C        4.7580620     0.3036620     0.3135630
  H       -3.3290990     1.8240090     0.2046860
  H       -3.9789780     0.7461160     1.4360390
  H       -1.2730680     1.4248330    -0.6509560
  H        0.2030610    -0.4353830    -1.6357720
  H        0.0474490    -1.3311670    -0.1253770
  H       -2.7951440    -1.4155820     1.9226690
  H       -3.3106690    -2.0257820     0.3507100
  H       -1.6004590    -2.0681310     0.7873000
  H       -5.0436390    -0.6667330    -0.3605950
  H       -4.3535760     0.4008270    -1.5926810
  H       -5.5777020     1.0147490    -0.4669260
  H        3.2685340     1.8407540    -0.0713220
  H        3.0874670     1.0628020     1.4826470
  H        4.8339620    -0.6514900     0.8358700
  H        5.0104170     0.1293290    -0.7342450
  H        5.4905370     0.9935700     0.7404870
units angstrom
no_reorient  #important for SAPT in psi4, default
symmetry c1  #important for SAPT in psi4, default
}

set PROPERTIES_ORIGIN ["COM"]
properties('MP2/aug-cc-pvtz', properties = ['dipole'])
--------------------------------------------------------------------------

    Molecular point group: c1
  Charge       = 0
  Multiplicity = 1
  Basis Set: AUG-CC-PVTZ
    Blend: AUG-CC-PVTZ
  Basis Set: (AUG-CC-PVTZ AUX)
    Blend: AUG-CC-PVTZ-JKFIT

    Orbital Energies [Eh]
    ---------------------

    Doubly Occupied:

       1A    -20.598140     2A    -20.543879     3A    -11.373631
       4A    -11.285922     5A    -11.243075     6A    -11.240907
       7A    -11.227918     8A    -11.226205     9A    -11.224221
      10A    -11.218850    11A    -11.216695    12A     -1.453804
      13A     -1.358689    14A     -1.110719    15A     -1.059218
      16A     -1.019218    17A     -0.976894    18A     -0.918615
      19A     -0.875903    20A     -0.833546    21A     -0.769486
      22A     -0.721211    23A     -0.688933    24A     -0.682151
      25A     -0.663379    26A     -0.637483    27A     -0.622226
      28A     -0.605801    29A     -0.587697    30A     -0.573917
      31A     -0.553888    32A     -0.545487    33A     -0.536283
      34A     -0.520317    35A     -0.518424    36A     -0.514976
      37A     -0.512500    38A     -0.493280    39A     -0.483188
      40A     -0.464649    41A     -0.462092    42A     -0.443070
      43A     -0.345632

  @DF-RHF Final Energy:  -500.03877198143579

   => Energetics <=

    Nuclear Repulsion Energy =            603.1045147619354339
    One-Electron Energy =               -1876.3823294726767017
    Two-Electron Energy =                 773.2390427293055382
    Total Energy =                       -500.0387719814357297
  Basis Set: (AUG-CC-PVTZ AUX)
    Blend: AUG-CC-PVTZ-RI
    Molecular point group: c1

    Geometry (in Angstrom), charge = 0, multiplicity = 1:

       Center              X                  Y                   Z               Mass
    ------------   -----------------  -----------------  -----------------  -----------------
         O            1.071041666735     0.478091889765     0.015262359820    15.994914619570
         O            2.530527666735    -1.103084110235    -0.710830640180    15.994914619570
         C           -2.369959333265    -0.085592110235     0.299766359820    12.000000000000
         C           -3.598670333265     0.783729889765     0.408159359820    12.000000000000
         C           -1.263238333265     0.397004889765    -0.295051640180    12.000000000000
         C            0.024985966735    -0.345506410235    -0.568693740180    12.000000000000
         C           -2.513813333265    -1.471806110235     0.864470359820    12.000000000000
         C           -4.709679333265     0.358131889765    -0.558106640180    12.000000000000
         C            3.353982666735     0.876979889765     0.439574359820    12.000000000000
         C            2.302000566735    -0.060671110235    -0.158283340180    12.000000000000
         C            4.757457666735     0.306370889765     0.315043359820    12.000000000000
         H           -3.329703333265     1.826717889765     0.206166359820     1.007825032230
         H           -3.979582333265     0.748824889765     1.437519359820     1.007825032230
         H           -1.273672333265     1.427541889765    -0.649475640180     1.007825032230
         H            0.202456666735    -0.432674110235    -1.634291640180     1.007825032230
         H            0.046844666735    -1.328458110235    -0.123896640180     1.007825032230
         H           -2.795748333265    -1.412873110235     1.924149359820     1.007825032230
         H           -3.311273333265    -2.023073110235     0.352190359820     1.007825032230
         H           -1.601063333265    -2.065422110235     0.788780359820     1.007825032230
         H           -5.044243333265    -0.664024110235    -0.359114640180     1.007825032230
         H           -4.354180333265     0.403535889765    -1.591200640180     1.007825032230
         H           -5.578306333265     1.017457889765    -0.465445640180     1.007825032230
         H            3.267929666735     1.843462889765    -0.069841640180     1.007825032230
         H            3.086862666735     1.065510889765     1.484127359820     1.007825032230
         H            4.833357666735    -0.648781110235     0.837350359820     1.007825032230
         H            5.009812666735     0.132037889765    -0.732764640180     1.007825032230
         H            5.489932666735     0.996278889765     0.741967359820     1.007825032230

  Basis Set: AUG-CC-PVTZ
    Blend: AUG-CC-PVTZ
  Basis Set: (AUG-CC-PVTZ AUX)
    Blend: AUG-CC-PVTZ-JKFIT
	 Reference Energy          =    -500.0387719814357865 [Eh]
	 Singles Energy            =      -0.0000000000000000 [Eh]
	 Same-Spin Energy          =      -0.5091153178490379 [Eh]
	 Opposite-Spin Energy      =      -1.7159442645909371 [Eh]
	 Correlation Energy        =      -2.2250595824399748 [Eh]
	 Total Energy              =    -502.2638315638757831 [Eh]

	 ================> DF-SCS-MP2 Energies <==================
	-----------------------------------------------------------
	 SCS Same-Spin Scale       =       0.3333333333333333 [-]
	 SCS Opposite-Spin Scale   =       1.2000000000000000 [-]
	 SCS Same-Spin Energy      =      -0.1697051059496793 [Eh]
	 SCS Opposite-Spin Energy  =      -2.0591331175091243 [Eh]
	 SCS Correlation Energy    =      -2.2288382234588036 [Eh]
	 SCS Total Energy          =    -502.2676102048945950 [Eh]
	-----------------------------------------------------------

  Dipole Moment: [D]
     X:    -1.4310      Y:     1.0658      Z:     0.7546     Total:     1.9372

*** Psi4 exiting successfully. Buy a developer a beer!
