                               Psi4 1.3.2 release

  ==> Input File <==

--------------------------------------------------------------------------
#psi4
#
memory 32 gb

molecule  {
0 1
  O        1.0716460     0.4753830     0.0137820
  O        2.5311320    -1.1057930    -0.7123110
  C       -2.3693550    -0.0883010     0.2982860
  C       -3.5980660     0.7810210     0.4066790
  C       -1.2626340     0.3942960    -0.2965320
  C       -0.1625945    -0.2337775    -0.5266761
  C       -2.5132090    -1.4745150     0.8629900
  C       -4.7090750     0.3554230    -0.5595870
  C        3.3545870     0.8742710     0.4380940
  C        2.3120420    -0.0450080    -0.1482500
  C        4.7580620     0.3036620     0.3135630
  H       -3.3290990     1.8240090     0.2046860
  H       -3.9789780     0.7461160     1.4360390
  H       -1.2730680     1.4248330    -0.6509560
  H        0.2030610    -0.4353830    -1.6357720
  H        0.0474490    -1.3311670    -0.1253770
  H       -2.7951440    -1.4155820     1.9226690
  H       -3.3106690    -2.0257820     0.3507100
  H       -1.6004590    -2.0681310     0.7873000
  H       -5.0436390    -0.6667330    -0.3605950
  H       -4.3535760     0.4008270    -1.5926810
  H       -5.5777020     1.0147490    -0.4669260
  H        3.2685340     1.8407540    -0.0713220
  H        3.0874670     1.0628020     1.4826470
  H        4.8339620    -0.6514900     0.8358700
  H        5.0104170     0.1293290    -0.7342450
  H        5.4905370     0.9935700     0.7404870
units angstrom
no_reorient  #important for SAPT in psi4, default
symmetry c1  #important for SAPT in psi4, default
}

set PROPERTIES_ORIGIN ["COM"]
properties('MP2/aug-cc-pvtz', properties = ['dipole'])
--------------------------------------------------------------------------

    Molecular point group: c1
  Charge       = 0
  Multiplicity = 1
  Basis Set: AUG-CC-PVTZ
    Blend: AUG-CC-PVTZ
  Basis Set: (AUG-CC-PVTZ AUX)
    Blend: AUG-CC-PVTZ-JKFIT

    Orbital Energies [Eh]
    ---------------------

    Doubly Occupied:

       1A    -20.579813     2A    -20.532440     3A    -11.369245
       4A    -11.293894     5A    -11.259049     6A    -11.237447
       7A    -11.235098     8A    -11.231661     9A    -11.224874
      10A    -11.214081    11A    -11.213420    12A     -1.426241
      13A     -1.332197    14A     -1.137892    15A     -1.063969
      16A     -1.043061    17A     -0.987509    18A     -0.916206
      19A     -0.882845    20A     -0.829736    21A     -0.749523
      22A     -0.737786    23A     -0.681073    24A     -0.672307
      25A     -0.659342    26A     -0.642289    27A     -0.630891
      28A     -0.600842    29A     -0.591175    30A     -0.582436
      31A     -0.554578    32A     -0.542634    33A     -0.539322
      34A     -0.522226    35A     -0.516478    36A     -0.508809
      37A     -0.493894    38A     -0.492953    39A     -0.484519
      40A     -0.474768    41A     -0.442493    42A     -0.431691
      43A     -0.346641

  @DF-RHF Final Energy:  -499.98054101010871

   => Energetics <=

    Nuclear Repulsion Energy =            603.8767096868913313
    One-Electron Energy =               -1877.8958101564332992
    Two-Electron Energy =                 774.0385594594333725
    Total Energy =                       -499.9805410101087091
  Basis Set: (AUG-CC-PVTZ AUX)
    Blend: AUG-CC-PVTZ-RI
    Molecular point group: c1

    Geometry (in Angstrom), charge = 0, multiplicity = 1:

       Center              X                  Y                   Z               Mass
    ------------   -----------------  -----------------  -----------------  -----------------
         O            1.084781358573     0.467883278830     0.011033808597    15.994914619570
         O            2.544267358573    -1.113292721170    -0.715059191403    15.994914619570
         C           -2.356219641427    -0.095800721170     0.295537808597    12.000000000000
         C           -3.584930641427     0.773521278830     0.403930808597    12.000000000000
         C           -1.249498641427     0.386796278830    -0.299280191403    12.000000000000
         C           -0.149459141427    -0.241277221170    -0.529424291403    12.000000000000
         C           -2.500073641427    -1.482014721170     0.860241808597    12.000000000000
         C           -4.695939641427     0.347923278830    -0.562335191403    12.000000000000
         C            3.367722358573     0.866771278830     0.435345808597    12.000000000000
         C            2.325177358573    -0.052507721170    -0.150998191403    12.000000000000
         C            4.771197358573     0.296162278830     0.310814808597    12.000000000000
         H           -3.315963641427     1.816509278830     0.201937808597     1.007825032230
         H           -3.965842641427     0.738616278830     1.433290808597     1.007825032230
         H           -1.259932641427     1.417333278830    -0.653704191403     1.007825032230
         H            0.216196358573    -0.442882721170    -1.638520191403     1.007825032230
         H            0.060584358573    -1.338666721170    -0.128125191403     1.007825032230
         H           -2.782008641427    -1.423081721170     1.919920808597     1.007825032230
         H           -3.297533641427    -2.033281721170     0.347961808597     1.007825032230
         H           -1.587323641427    -2.075630721170     0.784551808597     1.007825032230
         H           -5.030503641427    -0.674232721170    -0.363343191403     1.007825032230
         H           -4.340440641427     0.393327278830    -1.595429191403     1.007825032230
         H           -5.564566641427     1.007249278830    -0.469674191403     1.007825032230
         H            3.281669358573     1.833254278830    -0.074070191403     1.007825032230
         H            3.100602358573     1.055302278830     1.479898808597     1.007825032230
         H            4.847097358573    -0.658989721170     0.833121808597     1.007825032230
         H            5.023552358573     0.121829278830    -0.736993191403     1.007825032230
         H            5.503672358573     0.986070278830     0.737738808597     1.007825032230

  Basis Set: AUG-CC-PVTZ
    Blend: AUG-CC-PVTZ
  Basis Set: (AUG-CC-PVTZ AUX)
    Blend: AUG-CC-PVTZ-JKFIT
	 Reference Energy          =    -499.9805410101087091 [Eh]
	 Singles Energy            =      -0.0000000000000000 [Eh]
	 Same-Spin Energy          =      -0.5140387814160630 [Eh]
	 Opposite-Spin Energy      =      -1.7221081180587179 [Eh]
	 Correlation Energy        =      -2.2361468994747806 [Eh]
	 Total Energy              =    -502.2166879095834702 [Eh]

	 ================> DF-SCS-MP2 Energies <==================
	-----------------------------------------------------------
	 SCS Same-Spin Scale       =       0.3333333333333333 [-]
	 SCS Opposite-Spin Scale   =       1.2000000000000000 [-]
	 SCS Same-Spin Energy      =      -0.1713462604720210 [Eh]
	 SCS Opposite-Spin Energy  =      -2.0665297416704616 [Eh]
	 SCS Correlation Energy    =      -2.2378760021424826 [Eh]
	 SCS Total Energy          =    -502.2184170122511659 [Eh]
	-----------------------------------------------------------

  Dipole Moment: [D]
     X:    -2.3024      Y:     1.2454      Z:     0.9315     Total:     2.7784

*** Psi4 exiting successfully. Buy a developer a beer!
