                               Psi4 1.3.2 release

  ==> Input File <==

--------------------------------------------------------------------------
#psi4
#
memory 32 gb

molecule  {
0 1
  O        1.0716460     0.4753830     0.0137820
  O        2.5311320    -1.1057930    -0.7123110
  C       -2.3819560    -0.0688094     0.3453624
  C       -3.5980660     0.7810210     0.4066790
  C       -1.2626340     0.3942960    -0.2965320
  C        0.0082920    -0.3313460    -0.5624280
  C       -2.5132090    -1.4745150     0.8629900
  C       -4.7090750     0.3554230    -0.5595870
  C        3.3545870     0.8742710     0.4380940
  C        2.3120420    -0.0450080    -0.1482500
  C        4.7580620     0.3036620     0.3135630
  H       -3.3290990     1.8240090     0.2046860
  H       -3.9789780     0.7461160     1.4360390
  H       -1.2730680     1.4248330    -0.6509560
  H        0.2030610    -0.4353830    -1.6357720
  H        0.0474490    -1.3311670    -0.1253770
  H       -2.7946050    -1.3773495     1.9199929
  H       -3.3106690    -2.0257820     0.3507100
  H       -1.6004590    -2.0681310     0.7873000
  H       -5.0436390    -0.6667330    -0.3605950
  H       -4.3535760     0.4008270    -1.5926810
  H       -5.5777020     1.0147490    -0.4669260
  H        3.2685340     1.8407540    -0.0713220
  H        3.0874670     1.0628020     1.4826470
  H        4.8339620    -0.6514900     0.8358700
  H        5.0104170     0.1293290    -0.7342450
  H        5.4905370     0.9935700     0.7404870
units angstrom
no_reorient  #important for SAPT in psi4, default
symmetry c1  #important for SAPT in psi4, default
}

set PROPERTIES_ORIGIN ["COM"]
properties('MP2/aug-cc-pvtz', properties = ['dipole'])
--------------------------------------------------------------------------

    Molecular point group: c1
  Charge       = 0
  Multiplicity = 1
  Basis Set: AUG-CC-PVTZ
    Blend: AUG-CC-PVTZ
  Basis Set: (AUG-CC-PVTZ AUX)
    Blend: AUG-CC-PVTZ-JKFIT

    Orbital Energies [Eh]
    ---------------------

    Doubly Occupied:

       1A    -20.597037     2A    -20.540591     3A    -11.375329
       4A    -11.286806     5A    -11.246814     6A    -11.242030
       7A    -11.228050     8A    -11.226620     9A    -11.225698
      10A    -11.220535    11A    -11.217746    12A     -1.447917
      13A     -1.347417    14A     -1.112553    15A     -1.064107
      16A     -1.021542    17A     -0.978730    18A     -0.917668
      19A     -0.880634    20A     -0.833793    21A     -0.767096
      22A     -0.721869    23A     -0.687777    24A     -0.680214
      25A     -0.659862    26A     -0.638855    27A     -0.624727
      28A     -0.605114    29A     -0.588412    30A     -0.576808
      31A     -0.552641    32A     -0.545034    33A     -0.533447
      34A     -0.521068    35A     -0.516790    36A     -0.514055
      37A     -0.510770    38A     -0.492138    39A     -0.482704
      40A     -0.472524    41A     -0.457104    42A     -0.444324
      43A     -0.339779

  @DF-RHF Final Energy:  -500.03464648638624

   => Energetics <=

    Nuclear Repulsion Energy =            602.9166166781943730
    One-Electron Energy =               -1876.0130692556951999
    Two-Electron Energy =                 773.0618060911144767
    Total Energy =                       -500.0346464863862366
  Basis Set: (AUG-CC-PVTZ AUX)
    Blend: AUG-CC-PVTZ-RI
    Molecular point group: c1

    Geometry (in Angstrom), charge = 0, multiplicity = 1:

       Center              X                  Y                   Z               Mass
    ------------   -----------------  -----------------  -----------------  -----------------
         O            1.072611042744     0.473637953001     0.010180611056    15.994914619570
         O            2.532097042744    -1.107538046999    -0.715912388944    15.994914619570
         C           -2.380990957256    -0.070554446999     0.341761011056    12.000000000000
         C           -3.597100957256     0.779275953001     0.403077611056    12.000000000000
         C           -1.261668957256     0.392550953001    -0.300133388944    12.000000000000
         C            0.009257042744    -0.333091046999    -0.566029388944    12.000000000000
         C           -2.512243957256    -1.476260046999     0.859388611056    12.000000000000
         C           -4.708109957256     0.353677953001    -0.563188388944    12.000000000000
         C            3.355552042744     0.872525953001     0.434492611056    12.000000000000
         C            2.313007042744    -0.046753046999    -0.151851388944    12.000000000000
         C            4.759027042744     0.301916953001     0.309961611056    12.000000000000
         H           -3.328133957256     1.822263953001     0.201084611056     1.007825032230
         H           -3.978012957256     0.744370953001     1.432437611056     1.007825032230
         H           -1.272102957256     1.423087953001    -0.654557388944     1.007825032230
         H            0.204026042744    -0.437128046999    -1.639373388944     1.007825032230
         H            0.048414042744    -1.332912046999    -0.128978388944     1.007825032230
         H           -2.793639957256    -1.379094546999     1.916391511056     1.007825032230
         H           -3.309703957256    -2.027527046999     0.347108611056     1.007825032230
         H           -1.599493957256    -2.069876046999     0.783698611056     1.007825032230
         H           -5.042673957256    -0.668478046999    -0.364196388944     1.007825032230
         H           -4.352610957256     0.399081953001    -1.596282388944     1.007825032230
         H           -5.576736957256     1.013003953001    -0.470527388944     1.007825032230
         H            3.269499042744     1.839008953001    -0.074923388944     1.007825032230
         H            3.088432042744     1.061056953001     1.479045611056     1.007825032230
         H            4.834927042744    -0.653235046999     0.832268611056     1.007825032230
         H            5.011382042744     0.127583953001    -0.737846388944     1.007825032230
         H            5.491502042744     0.991824953001     0.736885611056     1.007825032230

  Basis Set: AUG-CC-PVTZ
    Blend: AUG-CC-PVTZ
  Basis Set: (AUG-CC-PVTZ AUX)
    Blend: AUG-CC-PVTZ-JKFIT
	 Reference Energy          =    -500.0346464863862366 [Eh]
	 Singles Energy            =      -0.0000000000000000 [Eh]
	 Same-Spin Energy          =      -0.5103435883600715 [Eh]
	 Opposite-Spin Energy      =      -1.7178080814813261 [Eh]
	 Correlation Energy        =      -2.2281516698413979 [Eh]
	 Total Energy              =    -502.2627981562276318 [Eh]

	 ================> DF-SCS-MP2 Energies <==================
	-----------------------------------------------------------
	 SCS Same-Spin Scale       =       0.3333333333333333 [-]
	 SCS Opposite-Spin Scale   =       1.2000000000000000 [-]
	 SCS Same-Spin Energy      =      -0.1701145294533572 [Eh]
	 SCS Opposite-Spin Energy  =      -2.0613696977775913 [Eh]
	 SCS Correlation Energy    =      -2.2314842272309483 [Eh]
	 SCS Total Energy          =    -502.2661307136172013 [Eh]
	-----------------------------------------------------------

  Dipole Moment: [D]
     X:    -1.4929      Y:     1.1789      Z:     0.7924     Total:     2.0607

*** Psi4 exiting successfully. Buy a developer a beer!
