                               Psi4 1.3.2 release

  ==> Input File <==

--------------------------------------------------------------------------
#psi4
#
memory 32 gb

molecule  {
0 1
  O        1.0716460     0.4753830     0.0137820
  O        2.5311320    -1.1057930    -0.7123110
  C       -2.3883175    -0.0597045     0.3691407
  C       -3.5980660     0.7810210     0.4066790
  C       -1.2626340     0.3942960    -0.2965320
  C        0.0082920    -0.3313460    -0.5624280
  C       -2.5132090    -1.4745150     0.8629900
  C       -4.7090750     0.3554230    -0.5595870
  C        3.3545870     0.8742710     0.4380940
  C        2.3120420    -0.0450080    -0.1482500
  C        4.7580620     0.3036620     0.3135630
  H       -3.3290990     1.8240090     0.2046860
  H       -3.9789780     0.7461160     1.4360390
  H       -1.2730680     1.4248330    -0.6509560
  H        0.2030610    -0.4353830    -1.6357720
  H        0.0474490    -1.3311670    -0.1253770
  H       -2.7942069    -1.3582747     1.9181717
  H       -3.3106690    -2.0257820     0.3507100
  H       -1.6004590    -2.0681310     0.7873000
  H       -5.0436390    -0.6667330    -0.3605950
  H       -4.3535760     0.4008270    -1.5926810
  H       -5.5777020     1.0147490    -0.4669260
  H        3.2685340     1.8407540    -0.0713220
  H        3.0874670     1.0628020     1.4826470
  H        4.8339620    -0.6514900     0.8358700
  H        5.0104170     0.1293290    -0.7342450
  H        5.4905370     0.9935700     0.7404870
units angstrom
no_reorient  #important for SAPT in psi4, default
symmetry c1  #important for SAPT in psi4, default
}

set PROPERTIES_ORIGIN ["COM"]
properties('MP2/aug-cc-pvtz', properties = ['dipole'])
--------------------------------------------------------------------------

    Molecular point group: c1
  Charge       = 0
  Multiplicity = 1
  Basis Set: AUG-CC-PVTZ
    Blend: AUG-CC-PVTZ
  Basis Set: (AUG-CC-PVTZ AUX)
    Blend: AUG-CC-PVTZ-JKFIT

    Orbital Energies [Eh]
    ---------------------

    Doubly Occupied:

       1A    -20.596922     2A    -20.540527     3A    -11.375252
       4A    -11.286985     5A    -11.248269     6A    -11.241962
       7A    -11.227884     8A    -11.227113     9A    -11.226766
      10A    -11.221164    11A    -11.217695    12A     -1.447839
      13A     -1.347348    14A     -1.112740    15A     -1.064209
      16A     -1.021344    17A     -0.979174    18A     -0.916727
      19A     -0.881443    20A     -0.833662    21A     -0.766964
      22A     -0.721484    23A     -0.687815    24A     -0.680302
      25A     -0.659767    26A     -0.638999    27A     -0.625180
      28A     -0.605185    29A     -0.588703    30A     -0.577667
      31A     -0.552678    32A     -0.545350    33A     -0.533369
      34A     -0.520780    35A     -0.516926    36A     -0.513960
      37A     -0.509575    38A     -0.492129    39A     -0.481534
      40A     -0.475222    41A     -0.456982    42A     -0.444270
      43A     -0.336525

  @DF-RHF Final Energy:  -500.03097635537648

   => Energetics <=

    Nuclear Repulsion Energy =            602.8220343134124732
    One-Electron Energy =               -1875.8132340824902258
    Two-Electron Energy =                 772.9602234137014420
    Total Energy =                       -500.0309763553764242
  Basis Set: (AUG-CC-PVTZ AUX)
    Blend: AUG-CC-PVTZ-RI
    Molecular point group: c1

    Geometry (in Angstrom), charge = 0, multiplicity = 1:

       Center              X                  Y                   Z               Mass
    ------------   -----------------  -----------------  -----------------  -----------------
         O            1.073097458338     0.472814951775     0.008364615828    15.994914619570
         O            2.532583458338    -1.108361048225    -0.717728384172    15.994914619570
         C           -2.386866041662    -0.062272548225     0.363723315828    12.000000000000
         C           -3.596614541662     0.778452951775     0.401261615828    12.000000000000
         C           -1.261182541662     0.391727951775    -0.301949384172    12.000000000000
         C            0.009743458338    -0.333914048225    -0.567845384172    12.000000000000
         C           -2.511757541662    -1.477083048225     0.857572615828    12.000000000000
         C           -4.707623541662     0.352854951775    -0.565004384172    12.000000000000
         C            3.356038458338     0.871702951775     0.432676615828    12.000000000000
         C            2.313493458338    -0.047576048225    -0.153667384172    12.000000000000
         C            4.759513458338     0.301093951775     0.308145615828    12.000000000000
         H           -3.327647541662     1.821440951775     0.199268615828     1.007825032230
         H           -3.977526541662     0.743547951775     1.430621615828     1.007825032230
         H           -1.271616541662     1.422264951775    -0.656373384172     1.007825032230
         H            0.204512458338    -0.437951048225    -1.641189384172     1.007825032230
         H            0.048900458338    -1.333735048225    -0.130794384172     1.007825032230
         H           -2.792755441662    -1.360842748225     1.912754315828     1.007825032230
         H           -3.309217541662    -2.028350048225     0.345292615828     1.007825032230
         H           -1.599007541662    -2.070699048225     0.781882615828     1.007825032230
         H           -5.042187541662    -0.669301048225    -0.366012384172     1.007825032230
         H           -4.352124541662     0.398258951775    -1.598098384172     1.007825032230
         H           -5.576250541662     1.012180951775    -0.472343384172     1.007825032230
         H            3.269985458338     1.838185951775    -0.076739384172     1.007825032230
         H            3.088918458338     1.060233951775     1.477229615828     1.007825032230
         H            4.835413458338    -0.654058048225     0.830452615828     1.007825032230
         H            5.011868458338     0.126760951775    -0.739662384172     1.007825032230
         H            5.491988458338     0.991001951775     0.735069615828     1.007825032230

  Basis Set: AUG-CC-PVTZ
    Blend: AUG-CC-PVTZ
  Basis Set: (AUG-CC-PVTZ AUX)
    Blend: AUG-CC-PVTZ-JKFIT
	 Reference Energy          =    -500.0309763553764810 [Eh]
	 Singles Energy            =      -0.0000000000000000 [Eh]
	 Same-Spin Energy          =      -0.5107197498298293 [Eh]
	 Opposite-Spin Energy      =      -1.7184871693936707 [Eh]
	 Correlation Energy        =      -2.2292069192235000 [Eh]
	 Total Energy              =    -502.2601832745999673 [Eh]

	 ================> DF-SCS-MP2 Energies <==================
	-----------------------------------------------------------
	 SCS Same-Spin Scale       =       0.3333333333333333 [-]
	 SCS Opposite-Spin Scale   =       1.2000000000000000 [-]
	 SCS Same-Spin Energy      =      -0.1702399166099431 [Eh]
	 SCS Opposite-Spin Energy  =      -2.0621846032724047 [Eh]
	 SCS Correlation Energy    =      -2.2324245198823478 [Eh]
	 SCS Total Energy          =    -502.2634008752588102 [Eh]
	-----------------------------------------------------------

  Dipole Moment: [D]
     X:    -1.5115      Y:     1.1781      Z:     0.7707     Total:     2.0655

*** Psi4 exiting successfully. Buy a developer a beer!
