                               Psi4 1.4a3.dev225

  ==> Input File <==

--------------------------------------------------------------------------
#psi4
#
memory 32 gb

molecule  {
0 1
  O       -1.1411000    -0.4541930    -0.0251880
  O       -2.5814580     1.1752260    -0.6867450
  C        2.3134570     0.0186930     0.2462000
  C        3.5222300    -0.8802230     0.3222130
  C        1.1937340    -0.4134970    -0.3651820
  C       -0.0647290     0.3542590    -0.5783780
  C        2.4850690     1.3863280     0.8546590
  C        4.7190700    -0.3405130    -0.4677320
  C       -3.4286640    -0.8122060     0.4327630
  C       -2.3749380     0.0938890    -0.1583950
  C       -4.7822944    -0.2454077     0.3159272
  H        3.2581340    -1.8761120    -0.0507320
  H        3.8122360    -1.0018650     1.3748590
  H        1.1815530    -1.4238220    -0.7735790
  H       -0.2705280     0.5138520    -1.6430550
  H       -0.0714200     1.3330110    -0.0949940
  H        3.0182560     1.3061200     1.8081990
  H        3.0814560     2.0379150     0.2067330
  H        1.5342700     1.8877430     1.0433380
  H        5.0646870     0.6170420    -0.0694620
  H        4.4484560    -0.1949880    -1.5176090
  H        5.5583810    -1.0408350    -0.4253590
  H       -3.3536290    -1.7820470    -0.0715700
  H       -3.1585900    -0.9983310     1.4781360
  H       -4.8922970     0.7333770     0.8287030
  H       -5.0879650    -0.0561110    -0.7346540
  H       -5.5642940    -0.9066400     0.7478690
units angstrom
no_reorient  #important for SAPT in psi4, default
symmetry c1  #important for SAPT in psi4, default
}

set PROPERTIES_ORIGIN ["COM"]
properties('MP2/aug-cc-pvtz', properties = ['dipole'])
--------------------------------------------------------------------------

    Molecular point group: c1
  Charge       = 0
  Multiplicity = 1
  Basis Set: AUG-CC-PVTZ
    Blend: AUG-CC-PVTZ
  Basis Set: (AUG-CC-PVTZ AUX)
    Blend: AUG-CC-PVTZ-JKFIT

    Orbital Energies [Eh]
    ---------------------

    Doubly Occupied:

       1A    -20.597454     2A    -20.541347     3A    -11.376014
       4A    -11.287034     5A    -11.244667     6A    -11.241001
       7A    -11.228708     8A    -11.226266     9A    -11.223612
      10A    -11.220040    11A    -11.219375    12A     -1.447355
      13A     -1.347828    14A     -1.112350    15A     -1.070847
      16A     -1.023190    17A     -0.977399    18A     -0.919890
      19A     -0.876631    20A     -0.832230    21A     -0.766991
      22A     -0.723170    23A     -0.689173    24A     -0.679877
      25A     -0.660935    26A     -0.639358    27A     -0.624380
      28A     -0.605134    29A     -0.589622    30A     -0.572336
      31A     -0.553975    32A     -0.546965    33A     -0.534273
      34A     -0.531817    35A     -0.514153    36A     -0.512905
      37A     -0.507886    38A     -0.485464    39A     -0.484630
      40A     -0.466021    41A     -0.457146    42A     -0.444296
      43A     -0.346185

  @DF-RHF Final Energy:  -500.03540564781269

   => Energetics <=

    Nuclear Repulsion Energy =            603.2791671865110175
    One-Electron Energy =               -1876.7292878737191586
    Two-Electron Energy =                 773.4147150393955599
    Total Energy =                       -500.0354056478126950
  Basis Set: (AUG-CC-PVTZ AUX)
    Blend: AUG-CC-PVTZ-RI
    Molecular point group: c1

    Geometry (in Angstrom), charge = 0, multiplicity = 1:

       Center              X                  Y                   Z               Mass
    ------------   -----------------  -----------------  -----------------  -----------------
         O           -1.090361105490    -0.458102766820    -0.012126501724    15.994914619570
         O           -2.530719105490     1.171316233180    -0.673683501724    15.994914619570
         C            2.364195894510     0.014783233180     0.259261498276    12.000000000000
         C            3.572968894510    -0.884132766820     0.335274498276    12.000000000000
         C            1.244472894510    -0.417406766820    -0.352120501724    12.000000000000
         C           -0.013990105490     0.350349233180    -0.565316501724    12.000000000000
         C            2.535807894510     1.382418233180     0.867720498276    12.000000000000
         C            4.769808894510    -0.344422766820    -0.454670501724    12.000000000000
         C           -3.377925105490    -0.816115766820     0.445824498276    12.000000000000
         C           -2.324199105490     0.089979233180    -0.145333501724    12.000000000000
         C           -4.731555505490    -0.249317466820     0.328988698276    12.000000000000
         H            3.308872894510    -1.880021766820    -0.037670501724     1.007825032230
         H            3.862974894510    -1.005774766820     1.387920498276     1.007825032230
         H            1.232291894510    -1.427731766820    -0.760517501724     1.007825032230
         H           -0.219789105490     0.509942233180    -1.629993501724     1.007825032230
         H           -0.020681105490     1.329101233180    -0.081932501724     1.007825032230
         H            3.068994894510     1.302210233180     1.821260498276     1.007825032230
         H            3.132194894510     2.034005233180     0.219794498276     1.007825032230
         H            1.585008894510     1.883833233180     1.056399498276     1.007825032230
         H            5.115425894510     0.613132233180    -0.056400501724     1.007825032230
         H            4.499194894510    -0.198897766820    -1.504547501724     1.007825032230
         H            5.609119894510    -1.044744766820    -0.412297501724     1.007825032230
         H           -3.302890105490    -1.785956766820    -0.058508501724     1.007825032230
         H           -3.107851105490    -1.002240766820     1.491197498276     1.007825032230
         H           -4.841558105490     0.729467233180     0.841764498276     1.007825032230
         H           -5.037226105490    -0.060020766820    -0.721592501724     1.007825032230
         H           -5.513555105490    -0.910549766820     0.760930498276     1.007825032230

  Basis Set: AUG-CC-PVTZ
    Blend: AUG-CC-PVTZ
  Basis Set: (AUG-CC-PVTZ AUX)
    Blend: AUG-CC-PVTZ-JKFIT
	 Reference Energy          =    -500.0354056478126950 [Eh]
	 Singles Energy            =      -0.0000000000000000 [Eh]
	 Same-Spin Energy          =      -0.5101118385657919 [Eh]
	 Opposite-Spin Energy      =      -1.7174095949691432 [Eh]
	 Correlation Energy        =      -2.2275214335349354 [Eh]
	 Total Energy              =    -502.2629270813476410 [Eh]

	 ================> DF-SCS-MP2 Energies <==================
	-----------------------------------------------------------
	 SCS Same-Spin Scale       =       0.3333333333333333 [-]
	 SCS Opposite-Spin Scale   =       1.2000000000000000 [-]
	 SCS Same-Spin Energy      =      -0.1700372795219306 [Eh]
	 SCS Opposite-Spin Energy  =      -2.0608915139629720 [Eh]
	 SCS Correlation Energy    =      -2.2309287934849027 [Eh]
	 SCS Total Energy          =    -502.2663344412976016 [Eh]
	-----------------------------------------------------------

  Dipole Moment: [D]
     X:     1.4578      Y:    -1.1966      Z:     0.7956     Total:     2.0469

*** Psi4 exiting successfully. Buy a developer a beer!
