                               Psi4 1.4a3.dev225

  ==> Input File <==

--------------------------------------------------------------------------
#psi4
#
memory 32 gb

molecule  {
0 1
  O       -1.1411000    -0.4541930    -0.0251880
  O       -2.5814580     1.1752260    -0.6867450
  C        2.3134570     0.0186930     0.2462000
  C        3.5382583    -0.8921426     0.3232209
  C        1.1937340    -0.4134970    -0.3651820
  C       -0.0647290     0.3542590    -0.5783780
  C        2.4850690     1.3863280     0.8546590
  C        4.7190700    -0.3405130    -0.4677320
  C       -3.4286640    -0.8122060     0.4327630
  C       -2.3749380     0.0938890    -0.1583950
  C       -4.8282690    -0.2261570     0.3119590
  H        3.2581340    -1.8761120    -0.0507320
  H        3.8122360    -1.0018650     1.3748590
  H        1.1815530    -1.4238220    -0.7735790
  H       -0.2705280     0.5138520    -1.6430550
  H       -0.0714200     1.3330110    -0.0949940
  H        3.0182560     1.3061200     1.8081990
  H        3.0814560     2.0379150     0.2067330
  H        1.5342700     1.8877430     1.0433380
  H        5.0646870     0.6170420    -0.0694620
  H        4.4484560    -0.1949880    -1.5176090
  H        5.5583810    -1.0408350    -0.4253590
  H       -3.3536290    -1.7820470    -0.0715700
  H       -3.1585900    -0.9983310     1.4781360
  H       -4.8922970     0.7333770     0.8287030
  H       -5.0879650    -0.0561110    -0.7346540
  H       -5.5642940    -0.9066400     0.7478690
units angstrom
no_reorient  #important for SAPT in psi4, default
symmetry c1  #important for SAPT in psi4, default
}

set PROPERTIES_ORIGIN ["COM"]
properties('MP2/aug-cc-pvtz', properties = ['dipole'])
--------------------------------------------------------------------------

    Molecular point group: c1
  Charge       = 0
  Multiplicity = 1
  Basis Set: AUG-CC-PVTZ
    Blend: AUG-CC-PVTZ
  Basis Set: (AUG-CC-PVTZ AUX)
    Blend: AUG-CC-PVTZ-JKFIT

    Orbital Energies [Eh]
    ---------------------

    Doubly Occupied:

       1A    -20.597101     2A    -20.540780     3A    -11.375658
       4A    -11.286750     5A    -11.245230     6A    -11.242564
       7A    -11.228420     8A    -11.226129     9A    -11.223214
      10A    -11.218926    11A    -11.218152    12A     -1.446907
      13A     -1.347317    14A     -1.110260    15A     -1.062894
      16A     -1.022649    17A     -0.977412    18A     -0.919721
      19A     -0.878955    20A     -0.832873    21A     -0.766741
      22A     -0.722148    23A     -0.687595    24A     -0.678834
      25A     -0.659548    26A     -0.637862    27A     -0.624661
      28A     -0.604282    29A     -0.589193    30A     -0.571984
      31A     -0.553935    32A     -0.545481    33A     -0.533334
      34A     -0.521895    35A     -0.517556    36A     -0.516031
      37A     -0.512246    38A     -0.492182    39A     -0.487115
      40A     -0.461659    41A     -0.456902    42A     -0.444169
      43A     -0.346379

  @DF-RHF Final Energy:  -500.03833407176541

   => Energetics <=

    Nuclear Repulsion Energy =            602.2419568301509116
    One-Electron Energy =               -1874.6932943577846800
    Two-Electron Energy =                 772.4130034558684201
    Total Energy =                       -500.0383340717653482
  Basis Set: (AUG-CC-PVTZ AUX)
    Blend: AUG-CC-PVTZ-RI
    Molecular point group: c1

    Geometry (in Angstrom), charge = 0, multiplicity = 1:

       Center              X                  Y                   Z               Mass
    ------------   -----------------  -----------------  -----------------  -----------------
         O           -1.088059241278    -0.458666282069    -0.011898954126    15.994914619570
         O           -2.528417241278     1.170752717931    -0.673455954126    15.994914619570
         C            2.366497758722     0.014219717931     0.259489045874    12.000000000000
         C            3.591299058722    -0.896615882069     0.336509945874    12.000000000000
         C            1.246774758722    -0.417970282069    -0.351892954126    12.000000000000
         C           -0.011688241278     0.349785717931    -0.565088954126    12.000000000000
         C            2.538109758722     1.381854717931     0.867948045874    12.000000000000
         C            4.772110758722    -0.344986282069    -0.454442954126    12.000000000000
         C           -3.375623241278    -0.816679282069     0.446052045874    12.000000000000
         C           -2.321897241278     0.089415717931    -0.145105954126    12.000000000000
         C           -4.775228241278    -0.230630282069     0.325248045874    12.000000000000
         H            3.311174758722    -1.880585282069    -0.037442954126     1.007825032230
         H            3.865276758722    -1.006338282069     1.388148045874     1.007825032230
         H            1.234593758722    -1.428295282069    -0.760289954126     1.007825032230
         H           -0.217487241278     0.509378717931    -1.629765954126     1.007825032230
         H           -0.018379241278     1.328537717931    -0.081704954126     1.007825032230
         H            3.071296758722     1.301646717931     1.821488045874     1.007825032230
         H            3.134496758722     2.033441717931     0.220022045874     1.007825032230
         H            1.587310758722     1.883269717931     1.056627045874     1.007825032230
         H            5.117727758722     0.612568717931    -0.056172954126     1.007825032230
         H            4.501496758722    -0.199461282069    -1.504319954126     1.007825032230
         H            5.611421758722    -1.045308282069    -0.412069954126     1.007825032230
         H           -3.300588241278    -1.786520282069    -0.058280954126     1.007825032230
         H           -3.105549241278    -1.002804282069     1.491425045874     1.007825032230
         H           -4.839256241278     0.728903717931     0.841992045874     1.007825032230
         H           -5.034924241278    -0.060584282069    -0.721364954126     1.007825032230
         H           -5.511253241278    -0.911113282069     0.761158045874     1.007825032230

  Basis Set: AUG-CC-PVTZ
    Blend: AUG-CC-PVTZ
  Basis Set: (AUG-CC-PVTZ AUX)
    Blend: AUG-CC-PVTZ-JKFIT
	 Reference Energy          =    -500.0383340717654050 [Eh]
	 Singles Energy            =      -0.0000000000000000 [Eh]
	 Same-Spin Energy          =      -0.5095823864457110 [Eh]
	 Opposite-Spin Energy      =      -1.7168306933188917 [Eh]
	 Correlation Energy        =      -2.2264130797646029 [Eh]
	 Total Energy              =    -502.2647471515300026 [Eh]

	 ================> DF-SCS-MP2 Energies <==================
	-----------------------------------------------------------
	 SCS Same-Spin Scale       =       0.3333333333333333 [-]
	 SCS Opposite-Spin Scale   =       1.2000000000000000 [-]
	 SCS Same-Spin Energy      =      -0.1698607954819036 [Eh]
	 SCS Opposite-Spin Energy  =      -2.0601968319826698 [Eh]
	 SCS Correlation Energy    =      -2.2300576274645736 [Eh]
	 SCS Total Energy          =    -502.2683916992299942 [Eh]
	-----------------------------------------------------------

  Dipole Moment: [D]
     X:     1.4488      Y:    -1.1995      Z:     0.7991     Total:     2.0436

*** Psi4 exiting successfully. Buy a developer a beer!
