                               Psi4 1.4a3.dev225

  ==> Input File <==

--------------------------------------------------------------------------
#psi4
#
memory 32 gb

molecule  {
0 1
  O       -1.1411000    -0.4541930    -0.0251880
  O       -2.5814580     1.1752260    -0.6867450
  C        2.3134570     0.0186930     0.2462000
  C        3.5222300    -0.8802230     0.3222130
  C        1.1771083    -0.4199142    -0.3742598
  C       -0.0647290     0.3542590    -0.5783780
  C        2.4850690     1.3863280     0.8546590
  C        4.7190700    -0.3405130    -0.4677320
  C       -3.4286640    -0.8122060     0.4327630
  C       -2.3749380     0.0938890    -0.1583950
  C       -4.8282690    -0.2261570     0.3119590
  H        3.2581340    -1.8761120    -0.0507320
  H        3.8122360    -1.0018650     1.3748590
  H        1.1815530    -1.4238220    -0.7735790
  H       -0.2705280     0.5138520    -1.6430550
  H       -0.0714200     1.3330110    -0.0949940
  H        3.0182560     1.3061200     1.8081990
  H        3.0814560     2.0379150     0.2067330
  H        1.5342700     1.8877430     1.0433380
  H        5.0646870     0.6170420    -0.0694620
  H        4.4484560    -0.1949880    -1.5176090
  H        5.5583810    -1.0408350    -0.4253590
  H       -3.3536290    -1.7820470    -0.0715700
  H       -3.1585900    -0.9983310     1.4781360
  H       -4.8922970     0.7333770     0.8287030
  H       -5.0879650    -0.0561110    -0.7346540
  H       -5.5642940    -0.9066400     0.7478690
units angstrom
no_reorient  #important for SAPT in psi4, default
symmetry c1  #important for SAPT in psi4, default
}

set PROPERTIES_ORIGIN ["COM"]
properties('MP2/aug-cc-pvtz', properties = ['dipole'])
--------------------------------------------------------------------------

    Molecular point group: c1
  Charge       = 0
  Multiplicity = 1
  Basis Set: AUG-CC-PVTZ
    Blend: AUG-CC-PVTZ
  Basis Set: (AUG-CC-PVTZ AUX)
    Blend: AUG-CC-PVTZ-JKFIT

    Orbital Energies [Eh]
    ---------------------

    Doubly Occupied:

       1A    -20.596843     2A    -20.540744     3A    -11.375515
       4A    -11.286180     5A    -11.247773     6A    -11.242489
       7A    -11.229013     8A    -11.226486     9A    -11.224367
      10A    -11.219492    11A    -11.218105    12A     -1.446932
      13A     -1.347371    14A     -1.110308    15A     -1.063158
      16A     -1.022830    17A     -0.977811    18A     -0.918626
      19A     -0.879748    20A     -0.831816    21A     -0.767134
      22A     -0.723338    23A     -0.688113    24A     -0.679449
      25A     -0.659945    26A     -0.637963    27A     -0.624145
      28A     -0.604221    29A     -0.589806    30A     -0.571682
      31A     -0.553935    32A     -0.545595    33A     -0.533955
      34A     -0.522019    35A     -0.517663    36A     -0.513612
      37A     -0.512467    38A     -0.492196    39A     -0.484527
      40A     -0.468496    41A     -0.457237    42A     -0.444084
      43A     -0.341438

  @DF-RHF Final Energy:  -500.03685630272486

   => Energetics <=

    Nuclear Repulsion Energy =            602.4155235221994644
    One-Electron Energy =               -1875.0275014277933678
    Two-Electron Energy =                 772.5751216028689896
    Total Energy =                       -500.0368563027249138
  Basis Set: (AUG-CC-PVTZ AUX)
    Blend: AUG-CC-PVTZ-RI
    Molecular point group: c1

    Geometry (in Angstrom), charge = 0, multiplicity = 1:

       Center              X                  Y                   Z               Mass
    ------------   -----------------  -----------------  -----------------  -----------------
         O           -1.085549245920    -0.459089231737    -0.011123702697    15.994914619570
         O           -2.525907245920     1.170329768263    -0.672680702697    15.994914619570
         C            2.369007754080     0.013796768263     0.260264297303    12.000000000000
         C            3.577780754080    -0.885119231737     0.336277297303    12.000000000000
         C            1.232659054080    -0.424810431737    -0.360195502697    12.000000000000
         C           -0.009178245920     0.349362768263    -0.564313702697    12.000000000000
         C            2.540619754080     1.381431768263     0.868723297303    12.000000000000
         C            4.774620754080    -0.345409231737    -0.453667702697    12.000000000000
         C           -3.373113245920    -0.817102231737     0.446827297303    12.000000000000
         C           -2.319387245920     0.088992768263    -0.144330702697    12.000000000000
         C           -4.772718245920    -0.231053231737     0.326023297303    12.000000000000
         H            3.313684754080    -1.881008231737    -0.036667702697     1.007825032230
         H            3.867786754080    -1.006761231737     1.388923297303     1.007825032230
         H            1.237103754080    -1.428718231737    -0.759514702697     1.007825032230
         H           -0.214977245920     0.508955768263    -1.628990702697     1.007825032230
         H           -0.015869245920     1.328114768263    -0.080929702697     1.007825032230
         H            3.073806754080     1.301223768263     1.822263297303     1.007825032230
         H            3.137006754080     2.033018768263     0.220797297303     1.007825032230
         H            1.589820754080     1.882846768263     1.057402297303     1.007825032230
         H            5.120237754080     0.612145768263    -0.055397702697     1.007825032230
         H            4.504006754080    -0.199884231737    -1.503544702697     1.007825032230
         H            5.613931754080    -1.045731231737    -0.411294702697     1.007825032230
         H           -3.298078245920    -1.786943231737    -0.057505702697     1.007825032230
         H           -3.103039245920    -1.003227231737     1.492200297303     1.007825032230
         H           -4.836746245920     0.728480768263     0.842767297303     1.007825032230
         H           -5.032414245920    -0.061007231737    -0.720589702697     1.007825032230
         H           -5.508743245920    -0.911536231737     0.761933297303     1.007825032230

  Basis Set: AUG-CC-PVTZ
    Blend: AUG-CC-PVTZ
  Basis Set: (AUG-CC-PVTZ AUX)
    Blend: AUG-CC-PVTZ-JKFIT
	 Reference Energy          =    -500.0368563027248570 [Eh]
	 Singles Energy            =      -0.0000000000000000 [Eh]
	 Same-Spin Energy          =      -0.5100268002646116 [Eh]
	 Opposite-Spin Energy      =      -1.7175065714894411 [Eh]
	 Correlation Energy        =      -2.2275333717540526 [Eh]
	 Total Energy              =    -502.2643896744789345 [Eh]

	 ================> DF-SCS-MP2 Energies <==================
	-----------------------------------------------------------
	 SCS Same-Spin Scale       =       0.3333333333333333 [-]
	 SCS Opposite-Spin Scale   =       1.2000000000000000 [-]
	 SCS Same-Spin Energy      =      -0.1700089334215372 [Eh]
	 SCS Opposite-Spin Energy  =      -2.0610078857873293 [Eh]
	 SCS Correlation Energy    =      -2.2310168192088664 [Eh]
	 SCS Total Energy          =    -502.2678731219337465 [Eh]
	-----------------------------------------------------------

  Dipole Moment: [D]
     X:     1.4526      Y:    -1.1997      Z:     0.7977     Total:     2.0459

*** Psi4 exiting successfully. Buy a developer a beer!
