                               Psi4 1.3.2 release

  ==> Input File <==

--------------------------------------------------------------------------
#psi4
#
memory 32 gb

molecule  {
0 1
  O        1.1011759     0.5305177     0.0472412
  O        2.5934561    -1.0969479    -0.7011140
  C       -2.3693550    -0.0883010     0.2982860
  C       -3.5980660     0.7810210     0.4066790
  C       -1.2626340     0.3942960    -0.2965320
  C        0.0082920    -0.3313460    -0.5624280
  C       -2.5132090    -1.4745150     0.8629900
  C       -4.7090750     0.3554230    -0.5595870
  C        3.3545870     0.8742710     0.4380940
  C        2.3120420    -0.0450080    -0.1482500
  C        4.7580620     0.3036620     0.3135630
  H       -3.3290990     1.8240090     0.2046860
  H       -3.9789780     0.7461160     1.4360390
  H       -1.2730680     1.4248330    -0.6509560
  H        0.2030610    -0.4353830    -1.6357720
  H        0.0474490    -1.3311670    -0.1253770
  H       -2.7951440    -1.4155820     1.9226690
  H       -3.3106690    -2.0257820     0.3507100
  H       -1.6004590    -2.0681310     0.7873000
  H       -5.0436390    -0.6667330    -0.3605950
  H       -4.3535760     0.4008270    -1.5926810
  H       -5.5777020     1.0147490    -0.4669260
  H        3.2685340     1.8407540    -0.0713220
  H        3.0874670     1.0628020     1.4826470
  H        4.8339620    -0.6514900     0.8358700
  H        5.0104170     0.1293290    -0.7342450
  H        5.4905370     0.9935700     0.7404870
units angstrom
no_reorient  #important for SAPT in psi4, default
symmetry c1  #important for SAPT in psi4, default
}

set PROPERTIES_ORIGIN ["COM"]
properties('MP2/aug-cc-pvtz', properties = ['dipole'])
--------------------------------------------------------------------------

    Molecular point group: c1
  Charge       = 0
  Multiplicity = 1
  Basis Set: AUG-CC-PVTZ
    Blend: AUG-CC-PVTZ
  Basis Set: (AUG-CC-PVTZ AUX)
    Blend: AUG-CC-PVTZ-JKFIT

    Orbital Energies [Eh]
    ---------------------

    Doubly Occupied:

       1A    -20.603309     2A    -20.542060     3A    -11.373555
       4A    -11.296022     5A    -11.247852     6A    -11.233331
       7A    -11.230676     8A    -11.229229     9A    -11.226872
      10A    -11.221128    11A    -11.212135    12A     -1.438374
      13A     -1.348246    14A     -1.115541    15A     -1.057308
      16A     -1.022984    17A     -0.979117    18A     -0.917991
      19A     -0.877562    20A     -0.834389    21A     -0.764692
      22A     -0.721732    23A     -0.683236    24A     -0.676719
      25A     -0.657999    26A     -0.638752    27A     -0.624666
      28A     -0.601427    29A     -0.587879    30A     -0.574699
      31A     -0.556306    32A     -0.549184    33A     -0.536641
      34A     -0.520607    35A     -0.515358    36A     -0.514175
      37A     -0.509224    38A     -0.488525    39A     -0.486021
      40A     -0.469205    41A     -0.463496    42A     -0.439947
      43A     -0.348898

  @DF-RHF Final Energy:  -500.02989421904670

   => Energetics <=

    Nuclear Repulsion Energy =            601.6070969605140135
    One-Electron Energy =               -1873.3998456613348935
    Two-Electron Energy =                 771.7628544817742977
    Total Energy =                       -500.0298942190466960
  Basis Set: (AUG-CC-PVTZ AUX)
    Blend: AUG-CC-PVTZ-RI
    Molecular point group: c1

    Geometry (in Angstrom), charge = 0, multiplicity = 1:

       Center              X                  Y                   Z               Mass
    ------------   -----------------  -----------------  -----------------  -----------------
         O            1.091764839480     0.523962606402     0.042665834707    15.994914619570
         O            2.584045039480    -1.103502993598    -0.705689365293    15.994914619570
         C           -2.378766060520    -0.094856093598     0.293710634707    12.000000000000
         C           -3.607477060520     0.774465906402     0.402103634707    12.000000000000
         C           -1.272045060520     0.387740906402    -0.301107365293    12.000000000000
         C           -0.001119060520    -0.337901093598    -0.567003365293    12.000000000000
         C           -2.522620060520    -1.481070093598     0.858414634707    12.000000000000
         C           -4.718486060520     0.348867906402    -0.564162365293    12.000000000000
         C            3.345175939480     0.867715906402     0.433518634707    12.000000000000
         C            2.302630939480    -0.051563093598    -0.152825365293    12.000000000000
         C            4.748650939480     0.297106906402     0.308987634707    12.000000000000
         H           -3.338510060520     1.817453906402     0.200110634707     1.007825032230
         H           -3.988389060520     0.739560906402     1.431463634707     1.007825032230
         H           -1.282479060520     1.418277906402    -0.655531365293     1.007825032230
         H            0.193649939480    -0.441938093598    -1.640347365293     1.007825032230
         H            0.038037939480    -1.337722093598    -0.129952365293     1.007825032230
         H           -2.804555060520    -1.422137093598     1.918093634707     1.007825032230
         H           -3.320080060520    -2.032337093598     0.346134634707     1.007825032230
         H           -1.609870060520    -2.074686093598     0.782724634707     1.007825032230
         H           -5.053050060520    -0.673288093598    -0.365170365293     1.007825032230
         H           -4.362987060520     0.394271906402    -1.597256365293     1.007825032230
         H           -5.587113060520     1.008193906402    -0.471501365293     1.007825032230
         H            3.259122939480     1.834198906402    -0.075897365293     1.007825032230
         H            3.078055939480     1.056246906402     1.478071634707     1.007825032230
         H            4.824550939480    -0.658045093598     0.831294634707     1.007825032230
         H            5.001005939480     0.122773906402    -0.738820365293     1.007825032230
         H            5.481125939480     0.987014906402     0.735911634707     1.007825032230

  Basis Set: AUG-CC-PVTZ
    Blend: AUG-CC-PVTZ
  Basis Set: (AUG-CC-PVTZ AUX)
    Blend: AUG-CC-PVTZ-JKFIT
	 Reference Energy          =    -500.0298942190466960 [Eh]
	 Singles Energy            =      -0.0000000000000000 [Eh]
	 Same-Spin Energy          =      -0.5105654728731299 [Eh]
	 Opposite-Spin Energy      =      -1.7193530676604003 [Eh]
	 Correlation Energy        =      -2.2299185405335304 [Eh]
	 Total Energy              =    -502.2598127595801998 [Eh]

	 ================> DF-SCS-MP2 Energies <==================
	-----------------------------------------------------------
	 SCS Same-Spin Scale       =       0.3333333333333333 [-]
	 SCS Opposite-Spin Scale   =       1.2000000000000000 [-]
	 SCS Same-Spin Energy      =      -0.1701884909577100 [Eh]
	 SCS Opposite-Spin Energy  =      -2.0632236811924805 [Eh]
	 SCS Correlation Energy    =      -2.2334121721501905 [Eh]
	 SCS Total Energy          =    -502.2633063911968634 [Eh]
	-----------------------------------------------------------

  Dipole Moment: [D]
     X:    -1.9551      Y:     1.0002      Z:     0.7039     Total:     2.3062

*** Psi4 exiting successfully. Buy a developer a beer!
