                               Psi4 1.3.2 release

  ==> Input File <==

--------------------------------------------------------------------------
#psi4
#
memory 32 gb

molecule  {
0 1
  O        1.0716460     0.4753830     0.0137820
  O        2.5311320    -1.1057930    -0.7123110
  C       -2.3693550    -0.0883010     0.2982860
  C       -3.5980660     0.7810210     0.4066790
  C       -1.2416446     0.3529101    -0.2892016
  C        0.0082920    -0.3313460    -0.5624280
  C       -2.4639006    -1.4846831     0.8481514
  C       -4.7090750     0.3554230    -0.5595870
  C        3.3545870     0.8742710     0.4380940
  C        2.3120420    -0.0450080    -0.1482500
  C        4.7580620     0.3036620     0.3135630
  H       -3.3290990     1.8240090     0.2046860
  H       -3.9789780     0.7461160     1.4360390
  H       -1.2730680     1.4248330    -0.6509560
  H        0.2030610    -0.4353830    -1.6357720
  H        0.0474490    -1.3311670    -0.1253770
  H       -2.7951440    -1.4155820     1.9226690
  H       -3.3106690    -2.0257820     0.3507100
  H       -1.6004590    -2.0681310     0.7873000
  H       -5.0436390    -0.6667330    -0.3605950
  H       -4.3535760     0.4008270    -1.5926810
  H       -5.5777020     1.0147490    -0.4669260
  H        3.2685340     1.8407540    -0.0713220
  H        3.0874670     1.0628020     1.4826470
  H        4.8339620    -0.6514900     0.8358700
  H        5.0104170     0.1293290    -0.7342450
  H        5.4905370     0.9935700     0.7404870
units angstrom
no_reorient  #important for SAPT in psi4, default
symmetry c1  #important for SAPT in psi4, default
}

set PROPERTIES_ORIGIN ["COM"]
properties('MP2/aug-cc-pvtz', properties = ['dipole'])
--------------------------------------------------------------------------

    Molecular point group: c1
  Charge       = 0
  Multiplicity = 1
  Basis Set: AUG-CC-PVTZ
    Blend: AUG-CC-PVTZ
  Basis Set: (AUG-CC-PVTZ AUX)
    Blend: AUG-CC-PVTZ-JKFIT

    Orbital Energies [Eh]
    ---------------------

    Doubly Occupied:

       1A    -20.597855     2A    -20.541027     3A    -11.375904
       4A    -11.285558     5A    -11.245376     6A    -11.242378
       7A    -11.231361     8A    -11.226008     9A    -11.223449
      10A    -11.220341    11A    -11.217998    12A     -1.448728
      13A     -1.348141    14A     -1.114313    15A     -1.064641
      16A     -1.026357    17A     -0.979975    18A     -0.917358
      19A     -0.880988    20A     -0.834386    21A     -0.768107
      22A     -0.721260    23A     -0.687399    24A     -0.683060
      25A     -0.660696    26A     -0.640004    27A     -0.626217
      28A     -0.604560    29A     -0.587133    30A     -0.572131
      31A     -0.554657    32A     -0.545774    33A     -0.535843
      34A     -0.521508    35A     -0.516839    36A     -0.513041
      37A     -0.506393    38A     -0.492230    39A     -0.485672
      40A     -0.469264    41A     -0.457690    42A     -0.444662
      43A     -0.344300

  @DF-RHF Final Energy:  -500.03177103373582

   => Energetics <=

    Nuclear Repulsion Energy =            603.6992360264956687
    One-Electron Energy =               -1877.5408506197861698
    Two-Electron Energy =                 773.8098435595547926
    Total Energy =                       -500.0317710337358221
  Basis Set: (AUG-CC-PVTZ AUX)
    Blend: AUG-CC-PVTZ-RI
    Molecular point group: c1

    Geometry (in Angstrom), charge = 0, multiplicity = 1:

       Center              X                  Y                   Z               Mass
    ------------   -----------------  -----------------  -----------------  -----------------
         O            1.066242390194     0.479345788255     0.014359056658    15.994914619570
         O            2.525728390194    -1.101830211745    -0.711733943342    15.994914619570
         C           -2.374758609806    -0.084338211745     0.298863056658    12.000000000000
         C           -3.603469609806     0.784983788255     0.407256056658    12.000000000000
         C           -1.247048209806     0.356872888255    -0.288624543342    12.000000000000
         C            0.002888390194    -0.327383211745    -0.561850943342    12.000000000000
         C           -2.469304209806    -1.480720311745     0.848728456658    12.000000000000
         C           -4.714478609806     0.359385788255    -0.559009943342    12.000000000000
         C            3.349183390194     0.878233788255     0.438671056658    12.000000000000
         C            2.306638390194    -0.041045211745    -0.147672943342    12.000000000000
         C            4.752658390194     0.307624788255     0.314140056658    12.000000000000
         H           -3.334502609806     1.827971788255     0.205263056658     1.007825032230
         H           -3.984381609806     0.750078788255     1.436616056658     1.007825032230
         H           -1.278471609806     1.428795788255    -0.650378943342     1.007825032230
         H            0.197657390194    -0.431420211745    -1.635194943342     1.007825032230
         H            0.042045390194    -1.327204211745    -0.124799943342     1.007825032230
         H           -2.800547609806    -1.411619211745     1.923246056658     1.007825032230
         H           -3.316072609806    -2.021819211745     0.351287056658     1.007825032230
         H           -1.605862609806    -2.064168211745     0.787877056658     1.007825032230
         H           -5.049042609806    -0.662770211745    -0.360017943342     1.007825032230
         H           -4.358979609806     0.404789788255    -1.592103943342     1.007825032230
         H           -5.583105609806     1.018711788255    -0.466348943342     1.007825032230
         H            3.263130390194     1.844716788255    -0.070744943342     1.007825032230
         H            3.082063390194     1.066764788255     1.483224056658     1.007825032230
         H            4.828558390194    -0.647527211745     0.836447056658     1.007825032230
         H            5.005013390194     0.133291788255    -0.733667943342     1.007825032230
         H            5.485133390194     0.997532788255     0.741064056658     1.007825032230

  Basis Set: AUG-CC-PVTZ
    Blend: AUG-CC-PVTZ
  Basis Set: (AUG-CC-PVTZ AUX)
    Blend: AUG-CC-PVTZ-JKFIT
	 Reference Energy          =    -500.0317710337358221 [Eh]
	 Singles Energy            =      -0.0000000000000000 [Eh]
	 Same-Spin Energy          =      -0.5102858808119161 [Eh]
	 Opposite-Spin Energy      =      -1.7174539337051473 [Eh]
	 Correlation Energy        =      -2.2277398145170633 [Eh]
	 Total Energy              =    -502.2595108482528872 [Eh]

	 ================> DF-SCS-MP2 Energies <==================
	-----------------------------------------------------------
	 SCS Same-Spin Scale       =       0.3333333333333333 [-]
	 SCS Opposite-Spin Scale   =       1.2000000000000000 [-]
	 SCS Same-Spin Energy      =      -0.1700952936039720 [Eh]
	 SCS Opposite-Spin Energy  =      -2.0609447204461766 [Eh]
	 SCS Correlation Energy    =      -2.2310400140501487 [Eh]
	 SCS Total Energy          =    -502.2628110477859877 [Eh]
	-----------------------------------------------------------

  Dipole Moment: [D]
     X:    -1.4696      Y:     1.1816      Z:     0.8262     Total:     2.0587

*** Psi4 exiting successfully. Buy a developer a beer!
