                               Psi4 1.4a3.dev225

  ==> Input File <==

--------------------------------------------------------------------------
#psi4
#
memory 32 gb

molecule  {
0 1
  O       -1.1411000    -0.4541930    -0.0251880
  O       -2.5814580     1.1752260    -0.6867450
  C        2.3134570     0.0186930     0.2462000
  C        3.5222300    -0.8802230     0.3222130
  C        1.2352982    -0.3974541    -0.3424875
  C       -0.0647290     0.3542590    -0.5783780
  C        2.4850690     1.3863280     0.8546590
  C        4.7190700    -0.3405130    -0.4677320
  C       -3.4286640    -0.8122060     0.4327630
  C       -2.3749380     0.0938890    -0.1583950
  C       -4.8282690    -0.2261570     0.3119590
  H        3.2581340    -1.8761120    -0.0507320
  H        3.8122360    -1.0018650     1.3748590
  H        1.1815530    -1.4238220    -0.7735790
  H       -0.2705280     0.5138520    -1.6430550
  H       -0.0714200     1.3330110    -0.0949940
  H        3.0182560     1.3061200     1.8081990
  H        3.0814560     2.0379150     0.2067330
  H        1.5342700     1.8877430     1.0433380
  H        5.0646870     0.6170420    -0.0694620
  H        4.4484560    -0.1949880    -1.5176090
  H        5.5583810    -1.0408350    -0.4253590
  H       -3.3536290    -1.7820470    -0.0715700
  H       -3.1585900    -0.9983310     1.4781360
  H       -4.8922970     0.7333770     0.8287030
  H       -5.0879650    -0.0561110    -0.7346540
  H       -5.5642940    -0.9066400     0.7478690
units angstrom
no_reorient  #important for SAPT in psi4, default
symmetry c1  #important for SAPT in psi4, default
}

set PROPERTIES_ORIGIN ["COM"]
properties('MP2/aug-cc-pvtz', properties = ['dipole'])
--------------------------------------------------------------------------

    Molecular point group: c1
  Charge       = 0
  Multiplicity = 1
  Basis Set: AUG-CC-PVTZ
    Blend: AUG-CC-PVTZ
  Basis Set: (AUG-CC-PVTZ AUX)
    Blend: AUG-CC-PVTZ-JKFIT

    Orbital Energies [Eh]
    ---------------------

    Doubly Occupied:

       1A    -20.598094     2A    -20.541130     3A    -11.376273
       4A    -11.288565     5A    -11.242933     6A    -11.236131
       7A    -11.227740     8A    -11.225510     9A    -11.221246
      10A    -11.218894    11A    -11.218411    12A     -1.447198
      13A     -1.347505    14A     -1.117792    15A     -1.062821
      16A     -1.020039    17A     -0.974852    18A     -0.924956
      19A     -0.879314    20A     -0.835144    21A     -0.766179
      22A     -0.719988    23A     -0.687000    24A     -0.679071
      25A     -0.659136    26A     -0.638772    27A     -0.623926
      28A     -0.605756    29A     -0.588781    30A     -0.572375
      31A     -0.553567    32A     -0.546051    33A     -0.532205
      34A     -0.522048    35A     -0.517644    36A     -0.514974
      37A     -0.510847    38A     -0.492530    39A     -0.484468
      40A     -0.459577    41A     -0.454855    42A     -0.444724
      43A     -0.358119

  @DF-RHF Final Energy:  -500.03692858454656

   => Energetics <=

    Nuclear Repulsion Energy =            602.7716336233247603
    One-Electron Energy =               -1875.7428462400293938
    Two-Electron Energy =                 772.9342840321580752
    Total Energy =                       -500.0369285845465583
  Basis Set: (AUG-CC-PVTZ AUX)
    Blend: AUG-CC-PVTZ-RI
    Molecular point group: c1

    Geometry (in Angstrom), charge = 0, multiplicity = 1:

       Center              X                  Y                   Z               Mass
    ------------   -----------------  -----------------  -----------------  -----------------
         O           -1.090022093929    -0.460815658722    -0.013565924952    15.994914619570
         O           -2.530380093929     1.168603341278    -0.675122924952    15.994914619570
         C            2.364534906071     0.012070341278     0.257822075048    12.000000000000
         C            3.573307906071    -0.886845658722     0.333835075048    12.000000000000
         C            1.286376106071    -0.404076758722    -0.330865424952    12.000000000000
         C           -0.013651093929     0.347636341278    -0.566755924952    12.000000000000
         C            2.536146906071     1.379705341278     0.866281075048    12.000000000000
         C            4.770147906071    -0.347135658722    -0.456109924952    12.000000000000
         C           -3.377586093929    -0.818828658722     0.444385075048    12.000000000000
         C           -2.323860093929     0.087266341278    -0.146772924952    12.000000000000
         C           -4.777191093929    -0.232779658722     0.323581075048    12.000000000000
         H            3.309211906071    -1.882734658722    -0.039109924952     1.007825032230
         H            3.863313906071    -1.008487658722     1.386481075048     1.007825032230
         H            1.232630906071    -1.430444658722    -0.761956924952     1.007825032230
         H           -0.219450093929     0.507229341278    -1.631432924952     1.007825032230
         H           -0.020342093929     1.326388341278    -0.083371924952     1.007825032230
         H            3.069333906071     1.299497341278     1.819821075048     1.007825032230
         H            3.132533906071     2.031292341278     0.218355075048     1.007825032230
         H            1.585347906071     1.881120341278     1.054960075048     1.007825032230
         H            5.115764906071     0.610419341278    -0.057839924952     1.007825032230
         H            4.499533906071    -0.201610658722    -1.505986924952     1.007825032230
         H            5.609458906071    -1.047457658722    -0.413736924952     1.007825032230
         H           -3.302551093929    -1.788669658722    -0.059947924952     1.007825032230
         H           -3.107512093929    -1.004953658722     1.489758075048     1.007825032230
         H           -4.841219093929     0.726754341278     0.840325075048     1.007825032230
         H           -5.036887093929    -0.062733658722    -0.723031924952     1.007825032230
         H           -5.513216093929    -0.913262658722     0.759491075048     1.007825032230

  Basis Set: AUG-CC-PVTZ
    Blend: AUG-CC-PVTZ
  Basis Set: (AUG-CC-PVTZ AUX)
    Blend: AUG-CC-PVTZ-JKFIT
	 Reference Energy          =    -500.0369285845465583 [Eh]
	 Singles Energy            =      -0.0000000000000000 [Eh]
	 Same-Spin Energy          =      -0.5090415249412010 [Eh]
	 Opposite-Spin Energy      =      -1.7157899048990914 [Eh]
	 Correlation Energy        =      -2.2248314298402923 [Eh]
	 Total Energy              =    -502.2617600143868231 [Eh]

	 ================> DF-SCS-MP2 Energies <==================
	-----------------------------------------------------------
	 SCS Same-Spin Scale       =       0.3333333333333333 [-]
	 SCS Opposite-Spin Scale   =       1.2000000000000000 [-]
	 SCS Same-Spin Energy      =      -0.1696805083137337 [Eh]
	 SCS Opposite-Spin Energy  =      -2.0589478858789096 [Eh]
	 SCS Correlation Energy    =      -2.2286283941926435 [Eh]
	 SCS Total Energy          =    -502.2655569787391983 [Eh]
	-----------------------------------------------------------

  Dipole Moment: [D]
     X:     1.4175      Y:    -1.1957      Z:     0.7998     Total:     2.0196

*** Psi4 exiting successfully. Buy a developer a beer!
