                               Psi4 1.3.2 release

  ==> Input File <==

--------------------------------------------------------------------------
#psi4
#
memory 32 gb

molecule  {
0 1
  O        1.0716460     0.4753830     0.0137820
  O        2.5311320    -1.1057930    -0.7123110
  C       -2.4062450    -0.1298487     0.2421205
  C       -3.5980660     0.7810210     0.4066790
  C       -1.2626340     0.3942960    -0.2965320
  C        0.0082920    -0.3313460    -0.5624280
  C       -2.5132090    -1.4745150     0.8629900
  C       -4.6610381     0.2966467    -0.5855994
  C        3.3545870     0.8742710     0.4380940
  C        2.3120420    -0.0450080    -0.1482500
  C        4.7580620     0.3036620     0.3135630
  H       -3.3290990     1.8240090     0.2046860
  H       -3.9789780     0.7461160     1.4360390
  H       -1.2730680     1.4248330    -0.6509560
  H        0.2030610    -0.4353830    -1.6357720
  H        0.0474490    -1.3311670    -0.1253770
  H       -2.7951440    -1.4155820     1.9226690
  H       -3.3106690    -2.0257820     0.3507100
  H       -1.6004590    -2.0681310     0.7873000
  H       -5.0436390    -0.6667330    -0.3605950
  H       -4.3535760     0.4008270    -1.5926810
  H       -5.5777020     1.0147490    -0.4669260
  H        3.2685340     1.8407540    -0.0713220
  H        3.0874670     1.0628020     1.4826470
  H        4.8339620    -0.6514900     0.8358700
  H        5.0104170     0.1293290    -0.7342450
  H        5.4905370     0.9935700     0.7404870
units angstrom
no_reorient  #important for SAPT in psi4, default
symmetry c1  #important for SAPT in psi4, default
}

set PROPERTIES_ORIGIN ["COM"]
properties('MP2/aug-cc-pvtz', properties = ['dipole'])
--------------------------------------------------------------------------

    Molecular point group: c1
  Charge       = 0
  Multiplicity = 1
  Basis Set: AUG-CC-PVTZ
    Blend: AUG-CC-PVTZ
  Basis Set: (AUG-CC-PVTZ AUX)
    Blend: AUG-CC-PVTZ-JKFIT

    Orbital Energies [Eh]
    ---------------------

    Doubly Occupied:

       1A    -20.596960     2A    -20.540485     3A    -11.375269
       4A    -11.285614     5A    -11.245953     6A    -11.242053
       7A    -11.229641     8A    -11.226524     9A    -11.225109
      10A    -11.219499    11A    -11.217761    12A     -1.447761
      13A     -1.347278    14A     -1.113174    15A     -1.064047
      16A     -1.021490    17A     -0.980192    18A     -0.917266
      19A     -0.878269    20A     -0.832063    21A     -0.767072
      22A     -0.724119    23A     -0.688009    24A     -0.680529
      25A     -0.659930    26A     -0.639587    27A     -0.627504
      28A     -0.603875    29A     -0.588467    30A     -0.578467
      31A     -0.554712    32A     -0.537159    33A     -0.533358
      34A     -0.522635    35A     -0.520062    36A     -0.517398
      37A     -0.508902    38A     -0.493212    39A     -0.491409
      40A     -0.458281    41A     -0.455785    42A     -0.443538
      43A     -0.338844

  @DF-RHF Final Energy:  -500.02648761465656

   => Energetics <=

    Nuclear Repulsion Energy =            603.4890376200038418
    One-Electron Energy =               -1877.1525249852675188
    Two-Electron Energy =                 773.6369997506072878
    Total Energy =                       -500.0264876146565030
  Basis Set: (AUG-CC-PVTZ AUX)
    Blend: AUG-CC-PVTZ-RI
    Molecular point group: c1

    Geometry (in Angstrom), charge = 0, multiplicity = 1:

       Center              X                  Y                   Z               Mass
    ------------   -----------------  -----------------  -----------------  -----------------
         O            1.070789106812     0.483094562482     0.020098647532    15.994914619570
         O            2.530275106812    -1.098081437518    -0.705994352468    15.994914619570
         C           -2.407101893188    -0.122137137518     0.248437147532    12.000000000000
         C           -3.598922893188     0.788732562482     0.412995647532    12.000000000000
         C           -1.263490893188     0.402007562482    -0.290215352468    12.000000000000
         C            0.007435106812    -0.323634437518    -0.556111352468    12.000000000000
         C           -2.514065893188    -1.466803437518     0.869306647532    12.000000000000
         C           -4.661894993188     0.304358262482    -0.579282752468    12.000000000000
         C            3.353730106812     0.881982562482     0.444410647532    12.000000000000
         C            2.311185106812    -0.037296437518    -0.141933352468    12.000000000000
         C            4.757205106812     0.311373562482     0.319879647532    12.000000000000
         H           -3.329955893188     1.831720562482     0.211002647532     1.007825032230
         H           -3.979834893188     0.753827562482     1.442355647532     1.007825032230
         H           -1.273924893188     1.432544562482    -0.644639352468     1.007825032230
         H            0.202204106812    -0.427671437518    -1.629455352468     1.007825032230
         H            0.046592106812    -1.323455437518    -0.119060352468     1.007825032230
         H           -2.796000893188    -1.407870437518     1.928985647532     1.007825032230
         H           -3.311525893188    -2.018070437518     0.357026647532     1.007825032230
         H           -1.601315893188    -2.060419437518     0.793616647532     1.007825032230
         H           -5.044495893188    -0.659021437518    -0.354278352468     1.007825032230
         H           -4.354432893188     0.408538562482    -1.586364352468     1.007825032230
         H           -5.578558893188     1.022460562482    -0.460609352468     1.007825032230
         H            3.267677106812     1.848465562482    -0.065005352468     1.007825032230
         H            3.086610106812     1.070513562482     1.488963647532     1.007825032230
         H            4.833105106812    -0.643778437518     0.842186647532     1.007825032230
         H            5.009560106812     0.137040562482    -0.727928352468     1.007825032230
         H            5.489680106812     1.001281562482     0.746803647532     1.007825032230

  Basis Set: AUG-CC-PVTZ
    Blend: AUG-CC-PVTZ
  Basis Set: (AUG-CC-PVTZ AUX)
    Blend: AUG-CC-PVTZ-JKFIT
	 Reference Energy          =    -500.0264876146565598 [Eh]
	 Singles Energy            =      -0.0000000000000000 [Eh]
	 Same-Spin Energy          =      -0.5105834728033832 [Eh]
	 Opposite-Spin Energy      =      -1.7184793935300380 [Eh]
	 Correlation Energy        =      -2.2290628663334213 [Eh]
	 Total Energy              =    -502.2555504809899958 [Eh]

	 ================> DF-SCS-MP2 Energies <==================
	-----------------------------------------------------------
	 SCS Same-Spin Scale       =       0.3333333333333333 [-]
	 SCS Opposite-Spin Scale   =       1.2000000000000000 [-]
	 SCS Same-Spin Energy      =      -0.1701944909344611 [Eh]
	 SCS Opposite-Spin Energy  =      -2.0621752722360456 [Eh]
	 SCS Correlation Energy    =      -2.2323697631705066 [Eh]
	 SCS Total Energy          =    -502.2588573778270415 [Eh]
	-----------------------------------------------------------

  Dipole Moment: [D]
     X:    -1.4274      Y:     1.1715      Z:     0.9060     Total:     2.0569

*** Psi4 exiting successfully. Buy a developer a beer!
