                               Psi4 1.3.2 release

  ==> Input File <==

--------------------------------------------------------------------------
#psi4
#
memory 32 gb

molecule  {
0 1
  O        1.0543624     0.4923276     0.0213954
  O        2.5311320    -1.1057930    -0.7123110
  C       -2.3693550    -0.0883010     0.2982860
  C       -3.5980660     0.7810210     0.4066790
  C       -1.2491958     0.4129489    -0.2844723
  C        0.0082920    -0.3313460    -0.5624280
  C       -2.5132090    -1.4745150     0.8629900
  C       -4.7090750     0.3554230    -0.5595870
  C        3.3545870     0.8742710     0.4380940
  C        2.3120420    -0.0450080    -0.1482500
  C        4.7580620     0.3036620     0.3135630
  H       -3.3290990     1.8240090     0.2046860
  H       -3.9789780     0.7461160     1.4360390
  H       -1.2730680     1.4248330    -0.6509560
  H        0.2030610    -0.4353830    -1.6357720
  H        0.0474490    -1.3311670    -0.1253770
  H       -2.7951440    -1.4155820     1.9226690
  H       -3.3106690    -2.0257820     0.3507100
  H       -1.6004590    -2.0681310     0.7873000
  H       -5.0436390    -0.6667330    -0.3605950
  H       -4.3535760     0.4008270    -1.5926810
  H       -5.5777020     1.0147490    -0.4669260
  H        3.2685340     1.8407540    -0.0713220
  H        3.0874670     1.0628020     1.4826470
  H        4.8339620    -0.6514900     0.8358700
  H        5.0104170     0.1293290    -0.7342450
  H        5.4905370     0.9935700     0.7404870
units angstrom
no_reorient  #important for SAPT in psi4, default
symmetry c1  #important for SAPT in psi4, default
}

set PROPERTIES_ORIGIN ["COM"]
properties('MP2/aug-cc-pvtz', properties = ['dipole'])
--------------------------------------------------------------------------

    Molecular point group: c1
  Charge       = 0
  Multiplicity = 1
  Basis Set: AUG-CC-PVTZ
    Blend: AUG-CC-PVTZ
  Basis Set: (AUG-CC-PVTZ AUX)
    Blend: AUG-CC-PVTZ-JKFIT

    Orbital Energies [Eh]
    ---------------------

    Doubly Occupied:

       1A    -20.596342     2A    -20.545490     3A    -11.378539
       4A    -11.284879     5A    -11.244693     6A    -11.243159
       7A    -11.227499     8A    -11.226054     9A    -11.222405
      10A    -11.218678    11A    -11.218574    12A     -1.441626
      13A     -1.348895    14A     -1.109698    15A     -1.064114
      16A     -1.020010    17A     -0.976556    18A     -0.917338
      19A     -0.879160    20A     -0.831612    21A     -0.766350
      22A     -0.722566    23A     -0.687737    24A     -0.677711
      25A     -0.658848    26A     -0.637920    27A     -0.622789
      28A     -0.604471    29A     -0.587768    30A     -0.573044
      31A     -0.552263    32A     -0.543993    33A     -0.533811
      34A     -0.522811    35A     -0.519036    36A     -0.514988
      37A     -0.512405    38A     -0.492924    39A     -0.482741
      40A     -0.466137    41A     -0.458524    42A     -0.445495
      43A     -0.341932

  @DF-RHF Final Energy:  -500.03474326713678

   => Energetics <=

    Nuclear Repulsion Energy =            602.5630392187389361
    One-Electron Energy =               -1875.3523968444415004
    Two-Electron Energy =                 772.7546143585656182
    Total Energy =                       -500.0347432671368324
  Basis Set: (AUG-CC-PVTZ AUX)
    Blend: AUG-CC-PVTZ-RI
    Molecular point group: c1

    Geometry (in Angstrom), charge = 0, multiplicity = 1:

       Center              X                  Y                   Z               Mass
    ------------   -----------------  -----------------  -----------------  -----------------
         O            1.055100190595     0.489157761550     0.019688304495    15.994914619570
         O            2.531869790595    -1.108962838450    -0.714018095505    15.994914619570
         C           -2.368617209405    -0.091470838450     0.296578904495    12.000000000000
         C           -3.597328209405     0.777851161550     0.404971904495    12.000000000000
         C           -1.248458009405     0.409779061550    -0.286179395505    12.000000000000
         C            0.009029790595    -0.334515838450    -0.564135095505    12.000000000000
         C           -2.512471209405    -1.477684838450     0.861282904495    12.000000000000
         C           -4.708337209405     0.352253161550    -0.561294095505    12.000000000000
         C            3.355324790595     0.871101161550     0.436386904495    12.000000000000
         C            2.312779790595    -0.048177838450    -0.149957095505    12.000000000000
         C            4.758799790595     0.300492161550     0.311855904495    12.000000000000
         H           -3.328361209405     1.820839161550     0.202978904495     1.007825032230
         H           -3.978240209405     0.742946161550     1.434331904495     1.007825032230
         H           -1.272330209405     1.421663161550    -0.652663095505     1.007825032230
         H            0.203798790595    -0.438552838450    -1.637479095505     1.007825032230
         H            0.048186790595    -1.334336838450    -0.127084095505     1.007825032230
         H           -2.794406209405    -1.418751838450     1.920961904495     1.007825032230
         H           -3.309931209405    -2.028951838450     0.349002904495     1.007825032230
         H           -1.599721209405    -2.071300838450     0.785592904495     1.007825032230
         H           -5.042901209405    -0.669902838450    -0.362302095505     1.007825032230
         H           -4.352838209405     0.397657161550    -1.594388095505     1.007825032230
         H           -5.576964209405     1.011579161550    -0.468633095505     1.007825032230
         H            3.269271790595     1.837584161550    -0.073029095505     1.007825032230
         H            3.088204790595     1.059632161550     1.480939904495     1.007825032230
         H            4.834699790595    -0.654659838450     0.834162904495     1.007825032230
         H            5.011154790595     0.126159161550    -0.735952095505     1.007825032230
         H            5.491274790595     0.990400161550     0.738779904495     1.007825032230

  Basis Set: AUG-CC-PVTZ
    Blend: AUG-CC-PVTZ
  Basis Set: (AUG-CC-PVTZ AUX)
    Blend: AUG-CC-PVTZ-JKFIT
	 Reference Energy          =    -500.0347432671367756 [Eh]
	 Singles Energy            =      -0.0000000000000000 [Eh]
	 Same-Spin Energy          =      -0.5103196459840986 [Eh]
	 Opposite-Spin Energy      =      -1.7183168371044659 [Eh]
	 Correlation Energy        =      -2.2286364830885645 [Eh]
	 Total Energy              =    -502.2633797502253401 [Eh]

	 ================> DF-SCS-MP2 Energies <==================
	-----------------------------------------------------------
	 SCS Same-Spin Scale       =       0.3333333333333333 [-]
	 SCS Opposite-Spin Scale   =       1.2000000000000000 [-]
	 SCS Same-Spin Energy      =      -0.1701065486613662 [Eh]
	 SCS Opposite-Spin Energy  =      -2.0619802045253590 [Eh]
	 SCS Correlation Energy    =      -2.2320867531867252 [Eh]
	 SCS Total Energy          =    -502.2668300203234821 [Eh]
	-----------------------------------------------------------

  Dipole Moment: [D]
     X:    -1.2796      Y:     1.1204      Z:     0.7867     Total:     1.8739

*** Psi4 exiting successfully. Buy a developer a beer!
