                               Psi4 1.3.2 release

  ==> Input File <==

--------------------------------------------------------------------------
#psi4
#
memory 32 gb

molecule  {
0 1
  O        1.0716460     0.4753830     0.0137820
  O        2.5311320    -1.1057930    -0.7123110
  C       -2.3693550    -0.0883010     0.2982860
  C       -3.5980660     0.7810210     0.4066790
  C       -1.2626340     0.3942960    -0.2965320
  C        0.0082920    -0.3313460    -0.5624280
  C       -2.5132090    -1.4745150     0.8629900
  C       -4.7091620     0.3432549    -0.5540349
  C        3.3545870     0.8742710     0.4380940
  C        2.3120420    -0.0450080    -0.1482500
  C        4.7580620     0.3036620     0.3135630
  H       -3.3225858     1.8236398     0.2116789
  H       -3.9789780     0.7461160     1.4360390
  H       -1.2730680     1.4248330    -0.6509560
  H        0.2030610    -0.4353830    -1.6357720
  H        0.0474490    -1.3311670    -0.1253770
  H       -2.7951440    -1.4155820     1.9226690
  H       -3.3106690    -2.0257820     0.3507100
  H       -1.6004590    -2.0681310     0.7873000
  H       -5.0436390    -0.6667330    -0.3605950
  H       -4.3535760     0.4008270    -1.5926810
  H       -5.5777020     1.0147490    -0.4669260
  H        3.2685340     1.8407540    -0.0713220
  H        3.0874670     1.0628020     1.4826470
  H        4.8339620    -0.6514900     0.8358700
  H        5.0104170     0.1293290    -0.7342450
  H        5.4905370     0.9935700     0.7404870
units angstrom
no_reorient  #important for SAPT in psi4, default
symmetry c1  #important for SAPT in psi4, default
}

set PROPERTIES_ORIGIN ["COM"]
properties('MP2/aug-cc-pvtz', properties = ['dipole'])
--------------------------------------------------------------------------

    Molecular point group: c1
  Charge       = 0
  Multiplicity = 1
  Basis Set: AUG-CC-PVTZ
    Blend: AUG-CC-PVTZ
  Basis Set: (AUG-CC-PVTZ AUX)
    Blend: AUG-CC-PVTZ-JKFIT

    Orbital Energies [Eh]
    ---------------------

    Doubly Occupied:

       1A    -20.597270     2A    -20.540733     3A    -11.375490
       4A    -11.286456     5A    -11.244123     6A    -11.242176
       7A    -11.228493     8A    -11.226409     9A    -11.223176
      10A    -11.219386    11A    -11.217853    12A     -1.448085
      13A     -1.347569    14A     -1.112566    15A     -1.063900
      16A     -1.021766    17A     -0.977813    18A     -0.919738
      19A     -0.879212    20A     -0.833681    21A     -0.767392
      22A     -0.722664    23A     -0.687812    24A     -0.680010
      25A     -0.660136    26A     -0.638728    27A     -0.623547
      28A     -0.605059    29A     -0.587804    30A     -0.574677
      31A     -0.553561    32A     -0.543758    33A     -0.533719
      34A     -0.522101    35A     -0.517542    36A     -0.514471
      37A     -0.512366    38A     -0.492296    39A     -0.484689
      40A     -0.464985    41A     -0.457260    42A     -0.444407
      43A     -0.346031

  @DF-RHF Final Energy:  -500.03815696689725

   => Energetics <=

    Nuclear Repulsion Energy =            603.1217849355231237
    One-Electron Energy =               -1876.4380642335240736
    Two-Electron Energy =                 773.2781223311037593
    Total Energy =                       -500.0381569668973043
  Basis Set: (AUG-CC-PVTZ AUX)
    Blend: AUG-CC-PVTZ-RI
    Molecular point group: c1

    Geometry (in Angstrom), charge = 0, multiplicity = 1:

       Center              X                  Y                   Z               Mass
    ------------   -----------------  -----------------  -----------------  -----------------
         O            1.071610569256     0.476320719421     0.013310014680    15.994914619570
         O            2.531096569256    -1.104855280579    -0.712782985320    15.994914619570
         C           -2.369390430744    -0.087363280579     0.297814014680    12.000000000000
         C           -3.598101430744     0.781958719421     0.406207014680    12.000000000000
         C           -1.262669430744     0.395233719421    -0.297003985320    12.000000000000
         C            0.008256569256    -0.330408280579    -0.562899985320    12.000000000000
         C           -2.513244430744    -1.473577280579     0.862518014680    12.000000000000
         C           -4.709197430744     0.344192619421    -0.554506885320    12.000000000000
         C            3.354551569256     0.875208719421     0.437622014680    12.000000000000
         C            2.312006569256    -0.044070280579    -0.148721985320    12.000000000000
         C            4.758026569256     0.304599719421     0.313091014680    12.000000000000
         H           -3.322621230744     1.824577519421     0.211206914680     1.007825032230
         H           -3.979013430744     0.747053719421     1.435567014680     1.007825032230
         H           -1.273103430744     1.425770719421    -0.651427985320     1.007825032230
         H            0.203025569256    -0.434445280579    -1.636243985320     1.007825032230
         H            0.047413569256    -1.330229280579    -0.125848985320     1.007825032230
         H           -2.795179430744    -1.414644280579     1.922197014680     1.007825032230
         H           -3.310704430744    -2.024844280579     0.350238014680     1.007825032230
         H           -1.600494430744    -2.067193280579     0.786828014680     1.007825032230
         H           -5.043674430744    -0.665795280579    -0.361066985320     1.007825032230
         H           -4.353611430744     0.401764719421    -1.593152985320     1.007825032230
         H           -5.577737430744     1.015686719421    -0.467397985320     1.007825032230
         H            3.268498569256     1.841691719421    -0.071793985320     1.007825032230
         H            3.087431569256     1.063739719421     1.482175014680     1.007825032230
         H            4.833926569256    -0.650552280579     0.835398014680     1.007825032230
         H            5.010381569256     0.130266719421    -0.734716985320     1.007825032230
         H            5.490501569256     0.994507719421     0.740015014680     1.007825032230

  Basis Set: AUG-CC-PVTZ
    Blend: AUG-CC-PVTZ
  Basis Set: (AUG-CC-PVTZ AUX)
    Blend: AUG-CC-PVTZ-JKFIT
	 Reference Energy          =    -500.0381569668972475 [Eh]
	 Singles Energy            =      -0.0000000000000000 [Eh]
	 Same-Spin Energy          =      -0.5097731755314148 [Eh]
	 Opposite-Spin Energy      =      -1.7168441759624899 [Eh]
	 Correlation Energy        =      -2.2266173514939047 [Eh]
	 Total Energy              =    -502.2647743183911757 [Eh]

	 ================> DF-SCS-MP2 Energies <==================
	-----------------------------------------------------------
	 SCS Same-Spin Scale       =       0.3333333333333333 [-]
	 SCS Opposite-Spin Scale   =       1.2000000000000000 [-]
	 SCS Same-Spin Energy      =      -0.1699243918438049 [Eh]
	 SCS Opposite-Spin Energy  =      -2.0602130111549877 [Eh]
	 SCS Correlation Energy    =      -2.2301374029987926 [Eh]
	 SCS Total Energy          =    -502.2682943698960116 [Eh]
	-----------------------------------------------------------

  Dipole Moment: [D]
     X:    -1.4509      Y:     1.1774      Z:     0.8360     Total:     2.0470

*** Psi4 exiting successfully. Buy a developer a beer!
