                               Psi4 1.4a3.dev225

  ==> Input File <==

--------------------------------------------------------------------------
#psi4
#
memory 32 gb

molecule  {
0 1
  O       -1.1411000    -0.4541930    -0.0251880
  O       -2.5814580     1.1752260    -0.6867450
  C        2.3134570     0.0186930     0.2462000
  C        3.5222300    -0.8802230     0.3222130
  C        1.1937340    -0.4134970    -0.3651820
  C       -0.1017075     0.3264848    -0.5593733
  C        2.4850690     1.3863280     0.8546590
  C        4.7190700    -0.3405130    -0.4677320
  C       -3.4286640    -0.8122060     0.4327630
  C       -2.3749380     0.0938890    -0.1583950
  C       -4.8282690    -0.2261570     0.3119590
  H        3.2581340    -1.8761120    -0.0507320
  H        3.8122360    -1.0018650     1.3748590
  H        1.1815530    -1.4238220    -0.7735790
  H       -0.2705280     0.5138520    -1.6430550
  H       -0.0714200     1.3330110    -0.0949940
  H        3.0182560     1.3061200     1.8081990
  H        3.0814560     2.0379150     0.2067330
  H        1.5342700     1.8877430     1.0433380
  H        5.0646870     0.6170420    -0.0694620
  H        4.4484560    -0.1949880    -1.5176090
  H        5.5583810    -1.0408350    -0.4253590
  H       -3.3536290    -1.7820470    -0.0715700
  H       -3.1585900    -0.9983310     1.4781360
  H       -4.8922970     0.7333770     0.8287030
  H       -5.0879650    -0.0561110    -0.7346540
  H       -5.5642940    -0.9066400     0.7478690
units angstrom
no_reorient  #important for SAPT in psi4, default
symmetry c1  #important for SAPT in psi4, default
}

set PROPERTIES_ORIGIN ["COM"]
properties('MP2/aug-cc-pvtz', properties = ['dipole'])
--------------------------------------------------------------------------

    Molecular point group: c1
  Charge       = 0
  Multiplicity = 1
  Basis Set: AUG-CC-PVTZ
    Blend: AUG-CC-PVTZ
  Basis Set: (AUG-CC-PVTZ AUX)
    Blend: AUG-CC-PVTZ-JKFIT

    Orbital Energies [Eh]
    ---------------------

    Doubly Occupied:

       1A    -20.602939     2A    -20.544581     3A    -11.379451
       4A    -11.286560     5A    -11.244963     6A    -11.242686
       7A    -11.227487     8A    -11.224651     9A    -11.222640
      10A    -11.219869    11A    -11.218123    12A     -1.459793
      13A     -1.355595    14A     -1.109638    15A     -1.065994
      16A     -1.019357    17A     -0.976320    18A     -0.921841
      19A     -0.879251    20A     -0.831920    21A     -0.773112
      22A     -0.722677    23A     -0.692432    24A     -0.683326
      25A     -0.664797    26A     -0.637946    27A     -0.622526
      28A     -0.606842    29A     -0.590677    30A     -0.571563
      31A     -0.552325    32A     -0.543721    33A     -0.530312
      34A     -0.525181    35A     -0.520421    36A     -0.512993
      37A     -0.510814    38A     -0.492905    39A     -0.483114
      40A     -0.462911    41A     -0.455330    42A     -0.447385
      43A     -0.344309

  @DF-RHF Final Energy:  -500.03725833225189

   => Energetics <=

    Nuclear Repulsion Energy =            603.0572971883939317
    One-Electron Energy =               -1876.2265528061957411
    Two-Electron Energy =                 773.1319972855499145
    Total Energy =                       -500.0372583322518949
  Basis Set: (AUG-CC-PVTZ AUX)
    Blend: AUG-CC-PVTZ-RI
    Molecular point group: c1

    Geometry (in Angstrom), charge = 0, multiplicity = 1:

       Center              X                  Y                   Z               Mass
    ------------   -----------------  -----------------  -----------------  -----------------
         O           -1.083984799496    -0.457447596077    -0.013282303317    15.994914619570
         O           -2.524342799496     1.171971403923    -0.674839303317    15.994914619570
         C            2.370572200504     0.015438403923     0.258105696683    12.000000000000
         C            3.579345200504    -0.883477596077     0.334118696683    12.000000000000
         C            1.250849200504    -0.416751596077    -0.353276303317    12.000000000000
         C           -0.044592299496     0.323230203923    -0.547467603317    12.000000000000
         C            2.542184200504     1.383073403923     0.866564696683    12.000000000000
         C            4.776185200504    -0.343767596077    -0.455826303317    12.000000000000
         C           -3.371548799496    -0.815460596077     0.444668696683    12.000000000000
         C           -2.317822799496     0.090634403923    -0.146489303317    12.000000000000
         C           -4.771153799496    -0.229411596077     0.323864696683    12.000000000000
         H            3.315249200504    -1.879366596077    -0.038826303317     1.007825032230
         H            3.869351200504    -1.005119596077     1.386764696683     1.007825032230
         H            1.238668200504    -1.427076596077    -0.761673303317     1.007825032230
         H           -0.213412799496     0.510597403923    -1.631149303317     1.007825032230
         H           -0.014304799496     1.329756403923    -0.083088303317     1.007825032230
         H            3.075371200504     1.302865403923     1.820104696683     1.007825032230
         H            3.138571200504     2.034660403923     0.218638696683     1.007825032230
         H            1.591385200504     1.884488403923     1.055243696683     1.007825032230
         H            5.121802200504     0.613787403923    -0.057556303317     1.007825032230
         H            4.505571200504    -0.198242596077    -1.505703303317     1.007825032230
         H            5.615496200504    -1.044089596077    -0.413453303317     1.007825032230
         H           -3.296513799496    -1.785301596077    -0.059664303317     1.007825032230
         H           -3.101474799496    -1.001585596077     1.490041696683     1.007825032230
         H           -4.835181799496     0.730122403923     0.840608696683     1.007825032230
         H           -5.030849799496    -0.059365596077    -0.722748303317     1.007825032230
         H           -5.507178799496    -0.909894596077     0.759774696683     1.007825032230

  Basis Set: AUG-CC-PVTZ
    Blend: AUG-CC-PVTZ
  Basis Set: (AUG-CC-PVTZ AUX)
    Blend: AUG-CC-PVTZ-JKFIT
	 Reference Energy          =    -500.0372583322518949 [Eh]
	 Singles Energy            =      -0.0000000000000000 [Eh]
	 Same-Spin Energy          =      -0.5096017130119069 [Eh]
	 Opposite-Spin Energy      =      -1.7164525769942633 [Eh]
	 Correlation Energy        =      -2.2260542900061702 [Eh]
	 Total Energy              =    -502.2633126222580700 [Eh]

	 ================> DF-SCS-MP2 Energies <==================
	-----------------------------------------------------------
	 SCS Same-Spin Scale       =       0.3333333333333333 [-]
	 SCS Opposite-Spin Scale   =       1.2000000000000000 [-]
	 SCS Same-Spin Energy      =      -0.1698672376706356 [Eh]
	 SCS Opposite-Spin Energy  =      -2.0597430923931159 [Eh]
	 SCS Correlation Energy    =      -2.2296103300637515 [Eh]
	 SCS Total Energy          =    -502.2668686623156304 [Eh]
	-----------------------------------------------------------

  Dipole Moment: [D]
     X:     1.1880      Y:    -1.2539      Z:     0.8474     Total:     1.9240

*** Psi4 exiting successfully. Buy a developer a beer!
