                               Psi4 1.3.2 release

  ==> Input File <==

--------------------------------------------------------------------------
#psi4
#
memory 32 gb

molecule  {
0 1
  O        1.0716460     0.4753830     0.0137820
  O        2.5311320    -1.1057930    -0.7123110
  C       -2.3586791    -0.1090697     0.3008353
  C       -3.5980660     0.7810210     0.4066790
  C       -1.2626340     0.3942960    -0.2965320
  C       -0.0018262    -0.3526085    -0.5514973
  C       -2.5132090    -1.4745150     0.8629900
  C       -4.7090750     0.3554230    -0.5595870
  C        3.3545870     0.8742710     0.4380940
  C        2.3120420    -0.0450080    -0.1482500
  C        4.7580620     0.3036620     0.3135630
  H       -3.3290990     1.8240090     0.2046860
  H       -3.9789780     0.7461160     1.4360390
  H       -1.2730680     1.4248330    -0.6509560
  H        0.2030610    -0.4353830    -1.6357720
  H        0.0474490    -1.3311670    -0.1253770
  H       -2.7951440    -1.4155820     1.9226690
  H       -3.3106690    -2.0257820     0.3507100
  H       -1.6004590    -2.0681310     0.7873000
  H       -5.0436390    -0.6667330    -0.3605950
  H       -4.3535760     0.4008270    -1.5926810
  H       -5.5777020     1.0147490    -0.4669260
  H        3.2685340     1.8407540    -0.0713220
  H        3.0874670     1.0628020     1.4826470
  H        4.8339620    -0.6514900     0.8358700
  H        5.0104170     0.1293290    -0.7342450
  H        5.4905370     0.9935700     0.7404870
units angstrom
no_reorient  #important for SAPT in psi4, default
symmetry c1  #important for SAPT in psi4, default
}

set PROPERTIES_ORIGIN ["COM"]
properties('MP2/aug-cc-pvtz', properties = ['dipole'])
--------------------------------------------------------------------------

    Molecular point group: c1
  Charge       = 0
  Multiplicity = 1
  Basis Set: AUG-CC-PVTZ
    Blend: AUG-CC-PVTZ
  Basis Set: (AUG-CC-PVTZ AUX)
    Blend: AUG-CC-PVTZ-JKFIT

    Orbital Energies [Eh]
    ---------------------

    Doubly Occupied:

       1A    -20.595457     2A    -20.539591     3A    -11.374240
       4A    -11.286108     5A    -11.244268     6A    -11.241418
       7A    -11.229152     8A    -11.226695     9A    -11.224039
      10A    -11.218921    11A    -11.217325    12A     -1.444633
      13A     -1.345057    14A     -1.112867    15A     -1.062783
      16A     -1.021509    17A     -0.980489    18A     -0.919162
      19A     -0.878057    20A     -0.832298    21A     -0.766161
      22A     -0.723197    23A     -0.686365    24A     -0.679062
      25A     -0.658315    26A     -0.638425    27A     -0.622508
      28A     -0.605249    29A     -0.588323    30A     -0.574918
      31A     -0.554962    32A     -0.544250    33A     -0.534269
      34A     -0.522893    35A     -0.518289    36A     -0.513778
      37A     -0.512851    38A     -0.492128    39A     -0.484590
      40A     -0.462783    41A     -0.457407    42A     -0.443388
      43A     -0.346135

  @DF-RHF Final Energy:  -500.03682249377908

   => Energetics <=

    Nuclear Repulsion Energy =            602.9799365621331617
    One-Electron Energy =               -1876.1848915082291569
    Two-Electron Energy =                 773.1681324523168541
    Total Energy =                       -500.0368224937791410
  Basis Set: (AUG-CC-PVTZ AUX)
    Blend: AUG-CC-PVTZ-RI
    Molecular point group: c1

    Geometry (in Angstrom), charge = 0, multiplicity = 1:

       Center              X                  Y                   Z               Mass
    ------------   -----------------  -----------------  -----------------  -----------------
         O            1.071603060473     0.478613804921     0.012745769325    15.994914619570
         O            2.531089060473    -1.102562195079    -0.713347230675    15.994914619570
         C           -2.358722039527    -0.105838895079     0.299799069325    12.000000000000
         C           -3.598108939527     0.784251804921     0.405642769325    12.000000000000
         C           -1.262676939527     0.397526804921    -0.297568230675    12.000000000000
         C           -0.001869139527    -0.349377695079    -0.552533530675    12.000000000000
         C           -2.513251939527    -1.471284195079     0.861953769325    12.000000000000
         C           -4.709117939527     0.358653804921    -0.560623230675    12.000000000000
         C            3.354544060473     0.877501804921     0.437057769325    12.000000000000
         C            2.311999060473    -0.041777195079    -0.149286230675    12.000000000000
         C            4.758019060473     0.306892804921     0.312526769325    12.000000000000
         H           -3.329141939527     1.827239804921     0.203649769325     1.007825032230
         H           -3.979020939527     0.749346804921     1.435002769325     1.007825032230
         H           -1.273110939527     1.428063804921    -0.651992230675     1.007825032230
         H            0.203018060473    -0.432152195079    -1.636808230675     1.007825032230
         H            0.047406060473    -1.327936195079    -0.126413230675     1.007825032230
         H           -2.795186939527    -1.412351195079     1.921632769325     1.007825032230
         H           -3.310711939527    -2.022551195079     0.349673769325     1.007825032230
         H           -1.600501939527    -2.064900195079     0.786263769325     1.007825032230
         H           -5.043681939527    -0.663502195079    -0.361631230675     1.007825032230
         H           -4.353618939527     0.404057804921    -1.593717230675     1.007825032230
         H           -5.577744939527     1.017979804921    -0.467962230675     1.007825032230
         H            3.268491060473     1.843984804921    -0.072358230675     1.007825032230
         H            3.087424060473     1.066032804921     1.481610769325     1.007825032230
         H            4.833919060473    -0.648259195079     0.834833769325     1.007825032230
         H            5.010374060473     0.132559804921    -0.735281230675     1.007825032230
         H            5.490494060473     0.996800804921     0.739450769325     1.007825032230

  Basis Set: AUG-CC-PVTZ
    Blend: AUG-CC-PVTZ
  Basis Set: (AUG-CC-PVTZ AUX)
    Blend: AUG-CC-PVTZ-JKFIT
	 Reference Energy          =    -500.0368224937790842 [Eh]
	 Singles Energy            =      -0.0000000000000000 [Eh]
	 Same-Spin Energy          =      -0.5098134575492570 [Eh]
	 Opposite-Spin Energy      =      -1.7170307806691585 [Eh]
	 Correlation Energy        =      -2.2268442382184155 [Eh]
	 Total Energy              =    -502.2636667319974890 [Eh]

	 ================> DF-SCS-MP2 Energies <==================
	-----------------------------------------------------------
	 SCS Same-Spin Scale       =       0.3333333333333333 [-]
	 SCS Opposite-Spin Scale   =       1.2000000000000000 [-]
	 SCS Same-Spin Energy      =      -0.1699378191830856 [Eh]
	 SCS Opposite-Spin Energy  =      -2.0604369368029900 [Eh]
	 SCS Correlation Energy    =      -2.2303747559860758 [Eh]
	 SCS Total Energy          =    -502.2671972497651609 [Eh]
	-----------------------------------------------------------

  Dipole Moment: [D]
     X:    -1.5066      Y:     1.1367      Z:     0.8500     Total:     2.0699

*** Psi4 exiting successfully. Buy a developer a beer!
