                               Psi4 1.3.2 release

  ==> Input File <==

--------------------------------------------------------------------------
#psi4
#
memory 32 gb

molecule  {
0 1
  O        1.0716460     0.4753830     0.0137820
  O        2.5311320    -1.1057930    -0.7123110
  C       -2.3693550    -0.0883010     0.2982860
  C       -3.5980660     0.7810210     0.4066790
  C       -1.2626340     0.3942960    -0.2965320
  C       -0.0648508    -0.3868368    -0.6020626
  C       -2.5132090    -1.4745150     0.8629900
  C       -4.7090750     0.3554230    -0.5595870
  C        3.3545870     0.8742710     0.4380940
  C        2.3120420    -0.0450080    -0.1482500
  C        4.7580620     0.3036620     0.3135630
  H       -3.3290990     1.8240090     0.2046860
  H       -3.9789780     0.7461160     1.4360390
  H       -1.2730680     1.4248330    -0.6509560
  H        0.2030610    -0.4353830    -1.6357720
  H        0.0474490    -1.3311670    -0.1253770
  H       -2.7951440    -1.4155820     1.9226690
  H       -3.3106690    -2.0257820     0.3507100
  H       -1.6004590    -2.0681310     0.7873000
  H       -5.0436390    -0.6667330    -0.3605950
  H       -4.3535760     0.4008270    -1.5926810
  H       -5.5777020     1.0147490    -0.4669260
  H        3.2685340     1.8407540    -0.0713220
  H        3.0874670     1.0628020     1.4826470
  H        4.8339620    -0.6514900     0.8358700
  H        5.0104170     0.1293290    -0.7342450
  H        5.4905370     0.9935700     0.7404870
units angstrom
no_reorient  #important for SAPT in psi4, default
symmetry c1  #important for SAPT in psi4, default
}

set PROPERTIES_ORIGIN ["COM"]
properties('MP2/aug-cc-pvtz', properties = ['dipole'])
--------------------------------------------------------------------------

    Molecular point group: c1
  Charge       = 0
  Multiplicity = 1
  Basis Set: AUG-CC-PVTZ
    Blend: AUG-CC-PVTZ
  Basis Set: (AUG-CC-PVTZ AUX)
    Blend: AUG-CC-PVTZ-JKFIT

    Orbital Energies [Eh]
    ---------------------

    Doubly Occupied:

       1A    -20.584279     2A    -20.533332     3A    -11.367796
       4A    -11.289675     5A    -11.248570     6A    -11.237258
       7A    -11.231010     8A    -11.229671     9A    -11.225771
      10A    -11.221826    11A    -11.214319    12A     -1.427579
      13A     -1.331037    14A     -1.118171    15A     -1.058485
      16A     -1.026944    17A     -0.980376    18A     -0.918255
      19A     -0.878597    20A     -0.836543    21A     -0.755741
      22A     -0.723260    23A     -0.679878    24A     -0.676651
      25A     -0.649078    26A     -0.637493    27A     -0.627997
      28A     -0.602560    29A     -0.590378    30A     -0.575113
      31A     -0.554192    32A     -0.545750    33A     -0.539107
      34A     -0.524106    35A     -0.516902    36A     -0.514902
      37A     -0.501144    38A     -0.489923    39A     -0.486564
      40A     -0.472277    41A     -0.453313    42A     -0.437577
      43A     -0.349262

  @DF-RHF Final Energy:  -500.02990148108813

   => Energetics <=

    Nuclear Repulsion Energy =            602.0472634116118797
    One-Electron Energy =               -1874.4290051470004528
    Two-Electron Energy =                 772.3518402543003276
    Total Energy =                       -500.0299014810881317
  Basis Set: (AUG-CC-PVTZ AUX)
    Blend: AUG-CC-PVTZ-RI
    Molecular point group: c1

    Geometry (in Angstrom), charge = 0, multiplicity = 1:

       Center              X                  Y                   Z               Mass
    ------------   -----------------  -----------------  -----------------  -----------------
         O            1.077268152433     0.479648395890     0.016828497304    15.994914619570
         O            2.536754152433    -1.101527604110    -0.709264502696    15.994914619570
         C           -2.363732847567    -0.084035604110     0.301332497304    12.000000000000
         C           -3.592443847567     0.785286395890     0.409725497304    12.000000000000
         C           -1.257011847567     0.398561395890    -0.293485502696    12.000000000000
         C           -0.059228647567    -0.382571404110    -0.599016102696    12.000000000000
         C           -2.507586847567    -1.470249604110     0.866036497304    12.000000000000
         C           -4.703452847567     0.359688395890    -0.556540502696    12.000000000000
         C            3.360209152433     0.878536395890     0.441140497304    12.000000000000
         C            2.317664152433    -0.040742604110    -0.145203502696    12.000000000000
         C            4.763684152433     0.307927395890     0.316609497304    12.000000000000
         H           -3.323476847567     1.828274395890     0.207732497304     1.007825032230
         H           -3.973355847567     0.750381395890     1.439085497304     1.007825032230
         H           -1.267445847567     1.429098395890    -0.647909502696     1.007825032230
         H            0.208683152433    -0.431117604110    -1.632725502696     1.007825032230
         H            0.053071152433    -1.326901604110    -0.122330502696     1.007825032230
         H           -2.789521847567    -1.411316604110     1.925715497304     1.007825032230
         H           -3.305046847567    -2.021516604110     0.353756497304     1.007825032230
         H           -1.594836847567    -2.063865604110     0.790346497304     1.007825032230
         H           -5.038016847567    -0.662467604110    -0.357548502696     1.007825032230
         H           -4.347953847567     0.405092395890    -1.589634502696     1.007825032230
         H           -5.572079847567     1.019014395890    -0.463879502696     1.007825032230
         H            3.274156152433     1.845019395890    -0.068275502696     1.007825032230
         H            3.093089152433     1.067067395890     1.485693497304     1.007825032230
         H            4.839584152433    -0.647224604110     0.838916497304     1.007825032230
         H            5.016039152433     0.133594395890    -0.731198502696     1.007825032230
         H            5.496159152433     0.997835395890     0.743533497304     1.007825032230

  Basis Set: AUG-CC-PVTZ
    Blend: AUG-CC-PVTZ
  Basis Set: (AUG-CC-PVTZ AUX)
    Blend: AUG-CC-PVTZ-JKFIT
	 Reference Energy          =    -500.0299014810881317 [Eh]
	 Singles Energy            =      -0.0000000000000000 [Eh]
	 Same-Spin Energy          =      -0.5103931319187803 [Eh]
	 Opposite-Spin Energy      =      -1.7184173258623052 [Eh]
	 Correlation Energy        =      -2.2288104577810857 [Eh]
	 Total Energy              =    -502.2587119388692258 [Eh]

	 ================> DF-SCS-MP2 Energies <==================
	-----------------------------------------------------------
	 SCS Same-Spin Scale       =       0.3333333333333333 [-]
	 SCS Opposite-Spin Scale   =       1.2000000000000000 [-]
	 SCS Same-Spin Energy      =      -0.1701310439729268 [Eh]
	 SCS Opposite-Spin Energy  =      -2.0621007910347662 [Eh]
	 SCS Correlation Energy    =      -2.2322318350076928 [Eh]
	 SCS Total Energy          =    -502.2621333160957988 [Eh]
	-----------------------------------------------------------

  Dipole Moment: [D]
     X:    -1.9546      Y:     1.0844      Z:     0.7472     Total:     2.3568

*** Psi4 exiting successfully. Buy a developer a beer!
