                               Psi4 1.4a3.dev225

  ==> Input File <==

--------------------------------------------------------------------------
#psi4
#
memory 32 gb

molecule  {
0 1
  O       -1.1411000    -0.4541930    -0.0251880
  O       -2.5814580     1.1752260    -0.6867450
  C        2.3134570     0.0186930     0.2462000
  C        3.5222300    -0.8802230     0.3222130
  C        1.1937340    -0.4134970    -0.3651820
  C       -0.0647290     0.3542590    -0.5783780
  C        2.4850690     1.3863280     0.8546590
  C        4.7190700    -0.3405130    -0.4677320
  C       -3.4286640    -0.8122060     0.4327630
  C       -2.3749380     0.0938890    -0.1583950
  C       -4.8282690    -0.2261570     0.3119590
  H        3.2581340    -1.8761120    -0.0507320
  H        3.8122360    -1.0018650     1.3748590
  H        1.1815530    -1.4238220    -0.7735790
  H       -0.2705280     0.5138520    -1.6430550
  H       -0.0714200     1.3330110    -0.0949940
  H        3.0182560     1.3061200     1.8081990
  H        3.0814560     2.0379150     0.2067330
  H        1.5342700     1.8877430     1.0433380
  H        5.0646870     0.6170420    -0.0694620
  H        4.4484560    -0.1949880    -1.5176090
  H        5.5583810    -1.0408350    -0.4253590
  H       -3.3536290    -1.7820470    -0.0715700
  H       -3.1536599    -1.0017286     1.4972187
  H       -4.8922970     0.7333770     0.8287030
  H       -5.0879650    -0.0561110    -0.7346540
  H       -5.5642940    -0.9066400     0.7478690
units angstrom
no_reorient  #important for SAPT in psi4, default
symmetry c1  #important for SAPT in psi4, default
}

set PROPERTIES_ORIGIN ["COM"]
properties('MP2/aug-cc-pvtz', properties = ['dipole'])
--------------------------------------------------------------------------

    Molecular point group: c1
  Charge       = 0
  Multiplicity = 1
  Basis Set: AUG-CC-PVTZ
    Blend: AUG-CC-PVTZ
  Basis Set: (AUG-CC-PVTZ AUX)
    Blend: AUG-CC-PVTZ-JKFIT

    Orbital Energies [Eh]
    ---------------------

    Doubly Occupied:

       1A    -20.597172     2A    -20.540972     3A    -11.375897
       4A    -11.286849     5A    -11.244953     6A    -11.244542
       7A    -11.228619     8A    -11.226171     9A    -11.223496
      10A    -11.219302    11A    -11.218377    12A     -1.447017
      13A     -1.347469    14A     -1.112136    15A     -1.062198
      16A     -1.021815    17A     -0.977008    18A     -0.920337
      19A     -0.879247    20A     -0.832548    21A     -0.766470
      22A     -0.722113    23A     -0.687599    24A     -0.679138
      25A     -0.659352    26A     -0.637472    27A     -0.624073
      28A     -0.603957    29A     -0.589365    30A     -0.571838
      31A     -0.553800    32A     -0.545699    33A     -0.533423
      34A     -0.521906    35A     -0.517287    36A     -0.513355
      37A     -0.512673    38A     -0.491097    39A     -0.484624
      40A     -0.465869    41A     -0.457168    42A     -0.444276
      43A     -0.346052

  @DF-RHF Final Energy:  -500.03795502723608

   => Energetics <=

    Nuclear Repulsion Energy =            602.4148239854974918
    One-Electron Energy =               -1875.0360977326852208
    Two-Electron Energy =                 772.5833187199517624
    Total Energy =                       -500.0379550272360802
  Basis Set: (AUG-CC-PVTZ AUX)
    Blend: AUG-CC-PVTZ-RI
    Molecular point group: c1

    Geometry (in Angstrom), charge = 0, multiplicity = 1:

       Center              X                  Y                   Z               Mass
    ------------   -----------------  -----------------  -----------------  -----------------
         O           -1.086859030625    -0.459560565047    -0.011944671843    15.994914619570
         O           -2.527217030625     1.169858434953    -0.673501671843    15.994914619570
         C            2.367697969375     0.013325434953     0.259443328157    12.000000000000
         C            3.576470969375    -0.885590565047     0.335456328157    12.000000000000
         C            1.247974969375    -0.418864565047    -0.351938671843    12.000000000000
         C           -0.010488030625     0.348891434953    -0.565134671843    12.000000000000
         C            2.539309969375     1.380960434953     0.867902328157    12.000000000000
         C            4.773310969375    -0.345880565047    -0.454488671843    12.000000000000
         C           -3.374423030625    -0.817573565047     0.446006328157    12.000000000000
         C           -2.320697030625     0.088521434953    -0.145151671843    12.000000000000
         C           -4.774028030625    -0.231524565047     0.325202328157    12.000000000000
         H            3.312374969375    -1.881479565047    -0.037488671843     1.007825032230
         H            3.866476969375    -1.007232565047     1.388102328157     1.007825032230
         H            1.235793969375    -1.429189565047    -0.760335671843     1.007825032230
         H           -0.216287030625     0.508484434953    -1.629811671843     1.007825032230
         H           -0.017179030625     1.327643434953    -0.081750671843     1.007825032230
         H            3.072496969375     1.300752434953     1.821442328157     1.007825032230
         H            3.135696969375     2.032547434953     0.219976328157     1.007825032230
         H            1.588510969375     1.882375434953     1.056581328157     1.007825032230
         H            5.118927969375     0.611674434953    -0.056218671843     1.007825032230
         H            4.502696969375    -0.200355565047    -1.504365671843     1.007825032230
         H            5.612621969375    -1.046202565047    -0.412115671843     1.007825032230
         H           -3.299388030625    -1.787414565047    -0.058326671843     1.007825032230
         H           -3.099418930625    -1.007096165047     1.510462028157     1.007825032230
         H           -4.838056030625     0.728009434953     0.841946328157     1.007825032230
         H           -5.033724030625    -0.061478565047    -0.721410671843     1.007825032230
         H           -5.510053030625    -0.912007565047     0.761112328157     1.007825032230

  Basis Set: AUG-CC-PVTZ
    Blend: AUG-CC-PVTZ
  Basis Set: (AUG-CC-PVTZ AUX)
    Blend: AUG-CC-PVTZ-JKFIT
	 Reference Energy          =    -500.0379550272360802 [Eh]
	 Singles Energy            =      -0.0000000000000000 [Eh]
	 Same-Spin Energy          =      -0.5097026209435243 [Eh]
	 Opposite-Spin Energy      =      -1.7170650942138539 [Eh]
	 Correlation Energy        =      -2.2267677151573784 [Eh]
	 Total Energy              =    -502.2647227423934737 [Eh]

	 ================> DF-SCS-MP2 Energies <==================
	-----------------------------------------------------------
	 SCS Same-Spin Scale       =       0.3333333333333333 [-]
	 SCS Opposite-Spin Scale   =       1.2000000000000000 [-]
	 SCS Same-Spin Energy      =      -0.1699008736478414 [Eh]
	 SCS Opposite-Spin Energy  =      -2.0604781130566248 [Eh]
	 SCS Correlation Energy    =      -2.2303789867044661 [Eh]
	 SCS Total Energy          =    -502.2683340139405459 [Eh]
	-----------------------------------------------------------

  Dipole Moment: [D]
     X:     1.4390      Y:    -1.1964      Z:     0.7927     Total:     2.0323

*** Psi4 exiting successfully. Buy a developer a beer!
