                               Psi4 1.3.2 release

  ==> Input File <==

--------------------------------------------------------------------------
#psi4
#
memory 32 gb

molecule  {
0 1
  O        1.0716460     0.4753830     0.0137820
  O        2.5311320    -1.1057930    -0.7123110
  C       -2.3693550    -0.0883010     0.2982860
  C       -3.5980660     0.7810210     0.4066790
  C       -1.3448610     0.3584401    -0.2523383
  C        0.0082920    -0.3313460    -0.5624280
  C       -2.5132090    -1.4745150     0.8629900
  C       -4.7090750     0.3554230    -0.5595870
  C        3.3545870     0.8742710     0.4380940
  C        2.3120420    -0.0450080    -0.1482500
  C        4.7580620     0.3036620     0.3135630
  H       -3.3290990     1.8240090     0.2046860
  H       -3.9789780     0.7461160     1.4360390
  H       -1.2730680     1.4248330    -0.6509560
  H        0.2030610    -0.4353830    -1.6357720
  H        0.0474490    -1.3311670    -0.1253770
  H       -2.7951440    -1.4155820     1.9226690
  H       -3.3106690    -2.0257820     0.3507100
  H       -1.6004590    -2.0681310     0.7873000
  H       -5.0436390    -0.6667330    -0.3605950
  H       -4.3535760     0.4008270    -1.5926810
  H       -5.5777020     1.0147490    -0.4669260
  H        3.2685340     1.8407540    -0.0713220
  H        3.0874670     1.0628020     1.4826470
  H        4.8339620    -0.6514900     0.8358700
  H        5.0104170     0.1293290    -0.7342450
  H        5.4905370     0.9935700     0.7404870
units angstrom
no_reorient  #important for SAPT in psi4, default
symmetry c1  #important for SAPT in psi4, default
}

set PROPERTIES_ORIGIN ["COM"]
properties('MP2/aug-cc-pvtz', properties = ['dipole'])
--------------------------------------------------------------------------

    Molecular point group: c1
  Charge       = 0
  Multiplicity = 1
  Basis Set: AUG-CC-PVTZ
    Blend: AUG-CC-PVTZ
  Basis Set: (AUG-CC-PVTZ AUX)
    Blend: AUG-CC-PVTZ-JKFIT

    Orbital Energies [Eh]
    ---------------------

    Doubly Occupied:

       1A    -20.599018     2A    -20.541267     3A    -11.376541
       4A    -11.289957     5A    -11.242787     6A    -11.227299
       7A    -11.226614     8A    -11.225190     9A    -11.218527
      10A    -11.218514    11A    -11.218274    12A     -1.448497
      13A     -1.347793    14A     -1.125359    15A     -1.063584
      16A     -1.018500    17A     -0.973411    18A     -0.929240
      19A     -0.878509    20A     -0.838165    21A     -0.766132
      22A     -0.717202    23A     -0.686091    24A     -0.679519
      25A     -0.659159    26A     -0.639618    27A     -0.623522
      28A     -0.607583    29A     -0.587537    30A     -0.575668
      31A     -0.552632    32A     -0.545553    33A     -0.531890
      34A     -0.521914    35A     -0.518609    36A     -0.516294
      37A     -0.509178    38A     -0.492778    39A     -0.483512
      40A     -0.458528    41A     -0.445423    42A     -0.444631
      43A     -0.370960

  @DF-RHF Final Energy:  -500.02580092577409

   => Energetics <=

    Nuclear Repulsion Energy =            603.6589447117158898
    One-Electron Energy =               -1877.4875342949694641
    Two-Electron Energy =                 773.8027886574795957
    Total Energy =                       -500.0258009257740923
  Basis Set: (AUG-CC-PVTZ AUX)
    Blend: AUG-CC-PVTZ-RI
    Molecular point group: c1

    Geometry (in Angstrom), charge = 0, multiplicity = 1:

       Center              X                  Y                   Z               Mass
    ------------   -----------------  -----------------  -----------------  -----------------
         O            1.077966422165     0.478139131854     0.010384917839    15.994914619570
         O            2.537452422165    -1.103036868146    -0.715708082161    15.994914619570
         C           -2.363034577835    -0.085544868146     0.294888917839    12.000000000000
         C           -3.591745577835     0.783777131854     0.403281917839    12.000000000000
         C           -1.338540577835     0.361196231854    -0.255735382161    12.000000000000
         C            0.014612422165    -0.328589868146    -0.565825082161    12.000000000000
         C           -2.506888577835    -1.471758868146     0.859592917839    12.000000000000
         C           -4.702754577835     0.358179131854    -0.562984082161    12.000000000000
         C            3.360907422165     0.877027131854     0.434696917839    12.000000000000
         C            2.318362422165    -0.042251868146    -0.151647082161    12.000000000000
         C            4.764382422165     0.306418131854     0.310165917839    12.000000000000
         H           -3.322778577835     1.826765131854     0.201288917839     1.007825032230
         H           -3.972657577835     0.748872131854     1.432641917839     1.007825032230
         H           -1.266747577835     1.427589131854    -0.654353082161     1.007825032230
         H            0.209381422165    -0.432626868146    -1.639169082161     1.007825032230
         H            0.053769422165    -1.328410868146    -0.128774082161     1.007825032230
         H           -2.788823577835    -1.412825868146     1.919271917839     1.007825032230
         H           -3.304348577835    -2.023025868146     0.347312917839     1.007825032230
         H           -1.594138577835    -2.065374868146     0.783902917839     1.007825032230
         H           -5.037318577835    -0.663976868146    -0.363992082161     1.007825032230
         H           -4.347255577835     0.403583131854    -1.596078082161     1.007825032230
         H           -5.571381577835     1.017505131854    -0.470323082161     1.007825032230
         H            3.274854422165     1.843510131854    -0.074719082161     1.007825032230
         H            3.093787422165     1.065558131854     1.479249917839     1.007825032230
         H            4.840282422165    -0.648733868146     0.832472917839     1.007825032230
         H            5.016737422165     0.132085131854    -0.737642082161     1.007825032230
         H            5.496857422165     0.996326131854     0.737089917839     1.007825032230

  Basis Set: AUG-CC-PVTZ
    Blend: AUG-CC-PVTZ
  Basis Set: (AUG-CC-PVTZ AUX)
    Blend: AUG-CC-PVTZ-JKFIT
	 Reference Energy          =    -500.0258009257740923 [Eh]
	 Singles Energy            =      -0.0000000000000000 [Eh]
	 Same-Spin Energy          =      -0.5087060820246901 [Eh]
	 Opposite-Spin Energy      =      -1.7149312913582730 [Eh]
	 Correlation Energy        =      -2.2236373733829633 [Eh]
	 Total Energy              =    -502.2494382991570774 [Eh]

	 ================> DF-SCS-MP2 Energies <==================
	-----------------------------------------------------------
	 SCS Same-Spin Scale       =       0.3333333333333333 [-]
	 SCS Opposite-Spin Scale   =       1.2000000000000000 [-]
	 SCS Same-Spin Energy      =      -0.1695686940082300 [Eh]
	 SCS Opposite-Spin Energy  =      -2.0579175496299276 [Eh]
	 SCS Correlation Energy    =      -2.2274862436381575 [Eh]
	 SCS Total Energy          =    -502.2532871694122605 [Eh]
	-----------------------------------------------------------

  Dipole Moment: [D]
     X:    -1.3970      Y:     1.1700      Z:     0.8353     Total:     2.0046

*** Psi4 exiting successfully. Buy a developer a beer!
