                               Psi4 1.3.2 release

  ==> Input File <==

--------------------------------------------------------------------------
#psi4
#
memory 32 gb

molecule  {
0 1
  O        1.0716460     0.4753830     0.0137820
  O        2.5311320    -1.1057930    -0.7123110
  C       -2.3693550    -0.0883010     0.2982860
  C       -3.5980660     0.7810210     0.4066790
  C       -1.2626340     0.3942960    -0.2965320
  C        0.0611376    -0.3811962    -0.5851305
  C       -2.5132090    -1.4745150     0.8629900
  C       -4.7090750     0.3554230    -0.5595870
  C        3.3545870     0.8742710     0.4380940
  C        2.2826087    -0.0996260    -0.1826291
  C        4.7580620     0.3036620     0.3135630
  H       -3.3290990     1.8240090     0.2046860
  H       -3.9789780     0.7461160     1.4360390
  H       -1.2730680     1.4248330    -0.6509560
  H        0.2030610    -0.4353830    -1.6357720
  H        0.0474490    -1.3311670    -0.1253770
  H       -2.7951440    -1.4155820     1.9226690
  H       -3.3106690    -2.0257820     0.3507100
  H       -1.6004590    -2.0681310     0.7873000
  H       -5.0436390    -0.6667330    -0.3605950
  H       -4.3535760     0.4008270    -1.5926810
  H       -5.5777020     1.0147490    -0.4669260
  H        3.2685340     1.8407540    -0.0713220
  H        3.0874670     1.0628020     1.4826470
  H        4.8339620    -0.6514900     0.8358700
  H        5.0104170     0.1293290    -0.7342450
  H        5.4905370     0.9935700     0.7404870
units angstrom
no_reorient  #important for SAPT in psi4, default
symmetry c1  #important for SAPT in psi4, default
}

set PROPERTIES_ORIGIN ["COM"]
properties('MP2/aug-cc-pvtz', properties = ['dipole'])
--------------------------------------------------------------------------

    Molecular point group: c1
  Charge       = 0
  Multiplicity = 1
  Basis Set: AUG-CC-PVTZ
    Blend: AUG-CC-PVTZ
  Basis Set: (AUG-CC-PVTZ AUX)
    Blend: AUG-CC-PVTZ-JKFIT

    Orbital Energies [Eh]
    ---------------------

    Doubly Occupied:

       1A    -20.600129     2A    -20.550197     3A    -11.370394
       4A    -11.285485     5A    -11.240934     6A    -11.237621
       7A    -11.227018     8A    -11.225901     9A    -11.225848
      10A    -11.218208    11A    -11.214280    12A     -1.468431
      13A     -1.378737    14A     -1.107659    15A     -1.050317
      16A     -1.014664    17A     -0.974863    18A     -0.917245
      19A     -0.869231    20A     -0.833830    21A     -0.773314
      22A     -0.719454    23A     -0.693624    24A     -0.687238
      25A     -0.669883    26A     -0.636082    27A     -0.619204
      28A     -0.606581    29A     -0.587563    30A     -0.573970
      31A     -0.557965    32A     -0.547148    33A     -0.541151
      34A     -0.522007    35A     -0.517889    36A     -0.514706
      37A     -0.511133    38A     -0.493764    39A     -0.481838
      40A     -0.473128    41A     -0.459251    42A     -0.435858
      43A     -0.344502

  @DF-RHF Final Energy:  -500.02907939638516

   => Energetics <=

    Nuclear Repulsion Energy =            603.2126834037534309
    One-Electron Energy =               -1876.5270354315282475
    Two-Electron Energy =                 773.2852726313897165
    Total Energy =                       -500.0290793963852138
  Basis Set: (AUG-CC-PVTZ AUX)
    Blend: AUG-CC-PVTZ-RI
    Molecular point group: c1

    Geometry (in Angstrom), charge = 0, multiplicity = 1:

       Center              X                  Y                   Z               Mass
    ------------   -----------------  -----------------  -----------------  -----------------
         O            1.069846309695     0.483413112208     0.018169585349    15.994914619570
         O            2.529332309695    -1.097762887792    -0.707923414651    15.994914619570
         C           -2.371154690305    -0.080270887792     0.302673585349    12.000000000000
         C           -3.599865690305     0.789051112208     0.411066585349    12.000000000000
         C           -1.264433690305     0.402326112208    -0.292144414651    12.000000000000
         C            0.059337909695    -0.373166087792    -0.580742914651    12.000000000000
         C           -2.515008690305    -1.466484887792     0.867377585349    12.000000000000
         C           -4.710874690305     0.363453112208    -0.555199414651    12.000000000000
         C            3.352787309695     0.882301112208     0.442481585349    12.000000000000
         C            2.280809009695    -0.091595887792    -0.178241514651    12.000000000000
         C            4.756262309695     0.311692112208     0.317950585349    12.000000000000
         H           -3.330898690305     1.832039112208     0.209073585349     1.007825032230
         H           -3.980777690305     0.754146112208     1.440426585349     1.007825032230
         H           -1.274867690305     1.432863112208    -0.646568414651     1.007825032230
         H            0.201261309695    -0.427352887792    -1.631384414651     1.007825032230
         H            0.045649309695    -1.323136887792    -0.120989414651     1.007825032230
         H           -2.796943690305    -1.407551887792     1.927056585349     1.007825032230
         H           -3.312468690305    -2.017751887792     0.355097585349     1.007825032230
         H           -1.602258690305    -2.060100887792     0.791687585349     1.007825032230
         H           -5.045438690305    -0.658702887792    -0.356207414651     1.007825032230
         H           -4.355375690305     0.408857112208    -1.588293414651     1.007825032230
         H           -5.579501690305     1.022779112208    -0.462538414651     1.007825032230
         H            3.266734309695     1.848784112208    -0.066934414651     1.007825032230
         H            3.085667309695     1.070832112208     1.487034585349     1.007825032230
         H            4.832162309695    -0.643459887792     0.840257585349     1.007825032230
         H            5.008617309695     0.137359112208    -0.729857414651     1.007825032230
         H            5.488737309695     1.001600112208     0.744874585349     1.007825032230

  Basis Set: AUG-CC-PVTZ
    Blend: AUG-CC-PVTZ
  Basis Set: (AUG-CC-PVTZ AUX)
    Blend: AUG-CC-PVTZ-JKFIT
	 Reference Energy          =    -500.0290793963851570 [Eh]
	 Singles Energy            =      -0.0000000000000000 [Eh]
	 Same-Spin Energy          =      -0.5082485866954225 [Eh]
	 Opposite-Spin Energy      =      -1.7149018487206500 [Eh]
	 Correlation Energy        =      -2.2231504354160725 [Eh]
	 Total Energy              =    -502.2522298318012304 [Eh]

	 ================> DF-SCS-MP2 Energies <==================
	-----------------------------------------------------------
	 SCS Same-Spin Scale       =       0.3333333333333333 [-]
	 SCS Opposite-Spin Scale   =       1.2000000000000000 [-]
	 SCS Same-Spin Energy      =      -0.1694161955651408 [Eh]
	 SCS Opposite-Spin Energy  =      -2.0578822184647798 [Eh]
	 SCS Correlation Energy    =      -2.2272984140299208 [Eh]
	 SCS Total Energy          =    -502.2563778104150742 [Eh]
	-----------------------------------------------------------

  Dipole Moment: [D]
     X:    -1.4209      Y:     0.8268      Z:     0.5965     Total:     1.7488

*** Psi4 exiting successfully. Buy a developer a beer!
