                               Psi4 1.3.2 release

  ==> Input File <==

--------------------------------------------------------------------------
#psi4
#
memory 32 gb

molecule  {
0 1
  O        1.0716460     0.4753830     0.0137820
  O        2.5311320    -1.1057930    -0.7123110
  C       -2.3693550    -0.0883010     0.2982860
  C       -3.5980660     0.7810210     0.4066790
  C       -1.2626340     0.3942960    -0.2965320
  C        0.0082920    -0.3313460    -0.5624280
  C       -2.5132090    -1.4745150     0.8629900
  C       -4.7090750     0.3554230    -0.5595870
  C        3.3545870     0.8742710     0.4380940
  C        2.2995746    -0.0452822    -0.1250614
  C        4.7580620     0.3036620     0.3135630
  H       -3.3290990     1.8240090     0.2046860
  H       -3.9789780     0.7461160     1.4360390
  H       -1.2730680     1.4248330    -0.6509560
  H        0.2030610    -0.4353830    -1.6357720
  H        0.0474490    -1.3311670    -0.1253770
  H       -2.7951440    -1.4155820     1.9226690
  H       -3.3106690    -2.0257820     0.3507100
  H       -1.6004590    -2.0681310     0.7873000
  H       -5.0436390    -0.6667330    -0.3605950
  H       -4.3535760     0.4008270    -1.5926810
  H       -5.5777020     1.0147490    -0.4669260
  H        3.2685340     1.8407540    -0.0713220
  H        3.0721305     1.0516036     1.4805716
  H        4.8339620    -0.6514900     0.8358700
  H        5.0104170     0.1293290    -0.7342450
  H        5.4905370     0.9935700     0.7404870
units angstrom
no_reorient  #important for SAPT in psi4, default
symmetry c1  #important for SAPT in psi4, default
}

set PROPERTIES_ORIGIN ["COM"]
properties('MP2/aug-cc-pvtz', properties = ['dipole'])
--------------------------------------------------------------------------

    Molecular point group: c1
  Charge       = 0
  Multiplicity = 1
  Basis Set: AUG-CC-PVTZ
    Blend: AUG-CC-PVTZ
  Basis Set: (AUG-CC-PVTZ AUX)
    Blend: AUG-CC-PVTZ-JKFIT

    Orbital Energies [Eh]
    ---------------------

    Doubly Occupied:

       1A    -20.600731     2A    -20.537222     3A    -11.375637
       4A    -11.288133     5A    -11.245221     6A    -11.242037
       7A    -11.229038     8A    -11.227070     9A    -11.224129
      10A    -11.219702    11A    -11.217600    12A     -1.451082
      13A     -1.341382    14A     -1.113508    15A     -1.063861
      16A     -1.022964    17A     -0.979266    18A     -0.920958
      19A     -0.879732    20A     -0.834569    21A     -0.769687
      22A     -0.722856    23A     -0.686521    24A     -0.681609
      25A     -0.659583    26A     -0.639021    27A     -0.623798
      28A     -0.605975    29A     -0.587486    30A     -0.574956
      31A     -0.553329    32A     -0.545097    33A     -0.533336
      34A     -0.522993    35A     -0.516380    36A     -0.514566
      37A     -0.512268    38A     -0.491426    39A     -0.484453
      40A     -0.466221    41A     -0.455771    42A     -0.442408
      43A     -0.347092

  @DF-RHF Final Energy:  -500.03711169624347

   => Energetics <=

    Nuclear Repulsion Energy =            603.1543909790153748
    One-Electron Energy =               -1876.4816532849174564
    Two-Electron Energy =                 773.2901506096584399
    Total Energy =                       -500.0371116962435281
  Basis Set: (AUG-CC-PVTZ AUX)
    Blend: AUG-CC-PVTZ-RI
    Molecular point group: c1

    Geometry (in Angstrom), charge = 0, multiplicity = 1:

       Center              X                  Y                   Z               Mass
    ------------   -----------------  -----------------  -----------------  -----------------
         O            1.072703260171     0.475476387768     0.012012902284    15.994914619570
         O            2.532189260171    -1.105699612232    -0.714080097716    15.994914619570
         C           -2.368297739829    -0.088207612232     0.296516902284    12.000000000000
         C           -3.597008739829     0.781114387768     0.404909902284    12.000000000000
         C           -1.261576739829     0.394389387768    -0.298301097716    12.000000000000
         C            0.009349260171    -0.331252612232    -0.564197097716    12.000000000000
         C           -2.512151739829    -1.474421612232     0.861220902284    12.000000000000
         C           -4.708017739829     0.355516387768    -0.561356097716    12.000000000000
         C            3.355644260171     0.874364387768     0.436324902284    12.000000000000
         C            2.300631860171    -0.045188812232    -0.126830497716    12.000000000000
         C            4.759119260171     0.303755387768     0.311793902284    12.000000000000
         H           -3.328041739829     1.824102387768     0.202916902284     1.007825032230
         H           -3.977920739829     0.746209387768     1.434269902284     1.007825032230
         H           -1.272010739829     1.424926387768    -0.652725097716     1.007825032230
         H            0.204118260171    -0.435289612232    -1.637541097716     1.007825032230
         H            0.048506260171    -1.331073612232    -0.127146097716     1.007825032230
         H           -2.794086739829    -1.415488612232     1.920899902284     1.007825032230
         H           -3.309611739829    -2.025688612232     0.348940902284     1.007825032230
         H           -1.599401739829    -2.068037612232     0.785530902284     1.007825032230
         H           -5.042581739829    -0.666639612232    -0.362364097716     1.007825032230
         H           -4.352518739829     0.400920387768    -1.594450097716     1.007825032230
         H           -5.576644739829     1.014842387768    -0.468695097716     1.007825032230
         H            3.269591260171     1.840847387768    -0.073091097716     1.007825032230
         H            3.073187760171     1.051696987768     1.478802502284     1.007825032230
         H            4.835019260171    -0.651396612232     0.834100902284     1.007825032230
         H            5.011474260171     0.129422387768    -0.736014097716     1.007825032230
         H            5.491594260171     0.993663387768     0.738717902284     1.007825032230

  Basis Set: AUG-CC-PVTZ
    Blend: AUG-CC-PVTZ
  Basis Set: (AUG-CC-PVTZ AUX)
    Blend: AUG-CC-PVTZ-JKFIT
	 Reference Energy          =    -500.0371116962434712 [Eh]
	 Singles Energy            =      -0.0000000000000000 [Eh]
	 Same-Spin Energy          =      -0.5099063224840603 [Eh]
	 Opposite-Spin Energy      =      -1.7170735732737081 [Eh]
	 Correlation Energy        =      -2.2269798957577684 [Eh]
	 Total Energy              =    -502.2640915920012503 [Eh]

	 ================> DF-SCS-MP2 Energies <==================
	-----------------------------------------------------------
	 SCS Same-Spin Scale       =       0.3333333333333333 [-]
	 SCS Opposite-Spin Scale   =       1.2000000000000000 [-]
	 SCS Same-Spin Energy      =      -0.1699687741613534 [Eh]
	 SCS Opposite-Spin Energy  =      -2.0604882879284498 [Eh]
	 SCS Correlation Energy    =      -2.2304570620898034 [Eh]
	 SCS Total Energy          =    -502.2675687583332547 [Eh]
	-----------------------------------------------------------

  Dipole Moment: [D]
     X:    -1.5862      Y:     1.2270      Z:     0.8707     Total:     2.1862

*** Psi4 exiting successfully. Buy a developer a beer!
