                               Psi4 1.3.2 release

  ==> Input File <==

--------------------------------------------------------------------------
#psi4
#
memory 32 gb

molecule  {
0 1
  O        1.0716460     0.4753830     0.0137820
  O        2.5311320    -1.1057930    -0.7123110
  C       -2.3693550    -0.0883010     0.2982860
  C       -3.5980660     0.7810210     0.4066790
  C       -1.2626340     0.3942960    -0.2965320
  C        0.0937352    -0.3801303    -0.5803040
  C       -2.5132090    -1.4745150     0.8629900
  C       -4.7090750     0.3554230    -0.5595870
  C        3.3545870     0.8742710     0.4380940
  C        2.3120420    -0.0450080    -0.1482500
  C        4.7580620     0.3036620     0.3135630
  H       -3.3290990     1.8240090     0.2046860
  H       -3.9789780     0.7461160     1.4360390
  H       -1.2730680     1.4248330    -0.6509560
  H        0.2030610    -0.4353830    -1.6357720
  H        0.0474490    -1.3311670    -0.1253770
  H       -2.7951440    -1.4155820     1.9226690
  H       -3.3106690    -2.0257820     0.3507100
  H       -1.6004590    -2.0681310     0.7873000
  H       -5.0436390    -0.6667330    -0.3605950
  H       -4.3535760     0.4008270    -1.5926810
  H       -5.5777020     1.0147490    -0.4669260
  H        3.2685340     1.8407540    -0.0713220
  H        3.0874670     1.0628020     1.4826470
  H        4.8339620    -0.6514900     0.8358700
  H        5.0104170     0.1293290    -0.7342450
  H        5.4905370     0.9935700     0.7404870
units angstrom
no_reorient  #important for SAPT in psi4, default
symmetry c1  #important for SAPT in psi4, default
}

set PROPERTIES_ORIGIN ["COM"]
properties('MP2/aug-cc-pvtz', properties = ['dipole'])
--------------------------------------------------------------------------

    Molecular point group: c1
  Charge       = 0
  Multiplicity = 1
  Basis Set: AUG-CC-PVTZ
    Blend: AUG-CC-PVTZ
  Basis Set: (AUG-CC-PVTZ AUX)
    Blend: AUG-CC-PVTZ-JKFIT

    Orbital Energies [Eh]
    ---------------------

    Doubly Occupied:

       1A    -20.604508     2A    -20.544413     3A    -11.378022
       4A    -11.284976     5A    -11.243911     6A    -11.239026
       7A    -11.225893     8A    -11.225087     9A    -11.224407
      10A    -11.219292    11A    -11.217107    12A     -1.458895
      13A     -1.353710    14A     -1.105447    15A     -1.065741
      16A     -1.012977    17A     -0.974500    18A     -0.920041
      19A     -0.878612    20A     -0.834259    21A     -0.774431
      22A     -0.717762    23A     -0.692211    24A     -0.686447
      25A     -0.665864    26A     -0.637552    27A     -0.617660
      28A     -0.609518    29A     -0.585715    30A     -0.573438
      31A     -0.552132    32A     -0.540850    33A     -0.536151
      34A     -0.523943    35A     -0.520538    36A     -0.515445
      37A     -0.508924    38A     -0.495131    39A     -0.480054
      40A     -0.465271    41A     -0.453146    42A     -0.447097
      43A     -0.343409

  @DF-RHF Final Energy:  -500.02993565196732

   => Energetics <=

    Nuclear Repulsion Energy =            602.8469920343522972
    One-Electron Energy =               -1875.8468220456368272
    Two-Electron Energy =                 772.9698943593172089
    Total Energy =                       -500.0299356519673211
  Basis Set: (AUG-CC-PVTZ AUX)
    Blend: AUG-CC-PVTZ-RI
    Molecular point group: c1

    Geometry (in Angstrom), charge = 0, multiplicity = 1:

       Center              X                  Y                   Z               Mass
    ------------   -----------------  -----------------  -----------------  -----------------
         O            1.065078217851     0.479132891393     0.015155992098    15.994914619570
         O            2.524564217851    -1.102043108607    -0.710937007902    15.994914619570
         C           -2.375922782149    -0.084551108607     0.299659992098    12.000000000000
         C           -3.604633782149     0.784770891393     0.408052992098    12.000000000000
         C           -1.269201782149     0.398045891393    -0.295158007902    12.000000000000
         C            0.087167417851    -0.376380408607    -0.578930007902    12.000000000000
         C           -2.519776782149    -1.470765108607     0.864363992098    12.000000000000
         C           -4.715642782149     0.359172891393    -0.558213007902    12.000000000000
         C            3.348019217851     0.878020891393     0.439467992098    12.000000000000
         C            2.305474217851    -0.041258108607    -0.146876007902    12.000000000000
         C            4.751494217851     0.307411891393     0.314936992098    12.000000000000
         H           -3.335666782149     1.827758891393     0.206059992098     1.007825032230
         H           -3.985545782149     0.749865891393     1.437412992098     1.007825032230
         H           -1.279635782149     1.428582891393    -0.649582007902     1.007825032230
         H            0.196493217851    -0.431633108607    -1.634398007902     1.007825032230
         H            0.040881217851    -1.327417108607    -0.124003007902     1.007825032230
         H           -2.801711782149    -1.411832108607     1.924042992098     1.007825032230
         H           -3.317236782149    -2.022032108607     0.352083992098     1.007825032230
         H           -1.607026782149    -2.064381108607     0.788673992098     1.007825032230
         H           -5.050206782149    -0.662983108607    -0.359221007902     1.007825032230
         H           -4.360143782149     0.404576891393    -1.591307007902     1.007825032230
         H           -5.584269782149     1.018498891393    -0.465552007902     1.007825032230
         H            3.261966217851     1.844503891393    -0.069948007902     1.007825032230
         H            3.080899217851     1.066551891393     1.484020992098     1.007825032230
         H            4.827394217851    -0.647740108607     0.837243992098     1.007825032230
         H            5.003849217851     0.133078891393    -0.732871007902     1.007825032230
         H            5.483969217851     0.997319891393     0.741860992098     1.007825032230

  Basis Set: AUG-CC-PVTZ
    Blend: AUG-CC-PVTZ
  Basis Set: (AUG-CC-PVTZ AUX)
    Blend: AUG-CC-PVTZ-JKFIT
	 Reference Energy          =    -500.0299356519673211 [Eh]
	 Singles Energy            =      -0.0000000000000000 [Eh]
	 Same-Spin Energy          =      -0.5093889800304797 [Eh]
	 Opposite-Spin Energy      =      -1.7169576973144638 [Eh]
	 Correlation Energy        =      -2.2263466773449436 [Eh]
	 Total Energy              =    -502.2562823293122847 [Eh]

	 ================> DF-SCS-MP2 Energies <==================
	-----------------------------------------------------------
	 SCS Same-Spin Scale       =       0.3333333333333333 [-]
	 SCS Opposite-Spin Scale   =       1.2000000000000000 [-]
	 SCS Same-Spin Energy      =      -0.1697963266768266 [Eh]
	 SCS Opposite-Spin Energy  =      -2.0603492367773564 [Eh]
	 SCS Correlation Energy    =      -2.2301455634541831 [Eh]
	 SCS Total Energy          =    -502.2600812154215077 [Eh]
	-----------------------------------------------------------

  Dipole Moment: [D]
     X:    -1.1110      Y:     1.1598      Z:     0.8010     Total:     1.7948

*** Psi4 exiting successfully. Buy a developer a beer!
