                               Psi4 1.4a3.dev225

  ==> Input File <==

--------------------------------------------------------------------------
#psi4
#
memory 32 gb

molecule  {
0 1
  O       -1.1411000    -0.4541930    -0.0251880
  O       -2.5814580     1.1752260    -0.6867450
  C        2.3134570     0.0186930     0.2462000
  C        3.5062017    -0.8683034     0.3212051
  C        1.1937340    -0.4134970    -0.3651820
  C       -0.0647290     0.3542590    -0.5783780
  C        2.4850690     1.3863280     0.8546590
  C        4.7190700    -0.3405130    -0.4677320
  C       -3.4286640    -0.8122060     0.4327630
  C       -2.3749380     0.0938890    -0.1583950
  C       -4.8282690    -0.2261570     0.3119590
  H        3.2581340    -1.8761120    -0.0507320
  H        3.8122360    -1.0018650     1.3748590
  H        1.1815530    -1.4238220    -0.7735790
  H       -0.2705280     0.5138520    -1.6430550
  H       -0.0714200     1.3330110    -0.0949940
  H        3.0182560     1.3061200     1.8081990
  H        3.0814560     2.0379150     0.2067330
  H        1.5342700     1.8877430     1.0433380
  H        5.0646870     0.6170420    -0.0694620
  H        4.4484560    -0.1949880    -1.5176090
  H        5.5583810    -1.0408350    -0.4253590
  H       -3.3536290    -1.7820470    -0.0715700
  H       -3.1585900    -0.9983310     1.4781360
  H       -4.8922970     0.7333770     0.8287030
  H       -5.0879650    -0.0561110    -0.7346540
  H       -5.5642940    -0.9066400     0.7478690
units angstrom
no_reorient  #important for SAPT in psi4, default
symmetry c1  #important for SAPT in psi4, default
}

set PROPERTIES_ORIGIN ["COM"]
properties('MP2/aug-cc-pvtz', properties = ['dipole'])
--------------------------------------------------------------------------

    Molecular point group: c1
  Charge       = 0
  Multiplicity = 1
  Basis Set: AUG-CC-PVTZ
    Blend: AUG-CC-PVTZ
  Basis Set: (AUG-CC-PVTZ AUX)
    Blend: AUG-CC-PVTZ-JKFIT

    Orbital Energies [Eh]
    ---------------------

    Doubly Occupied:

       1A    -20.597313     2A    -20.540934     3A    -11.375815
       4A    -11.286965     5A    -11.243794     6A    -11.242674
       7A    -11.228935     8A    -11.226235     9A    -11.223805
      10A    -11.219751    11A    -11.218237    12A     -1.447098
      13A     -1.347491    14A     -1.114209    15A     -1.063187
      16A     -1.021233    17A     -0.976571    18A     -0.921023
      19A     -0.880358    20A     -0.832688    21A     -0.766949
      22A     -0.722836    23A     -0.688012    24A     -0.679846
      25A     -0.659821    26A     -0.638619    27A     -0.623499
      28A     -0.604937    29A     -0.589606    30A     -0.571679
      31A     -0.553695    32A     -0.545907    33A     -0.533449
      34A     -0.522179    35A     -0.517690    36A     -0.513516
      37A     -0.510293    38A     -0.492367    39A     -0.482057
      40A     -0.469850    41A     -0.457286    42A     -0.444379
      43A     -0.345660

  @DF-RHF Final Energy:  -500.03786117057109

   => Energetics <=

    Nuclear Repulsion Energy =            602.7745287492160742
    One-Electron Energy =               -1875.7398891300324522
    Two-Electron Energy =                 772.9274992102454007
    Total Energy =                       -500.0378611705710910
  Basis Set: (AUG-CC-PVTZ AUX)
    Blend: AUG-CC-PVTZ-RI
    Molecular point group: c1

    Geometry (in Angstrom), charge = 0, multiplicity = 1:

       Center              X                  Y                   Z               Mass
    ------------   -----------------  -----------------  -----------------  -----------------
         O           -1.085595165906    -0.460498715503    -0.011744006841    15.994914619570
         O           -2.525953165906     1.168920284497    -0.673301006841    15.994914619570
         C            2.368961834094     0.012387284497     0.259643993159    12.000000000000
         C            3.561706534094    -0.874609115503     0.334649093159    12.000000000000
         C            1.249238834094    -0.419802715503    -0.351738006841    12.000000000000
         C           -0.009224165906     0.347953284497    -0.564934006841    12.000000000000
         C            2.540573834094     1.380022284497     0.868102993159    12.000000000000
         C            4.774574834094    -0.346818715503    -0.454288006841    12.000000000000
         C           -3.373159165906    -0.818511715503     0.446206993159    12.000000000000
         C           -2.319433165906     0.087583284497    -0.144951006841    12.000000000000
         C           -4.772764165906    -0.232462715503     0.325402993159    12.000000000000
         H            3.313638834094    -1.882417715503    -0.037288006841     1.007825032230
         H            3.867740834094    -1.008170715503     1.388302993159     1.007825032230
         H            1.237057834094    -1.430127715503    -0.760135006841     1.007825032230
         H           -0.215023165906     0.507546284497    -1.629611006841     1.007825032230
         H           -0.015915165906     1.326705284497    -0.081550006841     1.007825032230
         H            3.073760834094     1.299814284497     1.821642993159     1.007825032230
         H            3.136960834094     2.031609284497     0.220176993159     1.007825032230
         H            1.589774834094     1.881437284497     1.056781993159     1.007825032230
         H            5.120191834094     0.610736284497    -0.056018006841     1.007825032230
         H            4.503960834094    -0.201293715503    -1.504165006841     1.007825032230
         H            5.613885834094    -1.047140715503    -0.411915006841     1.007825032230
         H           -3.298124165906    -1.788352715503    -0.058126006841     1.007825032230
         H           -3.103085165906    -1.004636715503     1.491579993159     1.007825032230
         H           -4.836792165906     0.727071284497     0.842146993159     1.007825032230
         H           -5.032460165906    -0.062416715503    -0.721210006841     1.007825032230
         H           -5.508789165906    -0.912945715503     0.761312993159     1.007825032230

  Basis Set: AUG-CC-PVTZ
    Blend: AUG-CC-PVTZ
  Basis Set: (AUG-CC-PVTZ AUX)
    Blend: AUG-CC-PVTZ-JKFIT
	 Reference Energy          =    -500.0378611705710910 [Eh]
	 Singles Energy            =      -0.0000000000000000 [Eh]
	 Same-Spin Energy          =      -0.5098465213374652 [Eh]
	 Opposite-Spin Energy      =      -1.7170966676952597 [Eh]
	 Correlation Energy        =      -2.2269431890327249 [Eh]
	 Total Energy              =    -502.2648043596038292 [Eh]

	 ================> DF-SCS-MP2 Energies <==================
	-----------------------------------------------------------
	 SCS Same-Spin Scale       =       0.3333333333333333 [-]
	 SCS Opposite-Spin Scale   =       1.2000000000000000 [-]
	 SCS Same-Spin Energy      =      -0.1699488404458217 [Eh]
	 SCS Opposite-Spin Energy  =      -2.0605160012343116 [Eh]
	 SCS Correlation Energy    =      -2.2304648416801331 [Eh]
	 SCS Total Energy          =    -502.2683260122512365 [Eh]
	-----------------------------------------------------------

  Dipole Moment: [D]
     X:     1.4378      Y:    -1.1985      Z:     0.7970     Total:     2.0344

*** Psi4 exiting successfully. Buy a developer a beer!
