                               Psi4 1.4a3.dev225

  ==> Input File <==

--------------------------------------------------------------------------
#psi4
#
memory 32 gb

molecule  {
0 1
  O       -1.1411000    -0.4541930    -0.0251880
  O       -2.5814580     1.1752260    -0.6867450
  C        2.3134570     0.0186930     0.2462000
  C        3.5222300    -0.8802230     0.3222130
  C        1.2103597    -0.4070798    -0.3561042
  C       -0.0647290     0.3542590    -0.5783780
  C        2.4850690     1.3863280     0.8546590
  C        4.7190700    -0.3405130    -0.4677320
  C       -3.4286640    -0.8122060     0.4327630
  C       -2.3749380     0.0938890    -0.1583950
  C       -4.8282690    -0.2261570     0.3119590
  H        3.2581340    -1.8761120    -0.0507320
  H        3.8122360    -1.0018650     1.3748590
  H        1.1815530    -1.4238220    -0.7735790
  H       -0.2705280     0.5138520    -1.6430550
  H       -0.0714200     1.3330110    -0.0949940
  H        3.0182560     1.3061200     1.8081990
  H        3.0814560     2.0379150     0.2067330
  H        1.5342700     1.8877430     1.0433380
  H        5.0646870     0.6170420    -0.0694620
  H        4.4484560    -0.1949880    -1.5176090
  H        5.5583810    -1.0408350    -0.4253590
  H       -3.3536290    -1.7820470    -0.0715700
  H       -3.1585900    -0.9983310     1.4781360
  H       -4.8922970     0.7333770     0.8287030
  H       -5.0879650    -0.0561110    -0.7346540
  H       -5.5642940    -0.9066400     0.7478690
units angstrom
no_reorient  #important for SAPT in psi4, default
symmetry c1  #important for SAPT in psi4, default
}

set PROPERTIES_ORIGIN ["COM"]
properties('MP2/aug-cc-pvtz', properties = ['dipole'])
--------------------------------------------------------------------------

    Molecular point group: c1
  Charge       = 0
  Multiplicity = 1
  Basis Set: AUG-CC-PVTZ
    Blend: AUG-CC-PVTZ
  Basis Set: (AUG-CC-PVTZ AUX)
    Blend: AUG-CC-PVTZ-JKFIT

    Orbital Energies [Eh]
    ---------------------

    Doubly Occupied:

       1A    -20.597568     2A    -20.540969     3A    -11.375956
       4A    -11.287543     5A    -11.242748     6A    -11.241244
       7A    -11.228260     8A    -11.225897     9A    -11.222624
      10A    -11.219137    11A    -11.218283    12A     -1.447080
      13A     -1.347443    14A     -1.114236    15A     -1.062938
      16A     -1.021086    17A     -0.976180    18A     -0.922153
      19A     -0.879521    20A     -0.833709    21A     -0.766569
      22A     -0.721566    23A     -0.687482    24A     -0.679232
      25A     -0.659446    26A     -0.638449    27A     -0.623985
      28A     -0.605048    29A     -0.589068    30A     -0.572029
      31A     -0.553692    32A     -0.545803    33A     -0.532874
      34A     -0.522026    35A     -0.517522    36A     -0.514056
      37A     -0.511948    38A     -0.492363    39A     -0.484617
      40A     -0.463039    41A     -0.456864    42A     -0.444474
      43A     -0.350799

  @DF-RHF Final Energy:  -500.03887976453518

   => Energetics <=

    Nuclear Repulsion Energy =            602.6057669463948514
    One-Electron Energy =               -1875.4142469808728038
    Two-Electron Energy =                 772.7696002699427709
    Total Energy =                       -500.0388797645351815
  Basis Set: (AUG-CC-PVTZ AUX)
    Blend: AUG-CC-PVTZ-RI
    Molecular point group: c1

    Geometry (in Angstrom), charge = 0, multiplicity = 1:

       Center              X                  Y                   Z               Mass
    ------------   -----------------  -----------------  -----------------  -----------------
         O           -1.088105161264    -0.460075765835    -0.012519258271    15.994914619570
         O           -2.528463161264     1.169343234165    -0.674076258271    15.994914619570
         C            2.366451838736     0.012810234165     0.258868741729    12.000000000000
         C            3.575224838736    -0.886105765835     0.334881741729    12.000000000000
         C            1.263354538736    -0.412962565835    -0.343435458271    12.000000000000
         C           -0.011734161264     0.348376234165    -0.565709258271    12.000000000000
         C            2.538063838736     1.380445234165     0.867327741729    12.000000000000
         C            4.772064838736    -0.346395765835    -0.455063258271    12.000000000000
         C           -3.375669161264    -0.818088765835     0.445431741729    12.000000000000
         C           -2.321943161264     0.088006234165    -0.145726258271    12.000000000000
         C           -4.775274161264    -0.232039765835     0.324627741729    12.000000000000
         H            3.311128838736    -1.881994765835    -0.038063258271     1.007825032230
         H            3.865230838736    -1.007747765835     1.387527741729     1.007825032230
         H            1.234547838736    -1.429704765835    -0.760910258271     1.007825032230
         H           -0.217533161264     0.507969234165    -1.630386258271     1.007825032230
         H           -0.018425161264     1.327128234165    -0.082325258271     1.007825032230
         H            3.071250838736     1.300237234165     1.820867741729     1.007825032230
         H            3.134450838736     2.032032234165     0.219401741729     1.007825032230
         H            1.587264838736     1.881860234165     1.056006741729     1.007825032230
         H            5.117681838736     0.611159234165    -0.056793258271     1.007825032230
         H            4.501450838736    -0.200870765835    -1.504940258271     1.007825032230
         H            5.611375838736    -1.046717765835    -0.412690258271     1.007825032230
         H           -3.300634161264    -1.787929765835    -0.058901258271     1.007825032230
         H           -3.105595161264    -1.004213765835     1.490804741729     1.007825032230
         H           -4.839302161264     0.727494234165     0.841371741729     1.007825032230
         H           -5.034970161264    -0.061993765835    -0.721985258271     1.007825032230
         H           -5.511299161264    -0.912522765835     0.760537741729     1.007825032230

  Basis Set: AUG-CC-PVTZ
    Blend: AUG-CC-PVTZ
  Basis Set: (AUG-CC-PVTZ AUX)
    Blend: AUG-CC-PVTZ-JKFIT
	 Reference Energy          =    -500.0388797645351815 [Eh]
	 Singles Energy            =      -0.0000000000000000 [Eh]
	 Same-Spin Energy          =      -0.5094038168857723 [Eh]
	 Opposite-Spin Energy      =      -1.7164253849598001 [Eh]
	 Correlation Energy        =      -2.2258292018455723 [Eh]
	 Total Energy              =    -502.2647089663807378 [Eh]

	 ================> DF-SCS-MP2 Energies <==================
	-----------------------------------------------------------
	 SCS Same-Spin Scale       =       0.3333333333333333 [-]
	 SCS Opposite-Spin Scale   =       1.2000000000000000 [-]
	 SCS Same-Spin Energy      =      -0.1698012722952574 [Eh]
	 SCS Opposite-Spin Energy  =      -2.0597104619517599 [Eh]
	 SCS Correlation Energy    =      -2.2295117342470174 [Eh]
	 SCS Total Energy          =    -502.2683914987821936 [Eh]
	-----------------------------------------------------------

  Dipole Moment: [D]
     X:     1.4330      Y:    -1.1982      Z:     0.7987     Total:     2.0316

*** Psi4 exiting successfully. Buy a developer a beer!
