                               Psi4 1.3.2 release

  ==> Input File <==

--------------------------------------------------------------------------
#psi4
#
memory 32 gb

molecule  {
0 1
  O        1.0716460     0.4753830     0.0137820
  O        2.5311320    -1.1057930    -0.7123110
  C       -2.3693550    -0.0883010     0.2982860
  C       -3.5980660     0.7810210     0.4066790
  C       -1.2626340     0.3942960    -0.2965320
  C        0.0082920    -0.3313460    -0.5624280
  C       -2.5132090    -1.4745150     0.8629900
  C       -4.7090750     0.3554230    -0.5595870
  C        3.3545870     0.8742710     0.4380940
  C        2.3026650    -0.0363668    -0.1449774
  C        4.7629163     0.3144429     0.3195786
  H       -3.3290990     1.8240090     0.2046860
  H       -3.9789780     0.7461160     1.4360390
  H       -1.2730680     1.4248330    -0.6509560
  H        0.2030610    -0.4353830    -1.6357720
  H        0.0474490    -1.3311670    -0.1253770
  H       -2.7951440    -1.4155820     1.9226690
  H       -3.3106690    -2.0257820     0.3507100
  H       -1.6004590    -2.0681310     0.7873000
  H       -5.0436390    -0.6667330    -0.3605950
  H       -4.3535760     0.4008270    -1.5926810
  H       -5.5777020     1.0147490    -0.4669260
  H        3.2685340     1.8407540    -0.0713220
  H        3.0874670     1.0628020     1.4826470
  H        4.8339620    -0.6514900     0.8358700
  H        5.0104170     0.1293290    -0.7342450
  H        5.4905370     0.9935700     0.7404870
units angstrom
no_reorient  #important for SAPT in psi4, default
symmetry c1  #important for SAPT in psi4, default
}

set PROPERTIES_ORIGIN ["COM"]
properties('MP2/aug-cc-pvtz', properties = ['dipole'])
--------------------------------------------------------------------------

    Molecular point group: c1
  Charge       = 0
  Multiplicity = 1
  Basis Set: AUG-CC-PVTZ
    Blend: AUG-CC-PVTZ
  Basis Set: (AUG-CC-PVTZ AUX)
    Blend: AUG-CC-PVTZ-JKFIT

    Orbital Energies [Eh]
    ---------------------

    Doubly Occupied:

       1A    -20.600454     2A    -20.537896     3A    -11.376011
       4A    -11.288007     5A    -11.245138     6A    -11.241920
       7A    -11.228975     8A    -11.226968     9A    -11.224039
      10A    -11.219656    11A    -11.217523    12A     -1.450887
      13A     -1.342674    14A     -1.113397    15A     -1.063684
      16A     -1.022866    17A     -0.979135    18A     -0.920819
      19A     -0.879579    20A     -0.834444    21A     -0.769549
      22A     -0.723077    23A     -0.687177    24A     -0.681415
      25A     -0.659997    26A     -0.638467    27A     -0.623706
      28A     -0.605169    29A     -0.588217    30A     -0.575231
      31A     -0.553684    32A     -0.545869    33A     -0.532866
      34A     -0.522612    35A     -0.516745    36A     -0.515106
      37A     -0.512228    38A     -0.489619    39A     -0.484389
      40A     -0.466246    41A     -0.456213    42A     -0.443217
      43A     -0.346994

  @DF-RHF Final Energy:  -500.03754584808740

   => Energetics <=

    Nuclear Repulsion Energy =            603.0365071423940435
    One-Electron Energy =               -1876.2443705384603163
    Two-Electron Energy =                 773.1703175479790389
    Total Energy =                       -500.0375458480873476
  Basis Set: (AUG-CC-PVTZ AUX)
    Blend: AUG-CC-PVTZ-RI
    Molecular point group: c1

    Geometry (in Angstrom), charge = 0, multiplicity = 1:

       Center              X                  Y                   Z               Mass
    ------------   -----------------  -----------------  -----------------  -----------------
         O            1.071993572521     0.473890111109     0.013067977892    15.994914619570
         O            2.531479572521    -1.107285888891    -0.713025022108    15.994914619570
         C           -2.369007427479    -0.089793888891     0.297571977892    12.000000000000
         C           -3.597718427479     0.779528111109     0.405964977892    12.000000000000
         C           -1.262286427479     0.392803111109    -0.297246022108    12.000000000000
         C            0.008639572521    -0.332838888891    -0.563142022108    12.000000000000
         C           -2.512861427479    -1.476007888891     0.862275977892    12.000000000000
         C           -4.708727427479     0.353930111109    -0.560301022108    12.000000000000
         C            3.354934572521     0.872778111109     0.437379977892    12.000000000000
         C            2.303012572521    -0.037859688891    -0.145691422108    12.000000000000
         C            4.763263872521     0.312950011109     0.318864577892    12.000000000000
         H           -3.328751427479     1.822516111109     0.203971977892     1.007825032230
         H           -3.978630427479     0.744623111109     1.435324977892     1.007825032230
         H           -1.272720427479     1.423340111109    -0.651670022108     1.007825032230
         H            0.203408572521    -0.436875888891    -1.636486022108     1.007825032230
         H            0.047796572521    -1.332659888891    -0.126091022108     1.007825032230
         H           -2.794796427479    -1.417074888891     1.921954977892     1.007825032230
         H           -3.310321427479    -2.027274888891     0.349995977892     1.007825032230
         H           -1.600111427479    -2.069623888891     0.786585977892     1.007825032230
         H           -5.043291427479    -0.668225888891    -0.361309022108     1.007825032230
         H           -4.353228427479     0.399334111109    -1.593395022108     1.007825032230
         H           -5.577354427479     1.013256111109    -0.467640022108     1.007825032230
         H            3.268881572521     1.839261111109    -0.072036022108     1.007825032230
         H            3.087814572521     1.061309111109     1.481932977892     1.007825032230
         H            4.834309572521    -0.652982888891     0.835155977892     1.007825032230
         H            5.010764572521     0.127836111109    -0.734959022108     1.007825032230
         H            5.490884572521     0.992077111109     0.739772977892     1.007825032230

  Basis Set: AUG-CC-PVTZ
    Blend: AUG-CC-PVTZ
  Basis Set: (AUG-CC-PVTZ AUX)
    Blend: AUG-CC-PVTZ-JKFIT
	 Reference Energy          =    -500.0375458480874045 [Eh]
	 Singles Energy            =      -0.0000000000000000 [Eh]
	 Same-Spin Energy          =      -0.5098526836811212 [Eh]
	 Opposite-Spin Energy      =      -1.7169738774632863 [Eh]
	 Correlation Energy        =      -2.2268265611444074 [Eh]
	 Total Energy              =    -502.2643724092318394 [Eh]

	 ================> DF-SCS-MP2 Energies <==================
	-----------------------------------------------------------
	 SCS Same-Spin Scale       =       0.3333333333333333 [-]
	 SCS Opposite-Spin Scale   =       1.2000000000000000 [-]
	 SCS Same-Spin Energy      =      -0.1699508945603737 [Eh]
	 SCS Opposite-Spin Energy  =      -2.0603686529559435 [Eh]
	 SCS Correlation Energy    =      -2.2303195475163173 [Eh]
	 SCS Total Energy          =    -502.2678653956037351 [Eh]
	-----------------------------------------------------------

  Dipole Moment: [D]
     X:    -1.5684      Y:     1.2341      Z:     0.8553     Total:     2.1713

*** Psi4 exiting successfully. Buy a developer a beer!
