                               Psi4 1.3.2 release

  ==> Input File <==

--------------------------------------------------------------------------
#psi4
#
memory 32 gb

molecule  {
0 1
  O        1.0716460     0.4753830     0.0137820
  O        2.5311320    -1.1057930    -0.7123110
  C       -2.3693550    -0.0883010     0.2982860
  C       -3.5980660     0.7810210     0.4066790
  C       -1.2626340     0.3942960    -0.2965320
  C        0.0082920    -0.3313460    -0.5624280
  C       -2.5132090    -1.4745150     0.8629900
  C       -4.7090750     0.3554230    -0.5595870
  C        3.3545870     0.8742710     0.4380940
  C        2.3120420    -0.0450080    -0.1482500
  C        4.7580620     0.3036620     0.3135630
  H       -3.3290990     1.8240090     0.2046860
  H       -3.9789780     0.7461160     1.4360390
  H       -1.2730680     1.4248330    -0.6509560
  H        0.2030610    -0.4353830    -1.6357720
  H        0.0474490    -1.3311670    -0.1253770
  H       -2.7951440    -1.4155820     1.9226690
  H       -3.3106690    -2.0257820     0.3507100
  H       -1.6004590    -2.0681310     0.7873000
  H       -5.0436390    -0.6667330    -0.3605950
  H       -4.3535760     0.4008270    -1.5926810
  H       -5.5777020     1.0147490    -0.4669260
  H        3.2685340     1.8407540    -0.0713220
  H        3.0630619     1.0800269     1.5780812
  H        4.8339620    -0.6514900     0.8358700
  H        5.0104170     0.1293290    -0.7342450
  H        5.4905370     0.9935700     0.7404870
units angstrom
no_reorient  #important for SAPT in psi4, default
symmetry c1  #important for SAPT in psi4, default
}

set PROPERTIES_ORIGIN ["COM"]
properties('MP2/aug-cc-pvtz', properties = ['dipole'])
--------------------------------------------------------------------------

    Molecular point group: c1
  Charge       = 0
  Multiplicity = 1
  Basis Set: AUG-CC-PVTZ
    Blend: AUG-CC-PVTZ
  Basis Set: (AUG-CC-PVTZ AUX)
    Blend: AUG-CC-PVTZ-JKFIT

    Orbital Energies [Eh]
    ---------------------

    Doubly Occupied:

       1A    -20.597166     2A    -20.541443     3A    -11.376421
       4A    -11.286475     5A    -11.253563     6A    -11.244213
       7A    -11.228373     8A    -11.226356     9A    -11.223245
      10A    -11.219176    11A    -11.218870    12A     -1.448245
      13A     -1.348002    14A     -1.112405    15A     -1.060429
      16A     -1.021407    17A     -0.977948    18A     -0.919611
      19A     -0.877555    20A     -0.832651    21A     -0.765915
      22A     -0.720974    23A     -0.687208    24A     -0.679038
      25A     -0.658990    26A     -0.634947    27A     -0.623883
      28A     -0.601850    29A     -0.587822    30A     -0.574476
      31A     -0.552865    32A     -0.544707    33A     -0.533974
      34A     -0.522159    35A     -0.516403    36A     -0.514355
      37A     -0.511818    38A     -0.485454    39A     -0.483892
      40A     -0.465642    41A     -0.457455    42A     -0.444315
      43A     -0.346059

  @DF-RHF Final Energy:  -500.03187220697066

   => Energetics <=

    Nuclear Repulsion Energy =            602.6392096326010233
    One-Electron Energy =               -1875.4866515276171413
    Two-Electron Energy =                 772.8155696880454570
    Total Energy =                       -500.0318722069706610
  Basis Set: (AUG-CC-PVTZ AUX)
    Blend: AUG-CC-PVTZ-RI
    Molecular point group: c1

    Geometry (in Angstrom), charge = 0, multiplicity = 1:

       Center              X                  Y                   Z               Mass
    ------------   -----------------  -----------------  -----------------  -----------------
         O            1.071803479809     0.475271819936     0.013165837940    15.994914619570
         O            2.531289479809    -1.105904180064    -0.712927162060    15.994914619570
         C           -2.369197520191    -0.088412180064     0.297669837940    12.000000000000
         C           -3.597908520191     0.780909819936     0.406062837940    12.000000000000
         C           -1.262476520191     0.394184819936    -0.297148162060    12.000000000000
         C            0.008449479809    -0.331457180064    -0.563044162060    12.000000000000
         C           -2.513051520191    -1.474626180064     0.862373837940    12.000000000000
         C           -4.708917520191     0.355311819936    -0.560203162060    12.000000000000
         C            3.354744479809     0.874159819936     0.437477837940    12.000000000000
         C            2.312199479809    -0.045119180064    -0.148866162060    12.000000000000
         C            4.758219479809     0.303550819936     0.312946837940    12.000000000000
         H           -3.328941520191     1.823897819936     0.204069837940     1.007825032230
         H           -3.978820520191     0.746004819936     1.435422837940     1.007825032230
         H           -1.272910520191     1.424721819936    -0.651572162060     1.007825032230
         H            0.203218479809    -0.435494180064    -1.636388162060     1.007825032230
         H            0.047606479809    -1.331278180064    -0.125993162060     1.007825032230
         H           -2.794986520191    -1.415693180064     1.922052837940     1.007825032230
         H           -3.310511520191    -2.025893180064     0.350093837940     1.007825032230
         H           -1.600301520191    -2.068242180064     0.786683837940     1.007825032230
         H           -5.043481520191    -0.666844180064    -0.361211162060     1.007825032230
         H           -4.353418520191     0.400715819936    -1.593297162060     1.007825032230
         H           -5.577544520191     1.014637819936    -0.467542162060     1.007825032230
         H            3.268691479809     1.840642819936    -0.071938162060     1.007825032230
         H            3.063219379809     1.079915719936     1.577465037940     1.007825032230
         H            4.834119479809    -0.651601180064     0.835253837940     1.007825032230
         H            5.010574479809     0.129217819936    -0.734861162060     1.007825032230
         H            5.490694479809     0.993458819936     0.739870837940     1.007825032230

  Basis Set: AUG-CC-PVTZ
    Blend: AUG-CC-PVTZ
  Basis Set: (AUG-CC-PVTZ AUX)
    Blend: AUG-CC-PVTZ-JKFIT
	 Reference Energy          =    -500.0318722069706610 [Eh]
	 Singles Energy            =      -0.0000000000000000 [Eh]
	 Same-Spin Energy          =      -0.5098026526038182 [Eh]
	 Opposite-Spin Energy      =      -1.7175801808667790 [Eh]
	 Correlation Energy        =      -2.2273828334705970 [Eh]
	 Total Energy              =    -502.2592550404412464 [Eh]

	 ================> DF-SCS-MP2 Energies <==================
	-----------------------------------------------------------
	 SCS Same-Spin Scale       =       0.3333333333333333 [-]
	 SCS Opposite-Spin Scale   =       1.2000000000000000 [-]
	 SCS Same-Spin Energy      =      -0.1699342175346061 [Eh]
	 SCS Opposite-Spin Energy  =      -2.0610962170401348 [Eh]
	 SCS Correlation Energy    =      -2.2310304345747407 [Eh]
	 SCS Total Energy          =    -502.2629026415453950 [Eh]
	-----------------------------------------------------------

  Dipole Moment: [D]
     X:    -1.4261      Y:     1.1656      Z:     0.7984     Total:     2.0074

*** Psi4 exiting successfully. Buy a developer a beer!
