                               Psi4 1.3.2 release

  ==> Input File <==

--------------------------------------------------------------------------
#psi4
#
memory 32 gb

molecule  {
0 1
  O        1.0716460     0.4753830     0.0137820
  O        2.5311320    -1.1057930    -0.7123110
  C       -2.3693550    -0.0883010     0.2982860
  C       -3.5980660     0.7810210     0.4066790
  C       -1.2626340     0.3942960    -0.2965320
  C        0.0178358    -0.3100196    -0.5737440
  C       -2.5132090    -1.4745150     0.8629900
  C       -4.7090750     0.3554230    -0.5595870
  C        3.3545870     0.8742710     0.4380940
  C        2.3120420    -0.0450080    -0.1482500
  C        4.7580620     0.3036620     0.3135630
  H       -3.3290990     1.8240090     0.2046860
  H       -3.9789780     0.7461160     1.4360390
  H       -1.2553188     1.4226128    -0.6574238
  H        0.2030610    -0.4353830    -1.6357720
  H        0.0474490    -1.3311670    -0.1253770
  H       -2.7951440    -1.4155820     1.9226690
  H       -3.3106690    -2.0257820     0.3507100
  H       -1.6004590    -2.0681310     0.7873000
  H       -5.0436390    -0.6667330    -0.3605950
  H       -4.3535760     0.4008270    -1.5926810
  H       -5.5777020     1.0147490    -0.4669260
  H        3.2685340     1.8407540    -0.0713220
  H        3.0874670     1.0628020     1.4826470
  H        4.8339620    -0.6514900     0.8358700
  H        5.0104170     0.1293290    -0.7342450
  H        5.4905370     0.9935700     0.7404870
units angstrom
no_reorient  #important for SAPT in psi4, default
symmetry c1  #important for SAPT in psi4, default
}

set PROPERTIES_ORIGIN ["COM"]
properties('MP2/aug-cc-pvtz', properties = ['dipole'])
--------------------------------------------------------------------------

    Molecular point group: c1
  Charge       = 0
  Multiplicity = 1
  Basis Set: AUG-CC-PVTZ
    Blend: AUG-CC-PVTZ
  Basis Set: (AUG-CC-PVTZ AUX)
    Blend: AUG-CC-PVTZ-JKFIT

    Orbital Energies [Eh]
    ---------------------

    Doubly Occupied:

       1A    -20.598787     2A    -20.541704     3A    -11.376549
       4A    -11.286068     5A    -11.244601     6A    -11.242839
       7A    -11.228255     8A    -11.226035     9A    -11.222965
      10A    -11.219016    11A    -11.218310    12A     -1.451348
      13A     -1.349812    14A     -1.111892    15A     -1.064751
      16A     -1.021482    17A     -0.978166    18A     -0.919786
      19A     -0.879110    20A     -0.833212    21A     -0.768857
      22A     -0.723389    23A     -0.689225    24A     -0.680807
      25A     -0.661456    26A     -0.639111    27A     -0.623807
      28A     -0.605462    29A     -0.587981    30A     -0.574711
      31A     -0.551842    32A     -0.545190    33A     -0.533601
      34A     -0.522892    35A     -0.518261    36A     -0.514590
      37A     -0.510042    38A     -0.492129    39A     -0.483701
      40A     -0.464839    41A     -0.455838    42A     -0.445074
      43A     -0.346205

  @DF-RHF Final Energy:  -500.03761251206049

   => Energetics <=

    Nuclear Repulsion Energy =            603.2024053435661699
    One-Electron Energy =               -1876.5726405711795906
    Two-Electron Energy =                 773.3326227155529295
    Total Energy =                       -500.0376125120604911
  Basis Set: (AUG-CC-PVTZ AUX)
    Blend: AUG-CC-PVTZ-RI
    Molecular point group: c1

    Geometry (in Angstrom), charge = 0, multiplicity = 1:

       Center              X                  Y                   Z               Mass
    ------------   -----------------  -----------------  -----------------  -----------------
         O            1.070797748593     0.473758067276     0.014693502424    15.994914619570
         O            2.530283748593    -1.107417932724    -0.711399497576    15.994914619570
         C           -2.370203251407    -0.089925932724     0.299197502424    12.000000000000
         C           -3.598914251407     0.779396067276     0.407590502424    12.000000000000
         C           -1.263482251407     0.392671067276    -0.295620497576    12.000000000000
         C            0.016987548593    -0.311644532724    -0.572832497576    12.000000000000
         C           -2.514057251407    -1.476139932724     0.863901502424    12.000000000000
         C           -4.709923251407     0.353798067276    -0.558675497576    12.000000000000
         C            3.353738748593     0.872646067276     0.439005502424    12.000000000000
         C            2.311193748593    -0.046632932724    -0.147338497576    12.000000000000
         C            4.757213748593     0.302037067276     0.314474502424    12.000000000000
         H           -3.329947251407     1.822384067276     0.205597502424     1.007825032230
         H           -3.979826251407     0.744491067276     1.436950502424     1.007825032230
         H           -1.256167051407     1.420987867276    -0.656512297576     1.007825032230
         H            0.202212748593    -0.437007932724    -1.634860497576     1.007825032230
         H            0.046600748593    -1.332791932724    -0.124465497576     1.007825032230
         H           -2.795992251407    -1.417206932724     1.923580502424     1.007825032230
         H           -3.311517251407    -2.027406932724     0.351621502424     1.007825032230
         H           -1.601307251407    -2.069755932724     0.788211502424     1.007825032230
         H           -5.044487251407    -0.668357932724    -0.359683497576     1.007825032230
         H           -4.354424251407     0.399202067276    -1.591769497576     1.007825032230
         H           -5.578550251407     1.013124067276    -0.466014497576     1.007825032230
         H            3.267685748593     1.839129067276    -0.070410497576     1.007825032230
         H            3.086618748593     1.061177067276     1.483558502424     1.007825032230
         H            4.833113748593    -0.653114932724     0.836781502424     1.007825032230
         H            5.009568748593     0.127704067276    -0.733333497576     1.007825032230
         H            5.489688748593     0.991945067276     0.741398502424     1.007825032230

  Basis Set: AUG-CC-PVTZ
    Blend: AUG-CC-PVTZ
  Basis Set: (AUG-CC-PVTZ AUX)
    Blend: AUG-CC-PVTZ-JKFIT
	 Reference Energy          =    -500.0376125120604911 [Eh]
	 Singles Energy            =      -0.0000000000000000 [Eh]
	 Same-Spin Energy          =      -0.5097491757197929 [Eh]
	 Opposite-Spin Energy      =      -1.7167359100050930 [Eh]
	 Correlation Energy        =      -2.2264850857248861 [Eh]
	 Total Energy              =    -502.2640975977853941 [Eh]

	 ================> DF-SCS-MP2 Energies <==================
	-----------------------------------------------------------
	 SCS Same-Spin Scale       =       0.3333333333333333 [-]
	 SCS Opposite-Spin Scale   =       1.2000000000000000 [-]
	 SCS Same-Spin Energy      =      -0.1699163919065976 [Eh]
	 SCS Opposite-Spin Energy  =      -2.0600830920061113 [Eh]
	 SCS Correlation Energy    =      -2.2299994839127089 [Eh]
	 SCS Total Energy          =    -502.2676119959731977 [Eh]
	-----------------------------------------------------------

  Dipole Moment: [D]
     X:    -1.3860      Y:     1.2102      Z:     0.8219     Total:     2.0152

*** Psi4 exiting successfully. Buy a developer a beer!
