                               Psi4 1.3.2 release

  ==> Input File <==

--------------------------------------------------------------------------
#psi4
#
memory 32 gb

molecule  {
0 1
  O        1.0716460     0.4753830     0.0137820
  O        2.5311320    -1.1057930    -0.7123110
  C       -2.3693550    -0.0883010     0.2982860
  C       -3.5980660     0.7810210     0.4066790
  C       -1.2680931     0.4045526    -0.2982517
  C        0.0082920    -0.3313460    -0.5624280
  C       -2.5255111    -1.4717086     0.8665928
  C       -4.7090750     0.3554230    -0.5595870
  C        3.3545870     0.8742710     0.4380940
  C        2.3120420    -0.0450080    -0.1482500
  C        4.7580620     0.3036620     0.3135630
  H       -3.3290990     1.8240090     0.2046860
  H       -3.9789780     0.7461160     1.4360390
  H       -1.2730680     1.4248330    -0.6509560
  H        0.2030610    -0.4353830    -1.6357720
  H        0.0474490    -1.3311670    -0.1253770
  H       -2.7951440    -1.4155820     1.9226690
  H       -3.3106690    -2.0257820     0.3507100
  H       -1.6004590    -2.0681310     0.7873000
  H       -5.0436390    -0.6667330    -0.3605950
  H       -4.3535760     0.4008270    -1.5926810
  H       -5.5777020     1.0147490    -0.4669260
  H        3.2685340     1.8407540    -0.0713220
  H        3.0874670     1.0628020     1.4826470
  H        4.8339620    -0.6514900     0.8358700
  H        5.0104170     0.1293290    -0.7342450
  H        5.4905370     0.9935700     0.7404870
units angstrom
no_reorient  #important for SAPT in psi4, default
symmetry c1  #important for SAPT in psi4, default
}

set PROPERTIES_ORIGIN ["COM"]
properties('MP2/aug-cc-pvtz', properties = ['dipole'])
--------------------------------------------------------------------------

    Molecular point group: c1
  Charge       = 0
  Multiplicity = 1
  Basis Set: AUG-CC-PVTZ
    Blend: AUG-CC-PVTZ
  Basis Set: (AUG-CC-PVTZ AUX)
    Blend: AUG-CC-PVTZ-JKFIT

    Orbital Energies [Eh]
    ---------------------

    Doubly Occupied:

       1A    -20.597164     2A    -20.540683     3A    -11.375411
       4A    -11.286735     5A    -11.244146     6A    -11.242141
       7A    -11.227741     8A    -11.226701     9A    -11.223352
      10A    -11.218964    11A    -11.217828    12A     -1.447957
      13A     -1.347455    14A     -1.112211    15A     -1.063741
      16A     -1.020704    17A     -0.977603    18A     -0.920297
      19A     -0.878693    20A     -0.833364    21A     -0.767273
      22A     -0.723417    23A     -0.688037    24A     -0.679330
      25A     -0.660104    26A     -0.638289    27A     -0.623214
      28A     -0.605424    29A     -0.588858    30A     -0.575320
      31A     -0.552239    32A     -0.544205    33A     -0.532721
      34A     -0.522843    35A     -0.518215    36A     -0.514917
      37A     -0.512492    38A     -0.492261    39A     -0.483532
      40A     -0.463946    41A     -0.457123    42A     -0.444307
      43A     -0.346573

  @DF-RHF Final Energy:  -500.03814793576191

   => Energetics <=

    Nuclear Repulsion Energy =            602.9301697563656717
    One-Electron Energy =               -1876.0615743199366534
    Two-Electron Energy =                 773.0932566278089553
    Total Energy =                       -500.0381479357619128
  Basis Set: (AUG-CC-PVTZ AUX)
    Blend: AUG-CC-PVTZ-RI
    Molecular point group: c1

    Geometry (in Angstrom), charge = 0, multiplicity = 1:

       Center              X                  Y                   Z               Mass
    ------------   -----------------  -----------------  -----------------  -----------------
         O            1.073011168330     0.474378912220     0.013637181255    15.994914619570
         O            2.532497168330    -1.106797087780    -0.712455818745    15.994914619570
         C           -2.367989831670    -0.089305087780     0.298141181255    12.000000000000
         C           -3.596700831670     0.780016912220     0.406534181255    12.000000000000
         C           -1.266727931670     0.403548512220    -0.298396518745    12.000000000000
         C            0.009657168330    -0.332350087780    -0.562572818745    12.000000000000
         C           -2.524145931670    -1.472712687780     0.866447981255    12.000000000000
         C           -4.707709831670     0.354418912220    -0.559731818745    12.000000000000
         C            3.355952168330     0.873266912220     0.437949181255    12.000000000000
         C            2.313407168330    -0.046012087780    -0.148394818745    12.000000000000
         C            4.759427168330     0.302657912220     0.313418181255    12.000000000000
         H           -3.327733831670     1.823004912220     0.204541181255     1.007825032230
         H           -3.977612831670     0.745111912220     1.435894181255     1.007825032230
         H           -1.271702831670     1.423828912220    -0.651100818745     1.007825032230
         H            0.204426168330    -0.436387087780    -1.635916818745     1.007825032230
         H            0.048814168330    -1.332171087780    -0.125521818745     1.007825032230
         H           -2.793778831670    -1.416586087780     1.922524181255     1.007825032230
         H           -3.309303831670    -2.026786087780     0.350565181255     1.007825032230
         H           -1.599093831670    -2.069135087780     0.787155181255     1.007825032230
         H           -5.042273831670    -0.667737087780    -0.360739818745     1.007825032230
         H           -4.352210831670     0.399822912220    -1.592825818745     1.007825032230
         H           -5.576336831670     1.013744912220    -0.467070818745     1.007825032230
         H            3.269899168330     1.839749912220    -0.071466818745     1.007825032230
         H            3.088832168330     1.061797912220     1.482502181255     1.007825032230
         H            4.835327168330    -0.652494087780     0.835725181255     1.007825032230
         H            5.011782168330     0.128324912220    -0.734389818745     1.007825032230
         H            5.491902168330     0.992565912220     0.740342181255     1.007825032230

  Basis Set: AUG-CC-PVTZ
    Blend: AUG-CC-PVTZ
  Basis Set: (AUG-CC-PVTZ AUX)
    Blend: AUG-CC-PVTZ-JKFIT
	 Reference Energy          =    -500.0381479357619128 [Eh]
	 Singles Energy            =      -0.0000000000000000 [Eh]
	 Same-Spin Energy          =      -0.5096694333594721 [Eh]
	 Opposite-Spin Energy      =      -1.7167769997110749 [Eh]
	 Correlation Energy        =      -2.2264464330705471 [Eh]
	 Total Energy              =    -502.2645943688324337 [Eh]

	 ================> DF-SCS-MP2 Energies <==================
	-----------------------------------------------------------
	 SCS Same-Spin Scale       =       0.3333333333333333 [-]
	 SCS Opposite-Spin Scale   =       1.2000000000000000 [-]
	 SCS Same-Spin Energy      =      -0.1698898111198240 [Eh]
	 SCS Opposite-Spin Energy  =      -2.0601323996532899 [Eh]
	 SCS Correlation Energy    =      -2.2300222107731140 [Eh]
	 SCS Total Energy          =    -502.2681701465349988 [Eh]
	-----------------------------------------------------------

  Dipole Moment: [D]
     X:    -1.4437      Y:     1.1824      Z:     0.8337     Total:     2.0439

*** Psi4 exiting successfully. Buy a developer a beer!
