                               Psi4 1.4a3.dev225

  ==> Input File <==

--------------------------------------------------------------------------
#psi4
#
memory 32 gb

molecule  {
0 1
  O       -1.1411000    -0.4541930    -0.0251880
  O       -2.5814580     1.1752260    -0.6867450
  C        2.3134570     0.0186930     0.2462000
  C        3.5222300    -0.8802230     0.3222130
  C        1.1937340    -0.4134970    -0.3651820
  C       -0.0647290     0.3542590    -0.5783780
  C        2.4850690     1.3863280     0.8546590
  C        4.7190700    -0.3405130    -0.4677320
  C       -3.4286640    -0.8122060     0.4327630
  C       -2.3783205     0.1115998    -0.1670486
  C       -4.8282690    -0.2261570     0.3119590
  H        3.2581340    -1.8761120    -0.0507320
  H        3.8122360    -1.0018650     1.3748590
  H        1.1815530    -1.4238220    -0.7735790
  H       -0.2705280     0.5138520    -1.6430550
  H       -0.0714200     1.3330110    -0.0949940
  H        3.0182560     1.3061200     1.8081990
  H        3.0814560     2.0379150     0.2067330
  H        1.5342700     1.8877430     1.0433380
  H        5.0646870     0.6170420    -0.0694620
  H        4.4484560    -0.1949880    -1.5176090
  H        5.5583810    -1.0408350    -0.4253590
  H       -3.3536290    -1.7820470    -0.0715700
  H       -3.1585900    -0.9983310     1.4781360
  H       -4.8922970     0.7333770     0.8287030
  H       -5.0879650    -0.0561110    -0.7346540
  H       -5.5642940    -0.9066400     0.7478690
units angstrom
no_reorient  #important for SAPT in psi4, default
symmetry c1  #important for SAPT in psi4, default
}

set PROPERTIES_ORIGIN ["COM"]
properties('MP2/aug-cc-pvtz', properties = ['dipole'])
--------------------------------------------------------------------------

    Molecular point group: c1
  Charge       = 0
  Multiplicity = 1
  Basis Set: AUG-CC-PVTZ
    Blend: AUG-CC-PVTZ
  Basis Set: (AUG-CC-PVTZ AUX)
    Blend: AUG-CC-PVTZ-JKFIT

    Orbital Energies [Eh]
    ---------------------

    Doubly Occupied:

       1A    -20.594279     2A    -20.544873     3A    -11.374381
       4A    -11.285527     5A    -11.243778     6A    -11.242150
       7A    -11.228143     8A    -11.225743     9A    -11.222881
      10A    -11.218939    11A    -11.217861    12A     -1.448534
      13A     -1.356187    14A     -1.111344    15A     -1.060706
      16A     -1.020778    17A     -0.975881    18A     -0.918793
      19A     -0.877783    20A     -0.831691    21A     -0.765580
      22A     -0.722267    23A     -0.689031    24A     -0.678521
      25A     -0.661554    26A     -0.637768    27A     -0.624141
      28A     -0.603825    29A     -0.589949    30A     -0.571435
      31A     -0.554044    32A     -0.545972    33A     -0.534841
      34A     -0.520880    35A     -0.518817    36A     -0.512979
      37A     -0.512763    38A     -0.493806    39A     -0.484279
      40A     -0.465839    41A     -0.458978    42A     -0.444253
      43A     -0.345216

  @DF-RHF Final Energy:  -500.03911488887798

   => Energetics <=

    Nuclear Repulsion Energy =            602.5664226027881796
    One-Electron Energy =               -1875.3370932431814708
    Two-Electron Energy =                 772.7315557515153159
    Total Energy =                       -500.0391148888779753
  Basis Set: (AUG-CC-PVTZ AUX)
    Blend: AUG-CC-PVTZ-RI
    Molecular point group: c1

    Geometry (in Angstrom), charge = 0, multiplicity = 1:

       Center              X                  Y                   Z               Mass
    ------------   -----------------  -----------------  -----------------  -----------------
         O           -1.086567203001    -0.460943864187    -0.011156309423    15.994914619570
         O           -2.526925203001     1.168475135813    -0.672713309423    15.994914619570
         C            2.367989796999     0.011942135813     0.260231690577    12.000000000000
         C            3.576762796999    -0.886973864187     0.336244690577    12.000000000000
         C            1.248266796999    -0.420247864187    -0.351150309423    12.000000000000
         C           -0.010196203001     0.347508135813    -0.564346309423    12.000000000000
         C            2.539601796999     1.379577135813     0.868690690577    12.000000000000
         C            4.773602796999    -0.347263864187    -0.453700309423    12.000000000000
         C           -3.374131203001    -0.818956864187     0.446794690577    12.000000000000
         C           -2.323787703001     0.104848935813    -0.153016909423    12.000000000000
         C           -4.773736203001    -0.232907864187     0.325990690577    12.000000000000
         H            3.312666796999    -1.882862864187    -0.036700309423     1.007825032230
         H            3.866768796999    -1.008615864187     1.388890690577     1.007825032230
         H            1.236085796999    -1.430572864187    -0.759547309423     1.007825032230
         H           -0.215995203001     0.507101135813    -1.629023309423     1.007825032230
         H           -0.016887203001     1.326260135813    -0.080962309423     1.007825032230
         H            3.072788796999     1.299369135813     1.822230690577     1.007825032230
         H            3.135988796999     2.031164135813     0.220764690577     1.007825032230
         H            1.588802796999     1.880992135813     1.057369690577     1.007825032230
         H            5.119219796999     0.610291135813    -0.055430309423     1.007825032230
         H            4.502988796999    -0.201738864187    -1.503577309423     1.007825032230
         H            5.612913796999    -1.047585864187    -0.411327309423     1.007825032230
         H           -3.299096203001    -1.788797864187    -0.057538309423     1.007825032230
         H           -3.104057203001    -1.005081864187     1.492167690577     1.007825032230
         H           -4.837764203001     0.726626135813     0.842734690577     1.007825032230
         H           -5.033432203001    -0.062861864187    -0.720622309423     1.007825032230
         H           -5.509761203001    -0.913390864187     0.761900690577     1.007825032230

  Basis Set: AUG-CC-PVTZ
    Blend: AUG-CC-PVTZ
  Basis Set: (AUG-CC-PVTZ AUX)
    Blend: AUG-CC-PVTZ-JKFIT
	 Reference Energy          =    -500.0391148888779753 [Eh]
	 Singles Energy            =      -0.0000000000000000 [Eh]
	 Same-Spin Energy          =      -0.5093579755221369 [Eh]
	 Opposite-Spin Energy      =      -1.7163519058329622 [Eh]
	 Correlation Energy        =      -2.2257098813550993 [Eh]
	 Total Energy              =    -502.2648247702330764 [Eh]

	 ================> DF-SCS-MP2 Energies <==================
	-----------------------------------------------------------
	 SCS Same-Spin Scale       =       0.3333333333333333 [-]
	 SCS Opposite-Spin Scale   =       1.2000000000000000 [-]
	 SCS Same-Spin Energy      =      -0.1697859918407123 [Eh]
	 SCS Opposite-Spin Energy  =      -2.0596222869995544 [Eh]
	 SCS Correlation Energy    =      -2.2294082788402667 [Eh]
	 SCS Total Energy          =    -502.2685231677182287 [Eh]
	-----------------------------------------------------------

  Dipole Moment: [D]
     X:     1.3535      Y:    -1.0981      Z:     0.7497     Total:     1.8973

*** Psi4 exiting successfully. Buy a developer a beer!
