                               Psi4 1.3.2 release

  ==> Input File <==

--------------------------------------------------------------------------
#psi4
#
memory 32 gb

molecule  {
0 1
  O        1.0716460     0.4753830     0.0137820
  O        2.5311320    -1.1057930    -0.7123110
  C       -2.3693550    -0.0883010     0.2982860
  C       -3.5980660     0.7810210     0.4066790
  C       -1.2626340     0.3942960    -0.2965320
  C        0.0432073    -0.3648337    -0.5777424
  C       -2.5132090    -1.4745150     0.8629900
  C       -4.7090750     0.3554230    -0.5595870
  C        3.3545870     0.8742710     0.4380940
  C        2.2927928    -0.0815878    -0.1712246
  C        4.7580620     0.3036620     0.3135630
  H       -3.3290990     1.8240090     0.2046860
  H       -3.9789780     0.7461160     1.4360390
  H       -1.2730680     1.4248330    -0.6509560
  H        0.2030610    -0.4353830    -1.6357720
  H        0.0474490    -1.3311670    -0.1253770
  H       -2.7951440    -1.4155820     1.9226690
  H       -3.3106690    -2.0257820     0.3507100
  H       -1.6004590    -2.0681310     0.7873000
  H       -5.0436390    -0.6667330    -0.3605950
  H       -4.3535760     0.4008270    -1.5926810
  H       -5.5777020     1.0147490    -0.4669260
  H        3.2685340     1.8407540    -0.0713220
  H        3.0874670     1.0628020     1.4826470
  H        4.8339620    -0.6514900     0.8358700
  H        5.0104170     0.1293290    -0.7342450
  H        5.4905370     0.9935700     0.7404870
units angstrom
no_reorient  #important for SAPT in psi4, default
symmetry c1  #important for SAPT in psi4, default
}

set PROPERTIES_ORIGIN ["COM"]
properties('MP2/aug-cc-pvtz', properties = ['dipole'])
--------------------------------------------------------------------------

    Molecular point group: c1
  Charge       = 0
  Multiplicity = 1
  Basis Set: AUG-CC-PVTZ
    Blend: AUG-CC-PVTZ
  Basis Set: (AUG-CC-PVTZ AUX)
    Blend: AUG-CC-PVTZ-JKFIT

    Orbital Energies [Eh]
    ---------------------

    Doubly Occupied:

       1A    -20.599075     2A    -20.547014     3A    -11.371906
       4A    -11.285573     5A    -11.241963     6A    -11.239391
       7A    -11.227449     8A    -11.226027     9A    -11.225078
      10A    -11.218514    11A    -11.215503    12A     -1.460531
      13A     -1.369117    14A     -1.109107    15A     -1.054688
      16A     -1.016842    17A     -0.975855    18A     -0.917816
      19A     -0.872592    20A     -0.833647    21A     -0.771448
      22A     -0.720092    23A     -0.690863    24A     -0.684580
      25A     -0.666664    26A     -0.636622    27A     -0.620672
      28A     -0.606264    29A     -0.587505    30A     -0.573749
      31A     -0.555365    32A     -0.546426    33A     -0.539062
      34A     -0.519956    35A     -0.518703    36A     -0.515423
      37A     -0.511947    38A     -0.493652    39A     -0.482486
      40A     -0.468479    41A     -0.461452    42A     -0.440178
      43A     -0.345093

  @DF-RHF Final Energy:  -500.03566819450100

   => Energetics <=

    Nuclear Repulsion Energy =            603.1491934560756363
    One-Electron Energy =               -1876.4409763913520237
    Two-Electron Energy =                 773.2561147407753879
    Total Energy =                       -500.0356681945009996
  Basis Set: (AUG-CC-PVTZ AUX)
    Blend: AUG-CC-PVTZ-RI
    Molecular point group: c1

    Geometry (in Angstrom), charge = 0, multiplicity = 1:

       Center              X                  Y                   Z               Mass
    ------------   -----------------  -----------------  -----------------  -----------------
         O            1.070441732186     0.480768854313     0.016725065879    15.994914619570
         O            2.529927732186    -1.100407145687    -0.709367934121    15.994914619570
         C           -2.370559267814    -0.082915145687     0.301229065879    12.000000000000
         C           -3.599270267814     0.786406854313     0.409622065879    12.000000000000
         C           -1.263838267814     0.399681854313    -0.293588934121    12.000000000000
         C            0.042003032186    -0.359447845687    -0.574799334121    12.000000000000
         C           -2.514413267814    -1.469129145687     0.865933065879    12.000000000000
         C           -4.710279267814     0.360808854313    -0.556643934121    12.000000000000
         C            3.353382732186     0.879656854313     0.441037065879    12.000000000000
         C            2.291588532186    -0.076201945687    -0.168281534121    12.000000000000
         C            4.756857732186     0.309047854313     0.316506065879    12.000000000000
         H           -3.330303267814     1.829394854313     0.207629065879     1.007825032230
         H           -3.980182267814     0.751501854313     1.438982065879     1.007825032230
         H           -1.274272267814     1.430218854313    -0.648012934121     1.007825032230
         H            0.201856732186    -0.429997145687    -1.632828934121     1.007825032230
         H            0.046244732186    -1.325781145687    -0.122433934121     1.007825032230
         H           -2.796348267814    -1.410196145687     1.925612065879     1.007825032230
         H           -3.311873267814    -2.020396145687     0.353653065879     1.007825032230
         H           -1.601663267814    -2.062745145687     0.790243065879     1.007825032230
         H           -5.044843267814    -0.661347145687    -0.357651934121     1.007825032230
         H           -4.354780267814     0.406212854313    -1.589737934121     1.007825032230
         H           -5.578906267814     1.020134854313    -0.463982934121     1.007825032230
         H            3.267329732186     1.846139854313    -0.068378934121     1.007825032230
         H            3.086262732186     1.068187854313     1.485590065879     1.007825032230
         H            4.832757732186    -0.646104145687     0.838813065879     1.007825032230
         H            5.009212732186     0.134714854313    -0.731301934121     1.007825032230
         H            5.489332732186     0.998955854313     0.743430065879     1.007825032230

  Basis Set: AUG-CC-PVTZ
    Blend: AUG-CC-PVTZ
  Basis Set: (AUG-CC-PVTZ AUX)
    Blend: AUG-CC-PVTZ-JKFIT
	 Reference Energy          =    -500.0356681945009996 [Eh]
	 Singles Energy            =      -0.0000000000000000 [Eh]
	 Same-Spin Energy          =      -0.5086123718026140 [Eh]
	 Opposite-Spin Energy      =      -1.7153029850690202 [Eh]
	 Correlation Energy        =      -2.2239153568716343 [Eh]
	 Total Energy              =    -502.2595835513726570 [Eh]

	 ================> DF-SCS-MP2 Energies <==================
	-----------------------------------------------------------
	 SCS Same-Spin Scale       =       0.3333333333333333 [-]
	 SCS Opposite-Spin Scale   =       1.2000000000000000 [-]
	 SCS Same-Spin Energy      =      -0.1695374572675380 [Eh]
	 SCS Opposite-Spin Energy  =      -2.0583635820828241 [Eh]
	 SCS Correlation Energy    =      -2.2279010393503622 [Eh]
	 SCS Total Energy          =    -502.2635692338513422 [Eh]
	-----------------------------------------------------------

  Dipole Moment: [D]
     X:    -1.4219      Y:     0.9475      Z:     0.6761     Total:     1.8375

*** Psi4 exiting successfully. Buy a developer a beer!
