                               Psi4 1.3.2 release

  ==> Input File <==

--------------------------------------------------------------------------
#psi4
#
memory 32 gb

molecule  {
0 1
  O        1.0716460     0.4753830     0.0137820
  O        2.5311320    -1.1057930    -0.7123110
  C       -2.3693550    -0.0883010     0.2982860
  C       -3.5980660     0.7810210     0.4066790
  C       -1.2626340     0.3942960    -0.2965320
  C        0.0082920    -0.3313460    -0.5624280
  C       -2.5132090    -1.4745150     0.8629900
  C       -4.7090750     0.3554230    -0.5595870
  C        3.3545870     0.8742710     0.4380940
  C        2.3120420    -0.0450080    -0.1482500
  C        4.8503870     0.2661255     0.3053710
  H       -3.3290990     1.8240090     0.2046860
  H       -3.9789780     0.7461160     1.4360390
  H       -1.2730680     1.4248330    -0.6509560
  H        0.2030610    -0.4353830    -1.6357720
  H        0.0474490    -1.3311670    -0.1253770
  H       -2.7951440    -1.4155820     1.9226690
  H       -3.3106690    -2.0257820     0.3507100
  H       -1.6004590    -2.0681310     0.7873000
  H       -5.0436390    -0.6667330    -0.3605950
  H       -4.3535760     0.4008270    -1.5926810
  H       -5.5777020     1.0147490    -0.4669260
  H        3.2685340     1.8407540    -0.0713220
  H        3.0874670     1.0628020     1.4826470
  H        4.8339620    -0.6514900     0.8358700
  H        5.0104170     0.1293290    -0.7342450
  H        5.4905370     0.9935700     0.7404870
units angstrom
no_reorient  #important for SAPT in psi4, default
symmetry c1  #important for SAPT in psi4, default
}

set PROPERTIES_ORIGIN ["COM"]
properties('MP2/aug-cc-pvtz', properties = ['dipole'])
--------------------------------------------------------------------------

    Molecular point group: c1
  Charge       = 0
  Multiplicity = 1
  Basis Set: AUG-CC-PVTZ
    Blend: AUG-CC-PVTZ
  Basis Set: (AUG-CC-PVTZ AUX)
    Blend: AUG-CC-PVTZ-JKFIT

    Orbital Energies [Eh]
    ---------------------

    Doubly Occupied:

       1A    -20.596859     2A    -20.539876     3A    -11.375088
       4A    -11.286171     5A    -11.244659     6A    -11.244051
       7A    -11.228272     8A    -11.226248     9A    -11.223090
      10A    -11.219087    11A    -11.216634    12A     -1.447487
      13A     -1.346835    14A     -1.112214    15A     -1.052538
      16A     -1.018721    17A     -0.977215    18A     -0.921162
      19A     -0.884281    20A     -0.834170    21A     -0.767036
      22A     -0.721563    23A     -0.685602    24A     -0.679180
      25A     -0.658217    26A     -0.637120    27A     -0.623365
      28A     -0.605400    29A     -0.588865    30A     -0.574761
      31A     -0.555280    32A     -0.548724    33A     -0.538153
      34A     -0.527781    35A     -0.518278    36A     -0.513547
      37A     -0.500159    38A     -0.488366    39A     -0.482964
      40A     -0.465294    41A     -0.457081    42A     -0.443976
      43A     -0.345846

  @DF-RHF Final Energy:  -500.03118959238691

   => Energetics <=

    Nuclear Repulsion Energy =            601.5959286920133309
    One-Electron Energy =               -1873.4118046356302330
    Two-Electron Energy =                 771.7846863512299933
    Total Energy =                       -500.0311895923869088
  Basis Set: (AUG-CC-PVTZ AUX)
    Blend: AUG-CC-PVTZ-RI
    Molecular point group: c1

    Geometry (in Angstrom), charge = 0, multiplicity = 1:

       Center              X                  Y                   Z               Mass
    ------------   -----------------  -----------------  -----------------  -----------------
         O            1.064549238674     0.478268313522     0.014411617901    15.994914619570
         O            2.524035238674    -1.102907686478    -0.711681382099    15.994914619570
         C           -2.376451761326    -0.085415686478     0.298915617901    12.000000000000
         C           -3.605162761326     0.783906313522     0.407308617901    12.000000000000
         C           -1.269730761326     0.397181313522    -0.295902382099    12.000000000000
         C            0.001195238674    -0.328460686478    -0.561798382099    12.000000000000
         C           -2.520305761326    -1.471629686478     0.863619617901    12.000000000000
         C           -4.716171761326     0.358308313522    -0.558957382099    12.000000000000
         C            3.347490238674     0.877156313522     0.438723617901    12.000000000000
         C            2.304945238674    -0.042122686478    -0.147620382099    12.000000000000
         C            4.843290238674     0.269010813522     0.306000617901    12.000000000000
         H           -3.336195761326     1.826894313522     0.205315617901     1.007825032230
         H           -3.986074761326     0.749001313522     1.436668617901     1.007825032230
         H           -1.280164761326     1.427718313522    -0.650326382099     1.007825032230
         H            0.195964238674    -0.432497686478    -1.635142382099     1.007825032230
         H            0.040352238674    -1.328281686478    -0.124747382099     1.007825032230
         H           -2.802240761326    -1.412696686478     1.923298617901     1.007825032230
         H           -3.317765761326    -2.022896686478     0.351339617901     1.007825032230
         H           -1.607555761326    -2.065245686478     0.787929617901     1.007825032230
         H           -5.050735761326    -0.663847686478    -0.359965382099     1.007825032230
         H           -4.360672761326     0.403712313522    -1.592051382099     1.007825032230
         H           -5.584798761326     1.017634313522    -0.466296382099     1.007825032230
         H            3.261437238674     1.843639313522    -0.070692382099     1.007825032230
         H            3.080370238674     1.065687313522     1.483276617901     1.007825032230
         H            4.826865238674    -0.648604686478     0.836499617901     1.007825032230
         H            5.003320238674     0.132214313522    -0.733615382099     1.007825032230
         H            5.483440238674     0.996455313522     0.741116617901     1.007825032230

  Basis Set: AUG-CC-PVTZ
    Blend: AUG-CC-PVTZ
  Basis Set: (AUG-CC-PVTZ AUX)
    Blend: AUG-CC-PVTZ-JKFIT
	 Reference Energy          =    -500.0311895923869088 [Eh]
	 Singles Energy            =      -0.0000000000000000 [Eh]
	 Same-Spin Energy          =      -0.5094194601286113 [Eh]
	 Opposite-Spin Energy      =      -1.7167915295923510 [Eh]
	 Correlation Energy        =      -2.2262109897209621 [Eh]
	 Total Energy              =    -502.2574005821078913 [Eh]

	 ================> DF-SCS-MP2 Energies <==================
	-----------------------------------------------------------
	 SCS Same-Spin Scale       =       0.3333333333333333 [-]
	 SCS Opposite-Spin Scale   =       1.2000000000000000 [-]
	 SCS Same-Spin Energy      =      -0.1698064867095371 [Eh]
	 SCS Opposite-Spin Energy  =      -2.0601498355108210 [Eh]
	 SCS Correlation Energy    =      -2.2299563222203580 [Eh]
	 SCS Total Energy          =    -502.2611459146072548 [Eh]
	-----------------------------------------------------------

  Dipole Moment: [D]
     X:    -1.4304      Y:     1.1887      Z:     0.8375     Total:     2.0397

*** Psi4 exiting successfully. Buy a developer a beer!
