                               Psi4 1.3.2 release

  ==> Input File <==

--------------------------------------------------------------------------
#psi4
#
memory 32 gb

molecule  {
0 1
  O        1.0538436     0.4378246    -0.0087766
  O        2.4892383    -1.1100756    -0.7189185
  C       -2.3693550    -0.0883010     0.2982860
  C       -3.5980660     0.7810210     0.4066790
  C       -1.2626340     0.3942960    -0.2965320
  C        0.0082920    -0.3313460    -0.5624280
  C       -2.5132090    -1.4745150     0.8629900
  C       -4.7090750     0.3554230    -0.5595870
  C        3.3545870     0.8742710     0.4380940
  C        2.3120420    -0.0450080    -0.1482500
  C        4.7580620     0.3036620     0.3135630
  H       -3.3290990     1.8240090     0.2046860
  H       -3.9789780     0.7461160     1.4360390
  H       -1.2730680     1.4248330    -0.6509560
  H        0.2030610    -0.4353830    -1.6357720
  H        0.0474490    -1.3311670    -0.1253770
  H       -2.7951440    -1.4155820     1.9226690
  H       -3.3106690    -2.0257820     0.3507100
  H       -1.6004590    -2.0681310     0.7873000
  H       -5.0436390    -0.6667330    -0.3605950
  H       -4.3535760     0.4008270    -1.5926810
  H       -5.5777020     1.0147490    -0.4669260
  H        3.2685340     1.8407540    -0.0713220
  H        3.0874670     1.0628020     1.4826470
  H        4.8339620    -0.6514900     0.8358700
  H        5.0104170     0.1293290    -0.7342450
  H        5.4905370     0.9935700     0.7404870
units angstrom
no_reorient  #important for SAPT in psi4, default
symmetry c1  #important for SAPT in psi4, default
}

set PROPERTIES_ORIGIN ["COM"]
properties('MP2/aug-cc-pvtz', properties = ['dipole'])
--------------------------------------------------------------------------

    Molecular point group: c1
  Charge       = 0
  Multiplicity = 1
  Basis Set: AUG-CC-PVTZ
    Blend: AUG-CC-PVTZ
  Basis Set: (AUG-CC-PVTZ AUX)
    Blend: AUG-CC-PVTZ-JKFIT

    Orbital Energies [Eh]
    ---------------------

    Doubly Occupied:

       1A    -20.592418     2A    -20.539680     3A    -11.377133
       4A    -11.280328     5A    -11.247970     6A    -11.241934
       7A    -11.226954     8A    -11.224538     9A    -11.221603
      10A    -11.220951    11A    -11.217956    12A     -1.455661
      13A     -1.347259    14A     -1.110544    15A     -1.068336
      16A     -1.021054    17A     -0.977535    18A     -0.921148
      19A     -0.879949    20A     -0.833732    21A     -0.768473
      22A     -0.723876    23A     -0.691157    24A     -0.682841
      25A     -0.661211    26A     -0.638802    27A     -0.623685
      28A     -0.607529    29A     -0.588650    30A     -0.573825
      31A     -0.550861    32A     -0.542218    33A     -0.532134
      34A     -0.526202    35A     -0.518837    36A     -0.514297
      37A     -0.510219    38A     -0.494094    39A     -0.482372
      40A     -0.463061    41A     -0.452208    42A     -0.445577
      43A     -0.344113

  @DF-RHF Final Energy:  -500.03826700645646

   => Energetics <=

    Nuclear Repulsion Energy =            604.1465131756061737
    One-Electron Energy =               -1878.4837153107234826
    Two-Electron Energy =                 774.2989351286610145
    Total Energy =                       -500.0382670064564081
  Basis Set: (AUG-CC-PVTZ AUX)
    Blend: AUG-CC-PVTZ-RI
    Molecular point group: c1

    Geometry (in Angstrom), charge = 0, multiplicity = 1:

       Center              X                  Y                   Z               Mass
    ------------   -----------------  -----------------  -----------------  -----------------
         O            1.059959749858     0.442111477631    -0.005788430973    15.994914619570
         O            2.495354449858    -1.105788722369    -0.715930330973    15.994914619570
         C           -2.363238850142    -0.084014122369     0.301274169027    12.000000000000
         C           -3.591949850142     0.785307877631     0.409667169027    12.000000000000
         C           -1.256517850142     0.398582877631    -0.293543830973    12.000000000000
         C            0.014408149858    -0.327059122369    -0.559439830973    12.000000000000
         C           -2.507092850142    -1.470228122369     0.865978169027    12.000000000000
         C           -4.702958850142     0.359709877631    -0.556598830973    12.000000000000
         C            3.360703149858     0.878557877631     0.441082169027    12.000000000000
         C            2.318158149858    -0.040721122369    -0.145261830973    12.000000000000
         C            4.764178149858     0.307948877631     0.316551169027    12.000000000000
         H           -3.322982850142     1.828295877631     0.207674169027     1.007825032230
         H           -3.972861850142     0.750402877631     1.439027169027     1.007825032230
         H           -1.266951850142     1.429119877631    -0.647967830973     1.007825032230
         H            0.209177149858    -0.431096122369    -1.632783830973     1.007825032230
         H            0.053565149858    -1.326880122369    -0.122388830973     1.007825032230
         H           -2.789027850142    -1.411295122369     1.925657169027     1.007825032230
         H           -3.304552850142    -2.021495122369     0.353698169027     1.007825032230
         H           -1.594342850142    -2.063844122369     0.790288169027     1.007825032230
         H           -5.037522850142    -0.662446122369    -0.357606830973     1.007825032230
         H           -4.347459850142     0.405113877631    -1.589692830973     1.007825032230
         H           -5.571585850142     1.019035877631    -0.463937830973     1.007825032230
         H            3.274650149858     1.845040877631    -0.068333830973     1.007825032230
         H            3.093583149858     1.067088877631     1.485635169027     1.007825032230
         H            4.840078149858    -0.647203122369     0.838858169027     1.007825032230
         H            5.016533149858     0.133615877631    -0.731256830973     1.007825032230
         H            5.496653149858     0.997856877631     0.743475169027     1.007825032230

  Basis Set: AUG-CC-PVTZ
    Blend: AUG-CC-PVTZ
  Basis Set: (AUG-CC-PVTZ AUX)
    Blend: AUG-CC-PVTZ-JKFIT
	 Reference Energy          =    -500.0382670064564650 [Eh]
	 Singles Energy            =      -0.0000000000000000 [Eh]
	 Same-Spin Energy          =      -0.5094548477863333 [Eh]
	 Opposite-Spin Energy      =      -1.7155686073581600 [Eh]
	 Correlation Energy        =      -2.2250234551444934 [Eh]
	 Total Energy              =    -502.2632904616009455 [Eh]

	 ================> DF-SCS-MP2 Energies <==================
	-----------------------------------------------------------
	 SCS Same-Spin Scale       =       0.3333333333333333 [-]
	 SCS Opposite-Spin Scale   =       1.2000000000000000 [-]
	 SCS Same-Spin Energy      =      -0.1698182825954444 [Eh]
	 SCS Opposite-Spin Energy  =      -2.0586823288297920 [Eh]
	 SCS Correlation Energy    =      -2.2285006114252366 [Eh]
	 SCS Total Energy          =    -502.2667676178817260 [Eh]
	-----------------------------------------------------------

  Dipole Moment: [D]
     X:    -1.1051      Y:     1.3077      Z:     0.9211     Total:     1.9441

*** Psi4 exiting successfully. Buy a developer a beer!
