                               Psi4 1.3.2 release

  ==> Input File <==

--------------------------------------------------------------------------
#psi4
#
memory 32 gb

molecule  {
0 1
  O        1.0716460     0.4753830     0.0137820
  O        2.5311320    -1.1057930    -0.7123110
  C       -2.3693550    -0.0883010     0.2982860
  C       -3.5980660     0.7810210     0.4066790
  C       -1.2316636     0.3320124    -0.2852674
  C        0.0082920    -0.3313460    -0.5624280
  C       -2.4391995    -1.4891299     0.8404797
  C       -4.7090750     0.3554230    -0.5595870
  C        3.3545870     0.8742710     0.4380940
  C        2.3120420    -0.0450080    -0.1482500
  C        4.7580620     0.3036620     0.3135630
  H       -3.3290990     1.8240090     0.2046860
  H       -3.9789780     0.7461160     1.4360390
  H       -1.2730680     1.4248330    -0.6509560
  H        0.2030610    -0.4353830    -1.6357720
  H        0.0474490    -1.3311670    -0.1253770
  H       -2.7951440    -1.4155820     1.9226690
  H       -3.3106690    -2.0257820     0.3507100
  H       -1.6004590    -2.0681310     0.7873000
  H       -5.0436390    -0.6667330    -0.3605950
  H       -4.3535760     0.4008270    -1.5926810
  H       -5.5777020     1.0147490    -0.4669260
  H        3.2685340     1.8407540    -0.0713220
  H        3.0874670     1.0628020     1.4826470
  H        4.8339620    -0.6514900     0.8358700
  H        5.0104170     0.1293290    -0.7342450
  H        5.4905370     0.9935700     0.7404870
units angstrom
no_reorient  #important for SAPT in psi4, default
symmetry c1  #important for SAPT in psi4, default
}

set PROPERTIES_ORIGIN ["COM"]
properties('MP2/aug-cc-pvtz', properties = ['dipole'])
--------------------------------------------------------------------------

    Molecular point group: c1
  Charge       = 0
  Multiplicity = 1
  Basis Set: AUG-CC-PVTZ
    Blend: AUG-CC-PVTZ
  Basis Set: (AUG-CC-PVTZ AUX)
    Blend: AUG-CC-PVTZ-JKFIT

    Orbital Energies [Eh]
    ---------------------

    Doubly Occupied:

       1A    -20.598126     2A    -20.541146     3A    -11.376085
       4A    -11.285086     5A    -11.246319     6A    -11.242461
       7A    -11.232953     8A    -11.226281     9A    -11.223773
      10A    -11.220984    11A    -11.218055    12A     -1.449022
      13A     -1.348401    14A     -1.115603    15A     -1.065063
      16A     -1.028718    17A     -0.981317    18A     -0.916427
      19A     -0.881989    20A     -0.834908    21A     -0.768486
      22A     -0.721394    23A     -0.687809    24A     -0.684320
      25A     -0.661398    26A     -0.640588    27A     -0.627567
      28A     -0.604534    29A     -0.587078    30A     -0.573388
      31A     -0.553950    32A     -0.546298    33A     -0.536027
      34A     -0.521473    35A     -0.516936    36A     -0.512304
      37A     -0.503951    38A     -0.492377    39A     -0.486717
      40A     -0.468173    41A     -0.457538    42A     -0.444527
      43A     -0.343452

  @DF-RHF Final Energy:  -500.02385317656058

   => Energetics <=

    Nuclear Repulsion Energy =            604.0238091689601561
    One-Electron Energy =               -1878.1493189244395126
    Two-Electron Energy =                 774.1016565789188917
    Total Energy =                       -500.0238531765605785
  Basis Set: (AUG-CC-PVTZ AUX)
    Blend: AUG-CC-PVTZ-RI
    Molecular point group: c1

    Geometry (in Angstrom), charge = 0, multiplicity = 1:

       Center              X                  Y                   Z               Mass
    ------------   -----------------  -----------------  -----------------  -----------------
         O            1.063576502095     0.481293928677     0.014646344820    15.994914619570
         O            2.523062502095    -1.099882071323    -0.711446655180    15.994914619570
         C           -2.377424497905    -0.082390071323     0.299150344820    12.000000000000
         C           -3.606135497905     0.786931928677     0.407543344820    12.000000000000
         C           -1.239733097905     0.337923328677    -0.284403055180    12.000000000000
         C            0.000222502095    -0.325435071323    -0.561563655180    12.000000000000
         C           -2.447268997905    -1.483218971323     0.841344044820    12.000000000000
         C           -4.717144497905     0.361333928677    -0.558722655180    12.000000000000
         C            3.346517502095     0.880181928677     0.438958344820    12.000000000000
         C            2.303972502095    -0.039097071323    -0.147385655180    12.000000000000
         C            4.749992502095     0.309572928677     0.314427344820    12.000000000000
         H           -3.337168497905     1.829919928677     0.205550344820     1.007825032230
         H           -3.987047497905     0.752026928677     1.436903344820     1.007825032230
         H           -1.281137497905     1.430743928677    -0.650091655180     1.007825032230
         H            0.194991502095    -0.429472071323    -1.634907655180     1.007825032230
         H            0.039379502095    -1.325256071323    -0.124512655180     1.007825032230
         H           -2.803213497905    -1.409671071323     1.923533344820     1.007825032230
         H           -3.318738497905    -2.019871071323     0.351574344820     1.007825032230
         H           -1.608528497905    -2.062220071323     0.788164344820     1.007825032230
         H           -5.051708497905    -0.660822071323    -0.359730655180     1.007825032230
         H           -4.361645497905     0.406737928677    -1.591816655180     1.007825032230
         H           -5.585771497905     1.020659928677    -0.466061655180     1.007825032230
         H            3.260464502095     1.846664928677    -0.070457655180     1.007825032230
         H            3.079397502095     1.068712928677     1.483511344820     1.007825032230
         H            4.825892502095    -0.645579071323     0.836734344820     1.007825032230
         H            5.002347502095     0.135239928677    -0.733380655180     1.007825032230
         H            5.482467502095     0.999480928677     0.741351344820     1.007825032230

  Basis Set: AUG-CC-PVTZ
    Blend: AUG-CC-PVTZ
  Basis Set: (AUG-CC-PVTZ AUX)
    Blend: AUG-CC-PVTZ-JKFIT
	 Reference Energy          =    -500.0238531765605785 [Eh]
	 Singles Energy            =      -0.0000000000000000 [Eh]
	 Same-Spin Energy          =      -0.5106607592361861 [Eh]
	 Opposite-Spin Energy      =      -1.7180351279813597 [Eh]
	 Correlation Energy        =      -2.2286958872175457 [Eh]
	 Total Energy              =    -502.2525490637781331 [Eh]

	 ================> DF-SCS-MP2 Energies <==================
	-----------------------------------------------------------
	 SCS Same-Spin Scale       =       0.3333333333333333 [-]
	 SCS Opposite-Spin Scale   =       1.2000000000000000 [-]
	 SCS Same-Spin Energy      =      -0.1702202530787287 [Eh]
	 SCS Opposite-Spin Energy  =      -2.0616421535776315 [Eh]
	 SCS Correlation Energy    =      -2.2318624066563602 [Eh]
	 SCS Total Energy          =    -502.2557155832169542 [Eh]
	-----------------------------------------------------------

  Dipole Moment: [D]
     X:    -1.4853      Y:     1.1821      Z:     0.8238     Total:     2.0693

*** Psi4 exiting successfully. Buy a developer a beer!
