                               Psi4 1.3.2 release

  ==> Input File <==

--------------------------------------------------------------------------
#psi4
#
memory 32 gb

molecule  {
0 1
  O        1.0716460     0.4753830     0.0137820
  O        2.5311320    -1.1057930    -0.7123110
  C       -2.3476694    -0.1296851     0.3032027
  C       -3.5980660     0.7810210     0.4066790
  C       -1.2626340     0.3942960    -0.2965320
  C       -0.0123285    -0.3736435    -0.5404890
  C       -2.5132090    -1.4745150     0.8629900
  C       -4.7090750     0.3554230    -0.5595870
  C        3.3545870     0.8742710     0.4380940
  C        2.3120420    -0.0450080    -0.1482500
  C        4.7580620     0.3036620     0.3135630
  H       -3.3290990     1.8240090     0.2046860
  H       -3.9789780     0.7461160     1.4360390
  H       -1.2730680     1.4248330    -0.6509560
  H        0.2030610    -0.4353830    -1.6357720
  H        0.0474490    -1.3311670    -0.1253770
  H       -2.7951440    -1.4155820     1.9226690
  H       -3.3106690    -2.0257820     0.3507100
  H       -1.6004590    -2.0681310     0.7873000
  H       -5.0436390    -0.6667330    -0.3605950
  H       -4.3535760     0.4008270    -1.5926810
  H       -5.5777020     1.0147490    -0.4669260
  H        3.2685340     1.8407540    -0.0713220
  H        3.0874670     1.0628020     1.4826470
  H        4.8339620    -0.6514900     0.8358700
  H        5.0104170     0.1293290    -0.7342450
  H        5.4905370     0.9935700     0.7404870
units angstrom
no_reorient  #important for SAPT in psi4, default
symmetry c1  #important for SAPT in psi4, default
}

set PROPERTIES_ORIGIN ["COM"]
properties('MP2/aug-cc-pvtz', properties = ['dipole'])
--------------------------------------------------------------------------

    Molecular point group: c1
  Charge       = 0
  Multiplicity = 1
  Basis Set: AUG-CC-PVTZ
    Blend: AUG-CC-PVTZ
  Basis Set: (AUG-CC-PVTZ AUX)
    Blend: AUG-CC-PVTZ-JKFIT

    Orbital Energies [Eh]
    ---------------------

    Doubly Occupied:

       1A    -20.593559     2A    -20.538410     3A    -11.372947
       4A    -11.285967     5A    -11.244410     6A    -11.240632
       7A    -11.229845     8A    -11.226975     9A    -11.225003
      10A    -11.218664    11A    -11.216773    12A     -1.441235
      13A     -1.342463    14A     -1.113649    15A     -1.061691
      16A     -1.021273    17A     -0.983169    18A     -0.918639
      19A     -0.877124    20A     -0.831244    21A     -0.765299
      22A     -0.723804    23A     -0.684946    24A     -0.678111
      25A     -0.656422    26A     -0.638085    27A     -0.621500
      28A     -0.605615    29A     -0.589015    30A     -0.575174
      31A     -0.556970    32A     -0.544485    33A     -0.534665
      34A     -0.526077    35A     -0.518691    36A     -0.512803
      37A     -0.512144    38A     -0.491847    39A     -0.485399
      40A     -0.459117    41A     -0.456160    42A     -0.442187
      43A     -0.346179

  @DF-RHF Final Energy:  -500.03246536920938

   => Energetics <=

    Nuclear Repulsion Energy =            602.8856145347937172
    One-Electron Energy =               -1876.0194202547531859
    Two-Electron Energy =                 773.1013403507502062
    Total Energy =                       -500.0324653692093761
  Basis Set: (AUG-CC-PVTZ AUX)
    Blend: AUG-CC-PVTZ-RI
    Molecular point group: c1

    Geometry (in Angstrom), charge = 0, multiplicity = 1:

       Center              X                  Y                   Z               Mass
    ------------   -----------------  -----------------  -----------------  -----------------
         O            1.071564058462     0.481815321141     0.011717627446    15.994914619570
         O            2.531050058462    -1.099360678859    -0.714375372554    15.994914619570
         C           -2.347751341538    -0.123252778859     0.301138327446    12.000000000000
         C           -3.598147941538     0.787453321141     0.404614627446    12.000000000000
         C           -1.262715941538     0.400728321141    -0.298596372554    12.000000000000
         C           -0.012410441538    -0.367211178859    -0.542553372554    12.000000000000
         C           -2.513290941538    -1.468082678859     0.860925627446    12.000000000000
         C           -4.709156941538     0.361855321141    -0.561651372554    12.000000000000
         C            3.354505058462     0.880703321141     0.436029627446    12.000000000000
         C            2.311960058462    -0.038575678859    -0.150314372554    12.000000000000
         C            4.757980058462     0.310094321141     0.311498627446    12.000000000000
         H           -3.329180941538     1.830441321141     0.202621627446     1.007825032230
         H           -3.979059941538     0.752548321141     1.433974627446     1.007825032230
         H           -1.273149941538     1.431265321141    -0.653020372554     1.007825032230
         H            0.202979058462    -0.428950678859    -1.637836372554     1.007825032230
         H            0.047367058462    -1.324734678859    -0.127441372554     1.007825032230
         H           -2.795225941538    -1.409149678859     1.920604627446     1.007825032230
         H           -3.310750941538    -2.019349678859     0.348645627446     1.007825032230
         H           -1.600540941538    -2.061698678859     0.785235627446     1.007825032230
         H           -5.043720941538    -0.660300678859    -0.362659372554     1.007825032230
         H           -4.353657941538     0.407259321141    -1.594745372554     1.007825032230
         H           -5.577783941538     1.021181321141    -0.468990372554     1.007825032230
         H            3.268452058462     1.847186321141    -0.073386372554     1.007825032230
         H            3.087385058462     1.069234321141     1.480582627446     1.007825032230
         H            4.833880058462    -0.645057678859     0.833805627446     1.007825032230
         H            5.010335058462     0.135761321141    -0.736309372554     1.007825032230
         H            5.490455058462     1.000002321141     0.738422627446     1.007825032230

  Basis Set: AUG-CC-PVTZ
    Blend: AUG-CC-PVTZ
  Basis Set: (AUG-CC-PVTZ AUX)
    Blend: AUG-CC-PVTZ-JKFIT
	 Reference Energy          =    -500.0324653692093761 [Eh]
	 Singles Energy            =      -0.0000000000000000 [Eh]
	 Same-Spin Energy          =      -0.5099669529704833 [Eh]
	 Opposite-Spin Energy      =      -1.7174279306793503 [Eh]
	 Correlation Energy        =      -2.2273948836498336 [Eh]
	 Total Energy              =    -502.2598602528591982 [Eh]

	 ================> DF-SCS-MP2 Energies <==================
	-----------------------------------------------------------
	 SCS Same-Spin Scale       =       0.3333333333333333 [-]
	 SCS Opposite-Spin Scale   =       1.2000000000000000 [-]
	 SCS Same-Spin Energy      =      -0.1699889843234944 [Eh]
	 SCS Opposite-Spin Energy  =      -2.0609135168152202 [Eh]
	 SCS Correlation Energy    =      -2.2309025011387145 [Eh]
	 SCS Total Energy          =    -502.2633678703480768 [Eh]
	-----------------------------------------------------------

  Dipole Moment: [D]
     X:    -1.5671      Y:     1.0944      Z:     0.8676     Total:     2.0991

*** Psi4 exiting successfully. Buy a developer a beer!
