                               Psi4 1.4a3.dev225

  ==> Input File <==

--------------------------------------------------------------------------
#psi4
#
memory 32 gb

molecule  {
0 1
  O       -1.1411000    -0.4541930    -0.0251880
  O       -2.5814580     1.1752260    -0.6867450
  C        2.3134570     0.0186930     0.2462000
  C        3.5222300    -0.8802230     0.3222130
  C        1.1937340    -0.4134970    -0.3651820
  C       -0.0647290     0.3542590    -0.5783780
  C        2.4850690     1.3863280     0.8546590
  C        4.7190700    -0.3405130    -0.4677320
  C       -3.4286640    -0.8122060     0.4327630
  C       -2.3888924     0.0818896    -0.1505663
  C       -4.8282690    -0.2261570     0.3119590
  H        3.2581340    -1.8761120    -0.0507320
  H        3.8122360    -1.0018650     1.3748590
  H        1.1815530    -1.4238220    -0.7735790
  H       -0.2705280     0.5138520    -1.6430550
  H       -0.0714200     1.3330110    -0.0949940
  H        3.0182560     1.3061200     1.8081990
  H        3.0814560     2.0379150     0.2067330
  H        1.5342700     1.8877430     1.0433380
  H        5.0646870     0.6170420    -0.0694620
  H        4.4484560    -0.1949880    -1.5176090
  H        5.5583810    -1.0408350    -0.4253590
  H       -3.3536290    -1.7820470    -0.0715700
  H       -3.1585900    -0.9983310     1.4781360
  H       -4.8922970     0.7333770     0.8287030
  H       -5.0879650    -0.0561110    -0.7346540
  H       -5.5642940    -0.9066400     0.7478690
units angstrom
no_reorient  #important for SAPT in psi4, default
symmetry c1  #important for SAPT in psi4, default
}

set PROPERTIES_ORIGIN ["COM"]
properties('MP2/aug-cc-pvtz', properties = ['dipole'])
--------------------------------------------------------------------------

    Molecular point group: c1
  Charge       = 0
  Multiplicity = 1
  Basis Set: AUG-CC-PVTZ
    Blend: AUG-CC-PVTZ
  Basis Set: (AUG-CC-PVTZ AUX)
    Blend: AUG-CC-PVTZ-JKFIT

    Orbital Energies [Eh]
    ---------------------

    Doubly Occupied:

       1A    -20.595716     2A    -20.540087     3A    -11.377498
       4A    -11.286123     5A    -11.244088     6A    -11.243884
       7A    -11.228315     8A    -11.225771     9A    -11.223043
      10A    -11.219603    11A    -11.219033    12A     -1.442011
      13A     -1.340209    14A     -1.111752    15A     -1.067611
      16A     -1.021662    17A     -0.976538    18A     -0.920866
      19A     -0.882124    20A     -0.832666    21A     -0.764864
      22A     -0.722295    23A     -0.687939    24A     -0.678080
      25A     -0.657458    26A     -0.638986    27A     -0.624000
      28A     -0.604530    29A     -0.588928    30A     -0.571488
      31A     -0.552745    32A     -0.544385    33A     -0.532278
      34A     -0.523755    35A     -0.517938    36A     -0.513257
      37A     -0.512312    38A     -0.492048    39A     -0.484259
      40A     -0.465233    41A     -0.454511    42A     -0.445511
      43A     -0.345659

  @DF-RHF Final Energy:  -500.03649362975273

   => Energetics <=

    Nuclear Repulsion Energy =            602.3345221203388746
    One-Electron Energy =               -1874.8999132593401100
    Two-Electron Energy =                 772.5288975092486226
    Total Energy =                       -500.0364936297527265
  Basis Set: (AUG-CC-PVTZ AUX)
    Blend: AUG-CC-PVTZ-RI
    Molecular point group: c1

    Geometry (in Angstrom), charge = 0, multiplicity = 1:

       Center              X                  Y                   Z               Mass
    ------------   -----------------  -----------------  -----------------  -----------------
         O           -1.085754579129    -0.458660148131    -0.012423244453    15.994914619570
         O           -2.526112579129     1.170758851869    -0.673980244453    15.994914619570
         C            2.368802420871     0.014225851869     0.258964755547    12.000000000000
         C            3.577575420871    -0.884690148131     0.334977755547    12.000000000000
         C            1.249079420871    -0.417964148131    -0.352417244453    12.000000000000
         C           -0.009383579129     0.349791851869    -0.565613244453    12.000000000000
         C            2.540414420871     1.381860851869     0.867423755547    12.000000000000
         C            4.774415420871    -0.344980148131    -0.454967244453    12.000000000000
         C           -3.373318579129    -0.816673148131     0.445527755547    12.000000000000
         C           -2.333546979129     0.077422451869    -0.137801544453    12.000000000000
         C           -4.772923579129    -0.230624148131     0.324723755547    12.000000000000
         H            3.313479420871    -1.880579148131    -0.037967244453     1.007825032230
         H            3.867581420871    -1.006332148131     1.387623755547     1.007825032230
         H            1.236898420871    -1.428289148131    -0.760814244453     1.007825032230
         H           -0.215182579129     0.509384851869    -1.630290244453     1.007825032230
         H           -0.016074579129     1.328543851869    -0.082229244453     1.007825032230
         H            3.073601420871     1.301652851869     1.820963755547     1.007825032230
         H            3.136801420871     2.033447851869     0.219497755547     1.007825032230
         H            1.589615420871     1.883275851869     1.056102755547     1.007825032230
         H            5.120032420871     0.612574851869    -0.056697244453     1.007825032230
         H            4.503801420871    -0.199455148131    -1.504844244453     1.007825032230
         H            5.613726420871    -1.045302148131    -0.412594244453     1.007825032230
         H           -3.298283579129    -1.786514148131    -0.058805244453     1.007825032230
         H           -3.103244579129    -1.002798148131     1.490900755547     1.007825032230
         H           -4.836951579129     0.728909851869     0.841467755547     1.007825032230
         H           -5.032619579129    -0.060578148131    -0.721889244453     1.007825032230
         H           -5.508948579129    -0.911107148131     0.760633755547     1.007825032230

  Basis Set: AUG-CC-PVTZ
    Blend: AUG-CC-PVTZ
  Basis Set: (AUG-CC-PVTZ AUX)
    Blend: AUG-CC-PVTZ-JKFIT
	 Reference Energy          =    -500.0364936297527265 [Eh]
	 Singles Energy            =      -0.0000000000000000 [Eh]
	 Same-Spin Energy          =      -0.5101094550092914 [Eh]
	 Opposite-Spin Energy      =      -1.7176925591747874 [Eh]
	 Correlation Energy        =      -2.2278020141840789 [Eh]
	 Total Energy              =    -502.2642956439368049 [Eh]

	 ================> DF-SCS-MP2 Energies <==================
	-----------------------------------------------------------
	 SCS Same-Spin Scale       =       0.3333333333333333 [-]
	 SCS Opposite-Spin Scale   =       1.2000000000000000 [-]
	 SCS Same-Spin Energy      =      -0.1700364850030971 [Eh]
	 SCS Opposite-Spin Energy  =      -2.0612310710097446 [Eh]
	 SCS Correlation Energy    =      -2.2312675560128419 [Eh]
	 SCS Total Energy          =    -502.2677611857655506 [Eh]
	-----------------------------------------------------------

  Dipole Moment: [D]
     X:     1.3398      Y:    -1.2605      Z:     0.8399     Total:     2.0222

*** Psi4 exiting successfully. Buy a developer a beer!
