                               Psi4 1.3.2 release

  ==> Input File <==

--------------------------------------------------------------------------
#psi4
#
memory 32 gb

molecule  {
0 1
  O        1.0716460     0.4753830     0.0137820
  O        2.5311320    -1.1057930    -0.7123110
  C       -2.3752721    -0.0953942     0.2889003
  C       -3.5980660     0.7810210     0.4066790
  C       -1.2626340     0.3942960    -0.2965320
  C        0.0082920    -0.3313460    -0.5624280
  C       -2.5132090    -1.4745150     0.8629900
  C       -4.7012769     0.3455415    -0.5641083
  C        3.3545870     0.8742710     0.4380940
  C        2.3120420    -0.0450080    -0.1482500
  C        4.7580620     0.3036620     0.3135630
  H       -3.3290990     1.8240090     0.2046860
  H       -3.9789780     0.7461160     1.4360390
  H       -1.2730680     1.4248330    -0.6509560
  H        0.2030610    -0.4353830    -1.6357720
  H        0.0474490    -1.3311670    -0.1253770
  H       -2.7951440    -1.4155820     1.9226690
  H       -3.3106690    -2.0257820     0.3507100
  H       -1.6004590    -2.0681310     0.7873000
  H       -5.0436390    -0.6667330    -0.3605950
  H       -4.3535760     0.4008270    -1.5926810
  H       -5.5777020     1.0147490    -0.4669260
  H        3.2685340     1.8407540    -0.0713220
  H        3.0874670     1.0628020     1.4826470
  H        4.8339620    -0.6514900     0.8358700
  H        5.0104170     0.1293290    -0.7342450
  H        5.4905370     0.9935700     0.7404870
units angstrom
no_reorient  #important for SAPT in psi4, default
symmetry c1  #important for SAPT in psi4, default
}

set PROPERTIES_ORIGIN ["COM"]
properties('MP2/aug-cc-pvtz', properties = ['dipole'])
--------------------------------------------------------------------------

    Molecular point group: c1
  Charge       = 0
  Multiplicity = 1
  Basis Set: AUG-CC-PVTZ
    Blend: AUG-CC-PVTZ
  Basis Set: (AUG-CC-PVTZ AUX)
    Blend: AUG-CC-PVTZ-JKFIT

    Orbital Energies [Eh]
    ---------------------

    Doubly Occupied:

       1A    -20.597207     2A    -20.540686     3A    -11.375446
       4A    -11.286311     5A    -11.244421     6A    -11.242149
       7A    -11.228553     8A    -11.226402     9A    -11.223445
      10A    -11.219080    11A    -11.217833    12A     -1.448024
      13A     -1.347514    14A     -1.112576    15A     -1.063906
      16A     -1.021696    17A     -0.978322    18A     -0.919277
      19A     -0.878937    20A     -0.833212    21A     -0.767335
      22A     -0.722880    23A     -0.687820    24A     -0.680124
      25A     -0.660083    26A     -0.638681    27A     -0.624259
      28A     -0.604884    29A     -0.587839    30A     -0.575134
      31A     -0.553044    32A     -0.543081    33A     -0.533662
      34A     -0.522110    35A     -0.517495    36A     -0.515224
      37A     -0.512040    38A     -0.492228    39A     -0.485585
      40A     -0.464965    41A     -0.457223    42A     -0.444297
      43A     -0.344972

  @DF-RHF Final Energy:  -500.03785351430793

   => Energetics <=

    Nuclear Repulsion Energy =            603.1528676434642193
    One-Electron Energy =               -1876.5015172706557678
    Two-Electron Energy =                 773.3107961128837360
    Total Energy =                       -500.0378535143079262
  Basis Set: (AUG-CC-PVTZ AUX)
    Blend: AUG-CC-PVTZ-RI
    Molecular point group: c1

    Geometry (in Angstrom), charge = 0, multiplicity = 1:

       Center              X                  Y                   Z               Mass
    ------------   -----------------  -----------------  -----------------  -----------------
         O            1.071501343168     0.476687802021     0.014850909365    15.994914619570
         O            2.530987343168    -1.104488197979    -0.711242090635    15.994914619570
         C           -2.375416756832    -0.094089397979     0.289969209365    12.000000000000
         C           -3.598210656832     0.782325802021     0.407747909365    12.000000000000
         C           -1.262778656832     0.395600802021    -0.295463090635    12.000000000000
         C            0.008147343168    -0.330041197979    -0.561359090635    12.000000000000
         C           -2.513353656832    -1.473210197979     0.864058909365    12.000000000000
         C           -4.701421556832     0.346846302021    -0.563039390635    12.000000000000
         C            3.354442343168     0.875575802021     0.439162909365    12.000000000000
         C            2.311897343168    -0.043703197979    -0.147181090635    12.000000000000
         C            4.757917343168     0.304966802021     0.314631909365    12.000000000000
         H           -3.329243656832     1.825313802021     0.205754909365     1.007825032230
         H           -3.979122656832     0.747420802021     1.437107909365     1.007825032230
         H           -1.273212656832     1.426137802021    -0.649887090635     1.007825032230
         H            0.202916343168    -0.434078197979    -1.634703090635     1.007825032230
         H            0.047304343168    -1.329862197979    -0.124308090635     1.007825032230
         H           -2.795288656832    -1.414277197979     1.923737909365     1.007825032230
         H           -3.310813656832    -2.024477197979     0.351778909365     1.007825032230
         H           -1.600603656832    -2.066826197979     0.788368909365     1.007825032230
         H           -5.043783656832    -0.665428197979    -0.359526090635     1.007825032230
         H           -4.353720656832     0.402131802021    -1.591612090635     1.007825032230
         H           -5.577846656832     1.016053802021    -0.465857090635     1.007825032230
         H            3.268389343168     1.842058802021    -0.070253090635     1.007825032230
         H            3.087322343168     1.064106802021     1.483715909365     1.007825032230
         H            4.833817343168    -0.650185197979     0.836938909365     1.007825032230
         H            5.010272343168     0.130633802021    -0.733176090635     1.007825032230
         H            5.490392343168     0.994874802021     0.741555909365     1.007825032230

  Basis Set: AUG-CC-PVTZ
    Blend: AUG-CC-PVTZ
  Basis Set: (AUG-CC-PVTZ AUX)
    Blend: AUG-CC-PVTZ-JKFIT
	 Reference Energy          =    -500.0378535143079262 [Eh]
	 Singles Energy            =      -0.0000000000000000 [Eh]
	 Same-Spin Energy          =      -0.5098476588577630 [Eh]
	 Opposite-Spin Energy      =      -1.7169783151883657 [Eh]
	 Correlation Energy        =      -2.2268259740461289 [Eh]
	 Total Energy              =    -502.2646794883540338 [Eh]

	 ================> DF-SCS-MP2 Energies <==================
	-----------------------------------------------------------
	 SCS Same-Spin Scale       =       0.3333333333333333 [-]
	 SCS Opposite-Spin Scale   =       1.2000000000000000 [-]
	 SCS Same-Spin Energy      =      -0.1699492196192543 [Eh]
	 SCS Opposite-Spin Energy  =      -2.0603739782260386 [Eh]
	 SCS Correlation Energy    =      -2.2303231978452929 [Eh]
	 SCS Total Energy          =    -502.2681767121532062 [Eh]
	-----------------------------------------------------------

  Dipole Moment: [D]
     X:    -1.4487      Y:     1.1798      Z:     0.8446     Total:     2.0503

*** Psi4 exiting successfully. Buy a developer a beer!
