                               Psi4 1.3.2 release

  ==> Input File <==

--------------------------------------------------------------------------
#psi4
#
memory 32 gb

molecule  {
0 1
  O        1.0716460     0.4753830     0.0137820
  O        2.5311320    -1.1057930    -0.7123110
  C       -2.3693550    -0.0883010     0.2982860
  C       -3.5980660     0.7810210     0.4066790
  C       -1.2626340     0.3942960    -0.2965320
  C       -0.1379936    -0.4423277    -0.6416972
  C       -2.5132090    -1.4745150     0.8629900
  C       -4.7090750     0.3554230    -0.5595870
  C        3.3545870     0.8742710     0.4380940
  C        2.3120420    -0.0450080    -0.1482500
  C        4.7580620     0.3036620     0.3135630
  H       -3.3290990     1.8240090     0.2046860
  H       -3.9789780     0.7461160     1.4360390
  H       -1.2730680     1.4248330    -0.6509560
  H        0.2030610    -0.4353830    -1.6357720
  H        0.0474490    -1.3311670    -0.1253770
  H       -2.7951440    -1.4155820     1.9226690
  H       -3.3106690    -2.0257820     0.3507100
  H       -1.6004590    -2.0681310     0.7873000
  H       -5.0436390    -0.6667330    -0.3605950
  H       -4.3535760     0.4008270    -1.5926810
  H       -5.5777020     1.0147490    -0.4669260
  H        3.2685340     1.8407540    -0.0713220
  H        3.0874670     1.0628020     1.4826470
  H        4.8339620    -0.6514900     0.8358700
  H        5.0104170     0.1293290    -0.7342450
  H        5.4905370     0.9935700     0.7404870
units angstrom
no_reorient  #important for SAPT in psi4, default
symmetry c1  #important for SAPT in psi4, default
}

set PROPERTIES_ORIGIN ["COM"]
properties('MP2/aug-cc-pvtz', properties = ['dipole'])
--------------------------------------------------------------------------

    Molecular point group: c1
  Charge       = 0
  Multiplicity = 1
  Basis Set: AUG-CC-PVTZ
    Blend: AUG-CC-PVTZ
  Basis Set: (AUG-CC-PVTZ AUX)
    Blend: AUG-CC-PVTZ-JKFIT

    Orbital Energies [Eh]
    ---------------------

    Doubly Occupied:

       1A    -20.568912     2A    -20.525629     3A    -11.359416
       4A    -11.295935     5A    -11.253801     6A    -11.234089
       7A    -11.233372     8A    -11.231781     9A    -11.229458
      10A    -11.224844    11A    -11.210366    12A     -1.411388
      13A     -1.314340    14A     -1.124669    15A     -1.053952
      16A     -1.031337    17A     -0.983609    18A     -0.919250
      19A     -0.876127    20A     -0.840487    21A     -0.746769
      22A     -0.723130    23A     -0.679621    24A     -0.671986
      25A     -0.639233    26A     -0.633695    27A     -0.631580
      28A     -0.602792    29A     -0.596306    30A     -0.577719
      31A     -0.554925    32A     -0.542517    33A     -0.541226
      34A     -0.530520    35A     -0.520009    36A     -0.510561
      37A     -0.491288    38A     -0.486094    39A     -0.481380
      40A     -0.477921    41A     -0.444889    42A     -0.430224
      43A     -0.351806

  @DF-RHF Final Energy:  -500.01175474113592

   => Energetics <=

    Nuclear Repulsion Energy =            601.0718596542369596
    One-Electron Energy =               -1872.5893232882633583
    Two-Electron Energy =                 771.5057088928904250
    Total Energy =                       -500.0117547411359737
  Basis Set: (AUG-CC-PVTZ AUX)
    Blend: AUG-CC-PVTZ-RI
    Molecular point group: c1

    Geometry (in Angstrom), charge = 0, multiplicity = 1:

       Center              X                  Y                   Z               Mass
    ------------   -----------------  -----------------  -----------------  -----------------
         O            1.082890376004     0.483913781491     0.019875066240    15.994914619570
         O            2.542376376004    -1.097262218509    -0.706217933760    15.994914619570
         C           -2.358110623996    -0.079770218509     0.304379066240    12.000000000000
         C           -3.586821623996     0.789551781491     0.412772066240    12.000000000000
         C           -1.251389623996     0.402826781491    -0.290438933760    12.000000000000
         C           -0.126749223996    -0.433796918509    -0.635604133760    12.000000000000
         C           -2.501964623996    -1.465984218509     0.869083066240    12.000000000000
         C           -4.697830623996     0.363953781491    -0.553493933760    12.000000000000
         C            3.365831376004     0.882801781491     0.444187066240    12.000000000000
         C            2.323286376004    -0.036477218509    -0.142156933760    12.000000000000
         C            4.769306376004     0.312192781491     0.319656066240    12.000000000000
         H           -3.317854623996     1.832539781491     0.210779066240     1.007825032230
         H           -3.967733623996     0.754646781491     1.442132066240     1.007825032230
         H           -1.261823623996     1.433363781491    -0.644862933760     1.007825032230
         H            0.214305376004    -0.426852218509    -1.629678933760     1.007825032230
         H            0.058693376004    -1.322636218509    -0.119283933760     1.007825032230
         H           -2.783899623996    -1.407051218509     1.928762066240     1.007825032230
         H           -3.299424623996    -2.017251218509     0.356803066240     1.007825032230
         H           -1.589214623996    -2.059600218509     0.793393066240     1.007825032230
         H           -5.032394623996    -0.658202218509    -0.354501933760     1.007825032230
         H           -4.342331623996     0.409357781491    -1.586587933760     1.007825032230
         H           -5.566457623996     1.023279781491    -0.460832933760     1.007825032230
         H            3.279778376004     1.849284781491    -0.065228933760     1.007825032230
         H            3.098711376004     1.071332781491     1.488740066240     1.007825032230
         H            4.845206376004    -0.642959218509     0.841963066240     1.007825032230
         H            5.021661376004     0.137859781491    -0.728151933760     1.007825032230
         H            5.501781376004     1.002100781491     0.746580066240     1.007825032230

  Basis Set: AUG-CC-PVTZ
    Blend: AUG-CC-PVTZ
  Basis Set: (AUG-CC-PVTZ AUX)
    Blend: AUG-CC-PVTZ-JKFIT
	 Reference Energy          =    -500.0117547411359169 [Eh]
	 Singles Energy            =      -0.0000000000000000 [Eh]
	 Same-Spin Energy          =      -0.5114455667188151 [Eh]
	 Opposite-Spin Energy      =      -1.7205072800258219 [Eh]
	 Correlation Energy        =      -2.2319528467446368 [Eh]
	 Total Energy              =    -502.2437075878805786 [Eh]

	 ================> DF-SCS-MP2 Energies <==================
	-----------------------------------------------------------
	 SCS Same-Spin Scale       =       0.3333333333333333 [-]
	 SCS Opposite-Spin Scale   =       1.2000000000000000 [-]
	 SCS Same-Spin Energy      =      -0.1704818555729384 [Eh]
	 SCS Opposite-Spin Energy  =      -2.0646087360309862 [Eh]
	 SCS Correlation Energy    =      -2.2350905916039245 [Eh]
	 SCS Total Energy          =    -502.2468453327398379 [Eh]
	-----------------------------------------------------------

  Dipole Moment: [D]
     X:    -2.4693      Y:     1.0062      Z:     0.6811     Total:     2.7521

*** Psi4 exiting successfully. Buy a developer a beer!
