                               Psi4 1.3.2 release

  ==> Input File <==

--------------------------------------------------------------------------
#psi4
#
memory 32 gb

molecule  {
0 1
  O        1.0716460     0.4753830     0.0137820
  O        2.5311320    -1.1057930    -0.7123110
  C       -2.3635315    -0.0811416     0.3076800
  C       -3.5980660     0.7810210     0.4066790
  C       -1.2626340     0.3942960    -0.2965320
  C        0.0082920    -0.3313460    -0.5624280
  C       -2.5132090    -1.4745150     0.8629900
  C       -4.7167885     0.3653369    -0.5549921
  C        3.3545870     0.8742710     0.4380940
  C        2.3120420    -0.0450080    -0.1482500
  C        4.7580620     0.3036620     0.3135630
  H       -3.3290990     1.8240090     0.2046860
  H       -3.9789780     0.7461160     1.4360390
  H       -1.2730680     1.4248330    -0.6509560
  H        0.2030610    -0.4353830    -1.6357720
  H        0.0474490    -1.3311670    -0.1253770
  H       -2.7951440    -1.4155820     1.9226690
  H       -3.3106690    -2.0257820     0.3507100
  H       -1.6004590    -2.0681310     0.7873000
  H       -5.0436390    -0.6667330    -0.3605950
  H       -4.3535760     0.4008270    -1.5926810
  H       -5.5777020     1.0147490    -0.4669260
  H        3.2685340     1.8407540    -0.0713220
  H        3.0874670     1.0628020     1.4826470
  H        4.8339620    -0.6514900     0.8358700
  H        5.0104170     0.1293290    -0.7342450
  H        5.4905370     0.9935700     0.7404870
units angstrom
no_reorient  #important for SAPT in psi4, default
symmetry c1  #important for SAPT in psi4, default
}

set PROPERTIES_ORIGIN ["COM"]
properties('MP2/aug-cc-pvtz', properties = ['dipole'])
--------------------------------------------------------------------------

    Molecular point group: c1
  Charge       = 0
  Multiplicity = 1
  Basis Set: AUG-CC-PVTZ
    Blend: AUG-CC-PVTZ
  Basis Set: (AUG-CC-PVTZ AUX)
    Blend: AUG-CC-PVTZ-JKFIT

    Orbital Energies [Eh]
    ---------------------

    Doubly Occupied:

       1A    -20.597418     2A    -20.540840     3A    -11.375596
       4A    -11.286721     5A    -11.244162     6A    -11.242243
       7A    -11.228321     8A    -11.226421     9A    -11.223200
      10A    -11.219413    11A    -11.217904    12A     -1.448223
      13A     -1.347693    14A     -1.112453    15A     -1.063918
      16A     -1.021920    17A     -0.977619    18A     -0.920028
      19A     -0.879343    20A     -0.833896    21A     -0.767530
      22A     -0.722520    23A     -0.687859    24A     -0.679949
      25A     -0.660237    26A     -0.638593    27A     -0.623277
      28A     -0.605553    29A     -0.588382    30A     -0.573739
      31A     -0.552817    32A     -0.545927    33A     -0.533766
      34A     -0.522279    35A     -0.517562    36A     -0.514487
      37A     -0.511361    38A     -0.492307    39A     -0.482181
      40A     -0.466130    41A     -0.457408    42A     -0.444582
      43A     -0.347192

  @DF-RHF Final Energy:  -500.03826488526533

   => Energetics <=

    Nuclear Repulsion Energy =            603.0031855155244784
    One-Electron Energy =               -1876.1969585701419874
    Two-Electron Energy =                 773.1555081693520606
    Total Energy =                       -500.0382648852653347
  Basis Set: (AUG-CC-PVTZ AUX)
    Blend: AUG-CC-PVTZ-RI
    Molecular point group: c1

    Geometry (in Angstrom), charge = 0, multiplicity = 1:

       Center              X                  Y                   Z               Mass
    ------------   -----------------  -----------------  -----------------  -----------------
         O            1.071791206355     0.474070654904     0.012706652015    15.994914619570
         O            2.531277206355    -1.107105345096    -0.713386347985    15.994914619570
         C           -2.363386293645    -0.082453945096     0.306604652015    12.000000000000
         C           -3.597920793645     0.779708654904     0.405603652015    12.000000000000
         C           -1.262488793645     0.392983654904    -0.297607347985    12.000000000000
         C            0.008437206355    -0.332658345096    -0.563503347985    12.000000000000
         C           -2.513063793645    -1.475827345096     0.861914652015    12.000000000000
         C           -4.716643293645     0.364024554904    -0.556067447985    12.000000000000
         C            3.354732206355     0.872958654904     0.437018652015    12.000000000000
         C            2.312187206355    -0.046320345096    -0.149325347985    12.000000000000
         C            4.758207206355     0.302349654904     0.312487652015    12.000000000000
         H           -3.328953793645     1.822696654904     0.203610652015     1.007825032230
         H           -3.978832793645     0.744803654904     1.434963652015     1.007825032230
         H           -1.272922793645     1.423520654904    -0.652031347985     1.007825032230
         H            0.203206206355    -0.436695345096    -1.636847347985     1.007825032230
         H            0.047594206355    -1.332479345096    -0.126452347985     1.007825032230
         H           -2.794998793645    -1.416894345096     1.921593652015     1.007825032230
         H           -3.310523793645    -2.027094345096     0.349634652015     1.007825032230
         H           -1.600313793645    -2.069443345096     0.786224652015     1.007825032230
         H           -5.043493793645    -0.668045345096    -0.361670347985     1.007825032230
         H           -4.353430793645     0.399514654904    -1.593756347985     1.007825032230
         H           -5.577556793645     1.013436654904    -0.468001347985     1.007825032230
         H            3.268679206355     1.839441654904    -0.072397347985     1.007825032230
         H            3.087612206355     1.061489654904     1.481571652015     1.007825032230
         H            4.834107206355    -0.652802345096     0.834794652015     1.007825032230
         H            5.010562206355     0.128016654904    -0.735320347985     1.007825032230
         H            5.490682206355     0.992257654904     0.739411652015     1.007825032230

  Basis Set: AUG-CC-PVTZ
    Blend: AUG-CC-PVTZ
  Basis Set: (AUG-CC-PVTZ AUX)
    Blend: AUG-CC-PVTZ-JKFIT
	 Reference Energy          =    -500.0382648852653347 [Eh]
	 Singles Energy            =      -0.0000000000000000 [Eh]
	 Same-Spin Energy          =      -0.5096830148098923 [Eh]
	 Opposite-Spin Energy      =      -1.7167174038316084 [Eh]
	 Correlation Energy        =      -2.2264004186415010 [Eh]
	 Total Energy              =    -502.2646653039068383 [Eh]

	 ================> DF-SCS-MP2 Energies <==================
	-----------------------------------------------------------
	 SCS Same-Spin Scale       =       0.3333333333333333 [-]
	 SCS Opposite-Spin Scale   =       1.2000000000000000 [-]
	 SCS Same-Spin Energy      =      -0.1698943382699641 [Eh]
	 SCS Opposite-Spin Energy  =      -2.0600608845979300 [Eh]
	 SCS Correlation Energy    =      -2.2299552228678943 [Eh]
	 SCS Total Energy          =    -502.2682201081332209 [Eh]
	-----------------------------------------------------------

  Dipole Moment: [D]
     X:    -1.4438      Y:     1.1842      Z:     0.8195     Total:     2.0392

*** Psi4 exiting successfully. Buy a developer a beer!
