                               Psi4 1.3.2 release

  ==> Input File <==

--------------------------------------------------------------------------
#psi4
#
memory 32 gb

molecule  {
0 1
  O        1.0716460     0.4753830     0.0137820
  O        2.5311320    -1.1057930    -0.7123110
  C       -2.3693550    -0.0883010     0.2982860
  C       -3.5980660     0.7810210     0.4066790
  C       -1.2626340     0.3942960    -0.2965320
  C        0.0082920    -0.3313460    -0.5624280
  C       -2.5132090    -1.4745150     0.8629900
  C       -4.7090750     0.3554230    -0.5595870
  C        3.3545870     0.8742710     0.4380940
  C        2.3811503     0.0159292    -0.1093824
  C        4.7580620     0.3036620     0.3135630
  H       -3.3290990     1.8240090     0.2046860
  H       -3.9789780     0.7461160     1.4360390
  H       -1.2730680     1.4248330    -0.6509560
  H        0.2030610    -0.4353830    -1.6357720
  H        0.0474490    -1.3311670    -0.1253770
  H       -2.7951440    -1.4155820     1.9226690
  H       -3.3106690    -2.0257820     0.3507100
  H       -1.6004590    -2.0681310     0.7873000
  H       -5.0436390    -0.6667330    -0.3605950
  H       -4.3535760     0.4008270    -1.5926810
  H       -5.5777020     1.0147490    -0.4669260
  H        3.2685340     1.8407540    -0.0713220
  H        3.0874670     1.0628020     1.4826470
  H        4.8339620    -0.6514900     0.8358700
  H        5.0104170     0.1293290    -0.7342450
  H        5.4905370     0.9935700     0.7404870
units angstrom
no_reorient  #important for SAPT in psi4, default
symmetry c1  #important for SAPT in psi4, default
}

set PROPERTIES_ORIGIN ["COM"]
properties('MP2/aug-cc-pvtz', properties = ['dipole'])
--------------------------------------------------------------------------

    Molecular point group: c1
  Charge       = 0
  Multiplicity = 1
  Basis Set: AUG-CC-PVTZ
    Blend: AUG-CC-PVTZ
  Basis Set: (AUG-CC-PVTZ AUX)
    Blend: AUG-CC-PVTZ-JKFIT

    Orbital Energies [Eh]
    ---------------------

    Doubly Occupied:

       1A    -20.589730     2A    -20.536956     3A    -11.384814
       4A    -11.282785     5A    -11.247342     6A    -11.241884
       7A    -11.226818     8A    -11.225153     9A    -11.224312
      10A    -11.220930    11A    -11.217793    12A     -1.423258
      13A     -1.311959    14A     -1.111063    15A     -1.089529
      16A     -1.019777    17A     -0.975521    18A     -0.924685
      19A     -0.889334    20A     -0.832627    21A     -0.758090
      22A     -0.722118    23A     -0.690766    24A     -0.675486
      25A     -0.649028    26A     -0.643433    27A     -0.622997
      28A     -0.603218    29A     -0.584822    30A     -0.572601
      31A     -0.548389    32A     -0.539658    33A     -0.532509
      34A     -0.528446    35A     -0.520303    36A     -0.514304
      37A     -0.510308    38A     -0.487964    39A     -0.481921
      40A     -0.462360    41A     -0.445257    42A     -0.442201
      43A     -0.343902

  @DF-RHF Final Energy:  -500.01606820462581

   => Energetics <=

    Nuclear Repulsion Energy =            602.2654701466442475
    One-Electron Energy =               -1874.8503742671002783
    Two-Electron Energy =                 772.5688359158302774
    Total Energy =                       -500.0160682046257534
  Basis Set: (AUG-CC-PVTZ AUX)
    Blend: AUG-CC-PVTZ-RI
    Molecular point group: c1

    Geometry (in Angstrom), charge = 0, multiplicity = 1:

       Center              X                  Y                   Z               Mass
    ------------   -----------------  -----------------  -----------------  -----------------
         O            1.066333822775     0.470698994912     0.010794315961    15.994914619570
         O            2.525819822775    -1.110477005088    -0.715298684039    15.994914619570
         C           -2.374667177225    -0.092985005088     0.295298315961    12.000000000000
         C           -3.603378177225     0.776336994912     0.403691315961    12.000000000000
         C           -1.267946177225     0.389611994912    -0.299519684039    12.000000000000
         C            0.002979822775    -0.336030005088    -0.565415684039    12.000000000000
         C           -2.518521177225    -1.479199005088     0.860002315961    12.000000000000
         C           -4.714387177225     0.350738994912    -0.562574684039    12.000000000000
         C            3.349274822775     0.869586994912     0.435106315961    12.000000000000
         C            2.375838122775     0.011245194912    -0.112370084039    12.000000000000
         C            4.752749822775     0.298977994912     0.310575315961    12.000000000000
         H           -3.334411177225     1.819324994912     0.201698315961     1.007825032230
         H           -3.984290177225     0.741431994912     1.433051315961     1.007825032230
         H           -1.278380177225     1.420148994912    -0.653943684039     1.007825032230
         H            0.197748822775    -0.440067005088    -1.638759684039     1.007825032230
         H            0.042136822775    -1.335851005088    -0.128364684039     1.007825032230
         H           -2.800456177225    -1.420266005088     1.919681315961     1.007825032230
         H           -3.315981177225    -2.030466005088     0.347722315961     1.007825032230
         H           -1.605771177225    -2.072815005088     0.784312315961     1.007825032230
         H           -5.048951177225    -0.671417005088    -0.363582684039     1.007825032230
         H           -4.358888177225     0.396142994912    -1.595668684039     1.007825032230
         H           -5.583014177225     1.010064994912    -0.469913684039     1.007825032230
         H            3.263221822775     1.836069994912    -0.074309684039     1.007825032230
         H            3.082154822775     1.058117994912     1.479659315961     1.007825032230
         H            4.828649822775    -0.656174005088     0.832882315961     1.007825032230
         H            5.005104822775     0.124644994912    -0.737232684039     1.007825032230
         H            5.485224822775     0.988885994912     0.737499315961     1.007825032230

  Basis Set: AUG-CC-PVTZ
    Blend: AUG-CC-PVTZ
  Basis Set: (AUG-CC-PVTZ AUX)
    Blend: AUG-CC-PVTZ-JKFIT
	 Reference Energy          =    -500.0160682046258103 [Eh]
	 Singles Energy            =      -0.0000000000000000 [Eh]
	 Same-Spin Energy          =      -0.5123323423388424 [Eh]
	 Opposite-Spin Energy      =      -1.7215382193308353 [Eh]
	 Correlation Energy        =      -2.2338705616696775 [Eh]
	 Total Energy              =    -502.2499387662954859 [Eh]

	 ================> DF-SCS-MP2 Energies <==================
	-----------------------------------------------------------
	 SCS Same-Spin Scale       =       0.3333333333333333 [-]
	 SCS Opposite-Spin Scale   =       1.2000000000000000 [-]
	 SCS Same-Spin Energy      =      -0.1707774474462808 [Eh]
	 SCS Opposite-Spin Energy  =      -2.0658458631970023 [Eh]
	 SCS Correlation Energy    =      -2.2366233106432829 [Eh]
	 SCS Total Energy          =    -502.2526915152690776 [Eh]
	-----------------------------------------------------------

  Dipole Moment: [D]
     X:    -0.9291      Y:     1.4846      Z:     1.0319     Total:     2.0328

*** Psi4 exiting successfully. Buy a developer a beer!
