                               Psi4 1.3.2 release

  ==> Input File <==

--------------------------------------------------------------------------
#psi4
#
memory 32 gb

molecule  {
0 1
  O        1.0716460     0.4753830     0.0137820
  O        2.5311320    -1.1057930    -0.7123110
  C       -2.3631192    -0.0986817     0.2750023
  C       -3.5980660     0.7810210     0.4066790
  C       -1.2626340     0.3942960    -0.2965320
  C        0.0082920    -0.3313460    -0.5624280
  C       -2.5132090    -1.4745150     0.8629900
  C       -4.7090750     0.3554230    -0.5595870
  C        3.3545870     0.8742710     0.4380940
  C        2.3120420    -0.0450080    -0.1482500
  C        4.7580620     0.3036620     0.3135630
  H       -3.3290990     1.8240090     0.2046860
  H       -3.9789780     0.7461160     1.4360390
  H       -1.2730680     1.4248330    -0.6509560
  H        0.2030610    -0.4353830    -1.6357720
  H        0.0474490    -1.3311670    -0.1253770
  H       -2.7952847    -1.4347281     1.9235230
  H       -3.3106690    -2.0257820     0.3507100
  H       -1.6004590    -2.0681310     0.7873000
  H       -5.0436390    -0.6667330    -0.3605950
  H       -4.3535760     0.4008270    -1.5926810
  H       -5.5777020     1.0147490    -0.4669260
  H        3.2685340     1.8407540    -0.0713220
  H        3.0874670     1.0628020     1.4826470
  H        4.8339620    -0.6514900     0.8358700
  H        5.0104170     0.1293290    -0.7342450
  H        5.4905370     0.9935700     0.7404870
units angstrom
no_reorient  #important for SAPT in psi4, default
symmetry c1  #important for SAPT in psi4, default
}

set PROPERTIES_ORIGIN ["COM"]
properties('MP2/aug-cc-pvtz', properties = ['dipole'])
--------------------------------------------------------------------------

    Molecular point group: c1
  Charge       = 0
  Multiplicity = 1
  Basis Set: AUG-CC-PVTZ
    Blend: AUG-CC-PVTZ
  Basis Set: (AUG-CC-PVTZ AUX)
    Blend: AUG-CC-PVTZ-JKFIT

    Orbital Energies [Eh]
    ---------------------

    Doubly Occupied:

       1A    -20.597454     2A    -20.540859     3A    -11.375622
       4A    -11.286386     5A    -11.243189     6A    -11.242284
       7A    -11.228622     8A    -11.226351     9A    -11.222316
      10A    -11.218526    11A    -11.217934    12A     -1.448237
      13A     -1.347707    14A     -1.112650    15A     -1.063812
      16A     -1.021842    17A     -0.977645    18A     -0.920675
      19A     -0.878452    20A     -0.833157    21A     -0.767622
      22A     -0.723131    23A     -0.687919    24A     -0.679951
      25A     -0.660346    26A     -0.638525    27A     -0.623224
      28A     -0.605296    29A     -0.587989    30A     -0.572937
      31A     -0.553083    32A     -0.544448    33A     -0.533922
      34A     -0.523195    35A     -0.518219    36A     -0.514694
      37A     -0.512038    38A     -0.492369    39A     -0.484135
      40A     -0.461835    41A     -0.457260    42A     -0.444488
      43A     -0.349132

  @DF-RHF Final Energy:  -500.03843911464799

   => Energetics <=

    Nuclear Repulsion Energy =            603.1464370032522311
    One-Electron Energy =               -1876.4908045728382149
    Two-Electron Energy =                 773.3059284549379981
    Total Energy =                       -500.0384391146479857
  Basis Set: (AUG-CC-PVTZ AUX)
    Blend: AUG-CC-PVTZ-RI
    Molecular point group: c1

    Geometry (in Angstrom), charge = 0, multiplicity = 1:

       Center              X                  Y                   Z               Mass
    ------------   -----------------  -----------------  -----------------  -----------------
         O            1.071167513690     0.476304545641     0.015566149388    15.994914619570
         O            2.530653513690    -1.104871454359    -0.710526850612    15.994914619570
         C           -2.363597686310    -0.097760154359     0.276786449388    12.000000000000
         C           -3.598544486310     0.781942545641     0.408463149388    12.000000000000
         C           -1.263112486310     0.395217545641    -0.294747850612    12.000000000000
         C            0.007813513690    -0.330424454359    -0.560643850612    12.000000000000
         C           -2.513687486310    -1.473593454359     0.864774149388    12.000000000000
         C           -4.709553486310     0.356344545641    -0.557802850612    12.000000000000
         C            3.354108513690     0.875192545641     0.439878149388    12.000000000000
         C            2.311563513690    -0.044086454359    -0.146465850612    12.000000000000
         C            4.757583513690     0.304583545641     0.315347149388    12.000000000000
         H           -3.329577486310     1.824930545641     0.206470149388     1.007825032230
         H           -3.979456486310     0.747037545641     1.437823149388     1.007825032230
         H           -1.273546486310     1.425754545641    -0.649171850612     1.007825032230
         H            0.202582513690    -0.434461454359    -1.633987850612     1.007825032230
         H            0.046970513690    -1.330245454359    -0.123592850612     1.007825032230
         H           -2.795763186310    -1.433806554359     1.925307149388     1.007825032230
         H           -3.311147486310    -2.024860454359     0.352494149388     1.007825032230
         H           -1.600937486310    -2.067209454359     0.789084149388     1.007825032230
         H           -5.044117486310    -0.665811454359    -0.358810850612     1.007825032230
         H           -4.354054486310     0.401748545641    -1.590896850612     1.007825032230
         H           -5.578180486310     1.015670545641    -0.465141850612     1.007825032230
         H            3.268055513690     1.841675545641    -0.069537850612     1.007825032230
         H            3.086988513690     1.063723545641     1.484431149388     1.007825032230
         H            4.833483513690    -0.650568454359     0.837654149388     1.007825032230
         H            5.009938513690     0.130250545641    -0.732460850612     1.007825032230
         H            5.490058513690     0.994491545641     0.742271149388     1.007825032230

  Basis Set: AUG-CC-PVTZ
    Blend: AUG-CC-PVTZ
  Basis Set: (AUG-CC-PVTZ AUX)
    Blend: AUG-CC-PVTZ-JKFIT
	 Reference Energy          =    -500.0384391146479857 [Eh]
	 Singles Energy            =      -0.0000000000000000 [Eh]
	 Same-Spin Energy          =      -0.5095452606287874 [Eh]
	 Opposite-Spin Energy      =      -1.7165167334239946 [Eh]
	 Correlation Energy        =      -2.2260619940527819 [Eh]
	 Total Energy              =    -502.2645011087007560 [Eh]

	 ================> DF-SCS-MP2 Energies <==================
	-----------------------------------------------------------
	 SCS Same-Spin Scale       =       0.3333333333333333 [-]
	 SCS Opposite-Spin Scale   =       1.2000000000000000 [-]
	 SCS Same-Spin Energy      =      -0.1698484202095958 [Eh]
	 SCS Opposite-Spin Energy  =      -2.0598200801087936 [Eh]
	 SCS Correlation Energy    =      -2.2296685003183896 [Eh]
	 SCS Total Energy          =    -502.2681076149663681 [Eh]
	-----------------------------------------------------------

  Dipole Moment: [D]
     X:    -1.4204      Y:     1.1839      Z:     0.8500     Total:     2.0351

*** Psi4 exiting successfully. Buy a developer a beer!
