                               Psi4 1.4a3.dev225

  ==> Input File <==

--------------------------------------------------------------------------
#psi4
#
memory 32 gb

molecule  {
0 1
  O       -1.1411000    -0.4541930    -0.0251880
  O       -2.5814580     1.1752260    -0.6867450
  C        2.3134570     0.0186930     0.2462000
  C        3.5222300    -0.8802230     0.3222130
  C        1.1937340    -0.4134970    -0.3651820
  C       -0.0647290     0.3542590    -0.5783780
  C        2.4850690     1.3863280     0.8546590
  C        4.7190700    -0.3405130    -0.4677320
  C       -3.4286640    -0.8122060     0.4327630
  C       -2.4098241     0.0638906    -0.1388233
  C       -4.8282690    -0.2261570     0.3119590
  H        3.2581340    -1.8761120    -0.0507320
  H        3.8122360    -1.0018650     1.3748590
  H        1.1815530    -1.4238220    -0.7735790
  H       -0.2705280     0.5138520    -1.6430550
  H       -0.0714200     1.3330110    -0.0949940
  H        3.0182560     1.3061200     1.8081990
  H        3.0814560     2.0379150     0.2067330
  H        1.5342700     1.8877430     1.0433380
  H        5.0646870     0.6170420    -0.0694620
  H        4.4484560    -0.1949880    -1.5176090
  H        5.5583810    -1.0408350    -0.4253590
  H       -3.3536290    -1.7820470    -0.0715700
  H       -3.1585900    -0.9983310     1.4781360
  H       -4.8922970     0.7333770     0.8287030
  H       -5.0879650    -0.0561110    -0.7346540
  H       -5.5642940    -0.9066400     0.7478690
units angstrom
no_reorient  #important for SAPT in psi4, default
symmetry c1  #important for SAPT in psi4, default
}

set PROPERTIES_ORIGIN ["COM"]
properties('MP2/aug-cc-pvtz', properties = ['dipole'])
--------------------------------------------------------------------------

    Molecular point group: c1
  Charge       = 0
  Multiplicity = 1
  Basis Set: AUG-CC-PVTZ
    Blend: AUG-CC-PVTZ
  Basis Set: (AUG-CC-PVTZ AUX)
    Blend: AUG-CC-PVTZ-JKFIT

    Orbital Energies [Eh]
    ---------------------

    Doubly Occupied:

       1A    -20.593462     2A    -20.538975     3A    -11.380273
       4A    -11.285020     5A    -11.245545     6A    -11.243384
       7A    -11.227842     8A    -11.225152     9A    -11.222345
      10A    -11.221749    11A    -11.218615    12A     -1.434534
      13A     -1.329502    14A     -1.111194    15A     -1.075041
      16A     -1.021131    17A     -0.975809    18A     -0.921989
      19A     -0.885579    20A     -0.832427    21A     -0.761995
      22A     -0.722047    23A     -0.688630    24A     -0.676471
      25A     -0.654063    26A     -0.640416    27A     -0.623834
      28A     -0.604076    29A     -0.588151    30A     -0.570964
      31A     -0.551292    32A     -0.542548    33A     -0.530980
      34A     -0.526470    35A     -0.518876    36A     -0.513162
      37A     -0.511753    38A     -0.491074    39A     -0.483680
      40A     -0.464268    41A     -0.450493    42A     -0.445957
      43A     -0.345026

  @DF-RHF Final Energy:  -500.03125305233652

   => Energetics <=

    Nuclear Repulsion Energy =            602.0849572638755944
    One-Electron Energy =               -1874.4408373943676906
    Two-Electron Energy =                 772.3246270781555722
    Total Energy =                       -500.0312530523365240
  Basis Set: (AUG-CC-PVTZ AUX)
    Blend: AUG-CC-PVTZ-RI
    Molecular point group: c1

    Geometry (in Angstrom), charge = 0, multiplicity = 1:

       Center              X                  Y                   Z               Mass
    ------------   -----------------  -----------------  -----------------  -----------------
         O           -1.084145634747    -0.457276629835    -0.013325886564    15.994914619570
         O           -2.524503634747     1.172142370165    -0.674882886564    15.994914619570
         C            2.370411365253     0.015609370165     0.258062113436    12.000000000000
         C            3.579184365253    -0.883306629835     0.334075113436    12.000000000000
         C            1.250688365253    -0.416580629835    -0.353319886564    12.000000000000
         C           -0.007774634747     0.351175370165    -0.566515886564    12.000000000000
         C            2.542023365253     1.383244370165     0.866521113436    12.000000000000
         C            4.776024365253    -0.343596629835    -0.455869886564    12.000000000000
         C           -3.371709634747    -0.815289629835     0.444625113436    12.000000000000
         C           -2.352869734747     0.060806970165    -0.126961186564    12.000000000000
         C           -4.771314634747    -0.229240629835     0.323821113436    12.000000000000
         H            3.315088365253    -1.879195629835    -0.038869886564     1.007825032230
         H            3.869190365253    -1.004948629835     1.386721113436     1.007825032230
         H            1.238507365253    -1.426905629835    -0.761716886564     1.007825032230
         H           -0.213573634747     0.510768370165    -1.631192886564     1.007825032230
         H           -0.014465634747     1.329927370165    -0.083131886564     1.007825032230
         H            3.075210365253     1.303036370165     1.820061113436     1.007825032230
         H            3.138410365253     2.034831370165     0.218595113436     1.007825032230
         H            1.591224365253     1.884659370165     1.055200113436     1.007825032230
         H            5.121641365253     0.613958370165    -0.057599886564     1.007825032230
         H            4.505410365253    -0.198071629835    -1.505746886564     1.007825032230
         H            5.615335365253    -1.043918629835    -0.413496886564     1.007825032230
         H           -3.296674634747    -1.785130629835    -0.059707886564     1.007825032230
         H           -3.101635634747    -1.001414629835     1.489998113436     1.007825032230
         H           -4.835342634747     0.730293370165     0.840565113436     1.007825032230
         H           -5.031010634747    -0.059194629835    -0.722791886564     1.007825032230
         H           -5.507339634747    -0.909723629835     0.759731113436     1.007825032230

  Basis Set: AUG-CC-PVTZ
    Blend: AUG-CC-PVTZ
  Basis Set: (AUG-CC-PVTZ AUX)
    Blend: AUG-CC-PVTZ-JKFIT
	 Reference Energy          =    -500.0312530523365240 [Eh]
	 Singles Energy            =      -0.0000000000000000 [Eh]
	 Same-Spin Energy          =      -0.5108246215977406 [Eh]
	 Opposite-Spin Energy      =      -1.7190034818081501 [Eh]
	 Correlation Energy        =      -2.2298281034058904 [Eh]
	 Total Energy              =    -502.2610811557424313 [Eh]

	 ================> DF-SCS-MP2 Energies <==================
	-----------------------------------------------------------
	 SCS Same-Spin Scale       =       0.3333333333333333 [-]
	 SCS Opposite-Spin Scale   =       1.2000000000000000 [-]
	 SCS Same-Spin Energy      =      -0.1702748738659135 [Eh]
	 SCS Opposite-Spin Energy  =      -2.0628041781697801 [Eh]
	 SCS Correlation Energy    =      -2.2330790520356936 [Eh]
	 SCS Total Energy          =    -502.2643321043722153 [Eh]
	-----------------------------------------------------------

  Dipole Moment: [D]
     X:     1.1846      Y:    -1.3500      Z:     0.9011     Total:     2.0094

*** Psi4 exiting successfully. Buy a developer a beer!
