                               Psi4 1.3.2 release

  ==> Input File <==

--------------------------------------------------------------------------
#psi4
#
memory 32 gb

molecule  {
0 1
  O        1.0716460     0.4753830     0.0137820
  O        2.5311320    -1.1057930    -0.7123110
  C       -2.3693550    -0.0883010     0.2982860
  C       -3.5980660     0.7810210     0.4066790
  C       -1.1804070     0.4301519    -0.3407257
  C        0.0082920    -0.3313460    -0.5624280
  C       -2.5132090    -1.4745150     0.8629900
  C       -4.7090750     0.3554230    -0.5595870
  C        3.3545870     0.8742710     0.4380940
  C        2.3120420    -0.0450080    -0.1482500
  C        4.7580620     0.3036620     0.3135630
  H       -3.3290990     1.8240090     0.2046860
  H       -3.9789780     0.7461160     1.4360390
  H       -1.2730680     1.4248330    -0.6509560
  H        0.2030610    -0.4353830    -1.6357720
  H        0.0474490    -1.3311670    -0.1253770
  H       -2.7951440    -1.4155820     1.9226690
  H       -3.3106690    -2.0257820     0.3507100
  H       -1.6004590    -2.0681310     0.7873000
  H       -5.0436390    -0.6667330    -0.3605950
  H       -4.3535760     0.4008270    -1.5926810
  H       -5.5777020     1.0147490    -0.4669260
  H        3.2685340     1.8407540    -0.0713220
  H        3.0874670     1.0628020     1.4826470
  H        4.8339620    -0.6514900     0.8358700
  H        5.0104170     0.1293290    -0.7342450
  H        5.4905370     0.9935700     0.7404870
units angstrom
no_reorient  #important for SAPT in psi4, default
symmetry c1  #important for SAPT in psi4, default
}

set PROPERTIES_ORIGIN ["COM"]
properties('MP2/aug-cc-pvtz', properties = ['dipole'])
--------------------------------------------------------------------------

    Molecular point group: c1
  Charge       = 0
  Multiplicity = 1
  Basis Set: AUG-CC-PVTZ
    Blend: AUG-CC-PVTZ
  Basis Set: (AUG-CC-PVTZ AUX)
    Blend: AUG-CC-PVTZ-JKFIT

    Orbital Energies [Eh]
    ---------------------

    Doubly Occupied:

       1A    -20.595450     2A    -20.540200     3A    -11.374381
       4A    -11.283122     5A    -11.259358     6A    -11.241530
       7A    -11.230420     8A    -11.228050     9A    -11.227418
      10A    -11.220120    11A    -11.217408    12A     -1.447848
      13A     -1.347509    14A     -1.105240    15A     -1.064734
      16A     -1.027379    17A     -0.981504    18A     -0.911790
      19A     -0.879423    20A     -0.829162    21A     -0.769007
      22A     -0.725914    23A     -0.689580    24A     -0.680564
      25A     -0.661818    26A     -0.637331    27A     -0.624603
      28A     -0.603807    29A     -0.591049    30A     -0.574114
      31A     -0.553709    32A     -0.545338    33A     -0.536381
      34A     -0.522662    35A     -0.518319    36A     -0.515046
      37A     -0.510636    38A     -0.492196    39A     -0.481406
      40A     -0.475595    41A     -0.457306    42A     -0.443175
      43A     -0.324021

  @DF-RHF Final Energy:  -500.01916963548297

   => Energetics <=

    Nuclear Repulsion Energy =            602.7133988032574052
    One-Electron Energy =               -1875.5738935525180295
    Two-Electron Energy =                 772.8413251137776570
    Total Energy =                       -500.0191696354829674
  Basis Set: (AUG-CC-PVTZ AUX)
    Blend: AUG-CC-PVTZ-RI
    Molecular point group: c1

    Geometry (in Angstrom), charge = 0, multiplicity = 1:

       Center              X                  Y                   Z               Mass
    ------------   -----------------  -----------------  -----------------  -----------------
         O            1.065325435560     0.472626904099     0.017178938899    15.994914619570
         O            2.524811435560    -1.108549095901    -0.708914061101    15.994914619570
         C           -2.375675564440    -0.091057095901     0.301682938899    12.000000000000
         C           -3.604386564440     0.778264904099     0.410075938899    12.000000000000
         C           -1.186727564440     0.427395804099    -0.337328761101    12.000000000000
         C            0.001971435560    -0.334102095901    -0.559031061101    12.000000000000
         C           -2.519529564440    -1.477271095901     0.866386938899    12.000000000000
         C           -4.715395564440     0.352666904099    -0.556190061101    12.000000000000
         C            3.348266435560     0.871514904099     0.441490938899    12.000000000000
         C            2.305721435560    -0.047764095901    -0.144853061101    12.000000000000
         C            4.751741435560     0.300905904099     0.316959938899    12.000000000000
         H           -3.335419564440     1.821252904099     0.208082938899     1.007825032230
         H           -3.985298564440     0.743359904099     1.439435938899     1.007825032230
         H           -1.279388564440     1.422076904099    -0.647559061101     1.007825032230
         H            0.196740435560    -0.438139095901    -1.632375061101     1.007825032230
         H            0.041128435560    -1.333923095901    -0.121980061101     1.007825032230
         H           -2.801464564440    -1.418338095901     1.926065938899     1.007825032230
         H           -3.316989564440    -2.028538095901     0.354106938899     1.007825032230
         H           -1.606779564440    -2.070887095901     0.790696938899     1.007825032230
         H           -5.049959564440    -0.669489095901    -0.357198061101     1.007825032230
         H           -4.359896564440     0.398070904099    -1.589284061101     1.007825032230
         H           -5.584022564440     1.011992904099    -0.463529061101     1.007825032230
         H            3.262213435560     1.837997904099    -0.067925061101     1.007825032230
         H            3.081146435560     1.060045904099     1.486043938899     1.007825032230
         H            4.827641435560    -0.654246095901     0.839266938899     1.007825032230
         H            5.004096435560     0.126572904099    -0.730848061101     1.007825032230
         H            5.484216435560     0.990813904099     0.743883938899     1.007825032230

  Basis Set: AUG-CC-PVTZ
    Blend: AUG-CC-PVTZ
  Basis Set: (AUG-CC-PVTZ AUX)
    Blend: AUG-CC-PVTZ-JKFIT
	 Reference Energy          =    -500.0191696354829674 [Eh]
	 Singles Energy            =      -0.0000000000000000 [Eh]
	 Same-Spin Energy          =      -0.5118018184432741 [Eh]
	 Opposite-Spin Energy      =      -1.7204083658411180 [Eh]
	 Correlation Energy        =      -2.2322101842843920 [Eh]
	 Total Energy              =    -502.2513798197673509 [Eh]

	 ================> DF-SCS-MP2 Energies <==================
	-----------------------------------------------------------
	 SCS Same-Spin Scale       =       0.3333333333333333 [-]
	 SCS Opposite-Spin Scale   =       1.2000000000000000 [-]
	 SCS Same-Spin Energy      =      -0.1706006061477580 [Eh]
	 SCS Opposite-Spin Energy  =      -2.0644900390093417 [Eh]
	 SCS Correlation Energy    =      -2.2350906451570998 [Eh]
	 SCS Total Energy          =    -502.2542602806400396 [Eh]
	-----------------------------------------------------------

  Dipole Moment: [D]
     X:    -1.4815      Y:     1.1827      Z:     0.8280     Total:     2.0686

*** Psi4 exiting successfully. Buy a developer a beer!
