                               Psi4 1.3.2 release

  ==> Input File <==

--------------------------------------------------------------------------
#psi4
#
memory 32 gb

molecule  {
0 1
  O        1.0716460     0.4753830     0.0137820
  O        2.5311320    -1.1057930    -0.7123110
  C       -2.3693550    -0.0883010     0.2982860
  C       -3.5980660     0.7810210     0.4066790
  C       -1.2626340     0.3942960    -0.2965320
  C        0.0082920    -0.3313460    -0.5624280
  C       -2.5132090    -1.4745150     0.8629900
  C       -4.7067772     0.4290798    -0.5913398
  C        3.3545870     0.8742710     0.4380940
  C        2.3120420    -0.0450080    -0.1482500
  C        4.7580620     0.3036620     0.3135630
  H       -3.3685906     1.8245554     0.1630701
  H       -3.9789780     0.7461160     1.4360390
  H       -1.2730680     1.4248330    -0.6509560
  H        0.2030610    -0.4353830    -1.6357720
  H        0.0474490    -1.3311670    -0.1253770
  H       -2.7951440    -1.4155820     1.9226690
  H       -3.3106690    -2.0257820     0.3507100
  H       -1.6004590    -2.0681310     0.7873000
  H       -5.0436390    -0.6667330    -0.3605950
  H       -4.3535760     0.4008270    -1.5926810
  H       -5.5777020     1.0147490    -0.4669260
  H        3.2685340     1.8407540    -0.0713220
  H        3.0874670     1.0628020     1.4826470
  H        4.8339620    -0.6514900     0.8358700
  H        5.0104170     0.1293290    -0.7342450
  H        5.4905370     0.9935700     0.7404870
units angstrom
no_reorient  #important for SAPT in psi4, default
symmetry c1  #important for SAPT in psi4, default
}

set PROPERTIES_ORIGIN ["COM"]
properties('MP2/aug-cc-pvtz', properties = ['dipole'])
--------------------------------------------------------------------------

    Molecular point group: c1
  Charge       = 0
  Multiplicity = 1
  Basis Set: AUG-CC-PVTZ
    Blend: AUG-CC-PVTZ
  Basis Set: (AUG-CC-PVTZ AUX)
    Blend: AUG-CC-PVTZ-JKFIT

    Orbital Energies [Eh]
    ---------------------

    Doubly Occupied:

       1A    -20.597573     2A    -20.540957     3A    -11.375715
       4A    -11.286891     5A    -11.245278     6A    -11.242327
       7A    -11.228628     8A    -11.226433     9A    -11.224112
      10A    -11.219690    11A    -11.217971    12A     -1.448363
      13A     -1.347820    14A     -1.112452    15A     -1.064037
      16A     -1.022506    17A     -0.979158    18A     -0.919439
      19A     -0.879047    20A     -0.833507    21A     -0.767687
      22A     -0.723099    23A     -0.688029    24A     -0.680439
      25A     -0.660310    26A     -0.638515    27A     -0.626292
      28A     -0.606374    29A     -0.590679    30A     -0.574623
      31A     -0.551707    32A     -0.546592    33A     -0.533705
      34A     -0.522777    35A     -0.518254    36A     -0.516580
      37A     -0.512749    38A     -0.492398    39A     -0.472974
      40A     -0.464765    41A     -0.457626    42A     -0.444613
      43A     -0.346535

  @DF-RHF Final Energy:  -500.03091983254308

   => Energetics <=

    Nuclear Repulsion Energy =            602.8433104615565981
    One-Electron Energy =               -1875.8500100641847439
    Two-Electron Energy =                 772.9757797700849551
    Total Energy =                       -500.0309198325430771
  Basis Set: (AUG-CC-PVTZ AUX)
    Blend: AUG-CC-PVTZ-RI
    Molecular point group: c1

    Geometry (in Angstrom), charge = 0, multiplicity = 1:

       Center              X                  Y                   Z               Mass
    ------------   -----------------  -----------------  -----------------  -----------------
         O            1.071724249464     0.469717757706     0.016491309691    15.994914619570
         O            2.531210249464    -1.111458242294    -0.709601690309    15.994914619570
         C           -2.369276750536    -0.093966242294     0.300995309691    12.000000000000
         C           -3.597987750536     0.775355757706     0.409388309691    12.000000000000
         C           -1.262555750536     0.388630757706    -0.293822690309    12.000000000000
         C            0.008370249464    -0.337011242294    -0.559718690309    12.000000000000
         C           -2.513130750536    -1.480180242294     0.865699309691    12.000000000000
         C           -4.706698950536     0.423414557706    -0.588630490309    12.000000000000
         C            3.354665249464     0.868605757706     0.440803309691    12.000000000000
         C            2.312120249464    -0.050673242294    -0.145540690309    12.000000000000
         C            4.758140249464     0.297996757706     0.316272309691    12.000000000000
         H           -3.368512350536     1.818890157706     0.165779409691     1.007825032230
         H           -3.978899750536     0.740450757706     1.438748309691     1.007825032230
         H           -1.272989750536     1.419167757706    -0.648246690309     1.007825032230
         H            0.203139249464    -0.441048242294    -1.633062690309     1.007825032230
         H            0.047527249464    -1.336832242294    -0.122667690309     1.007825032230
         H           -2.795065750536    -1.421247242294     1.925378309691     1.007825032230
         H           -3.310590750536    -2.031447242294     0.353419309691     1.007825032230
         H           -1.600380750536    -2.073796242294     0.790009309691     1.007825032230
         H           -5.043560750536    -0.672398242294    -0.357885690309     1.007825032230
         H           -4.353497750536     0.395161757706    -1.589971690309     1.007825032230
         H           -5.577623750536     1.009083757706    -0.464216690309     1.007825032230
         H            3.268612249464     1.835088757706    -0.068612690309     1.007825032230
         H            3.087545249464     1.057136757706     1.485356309691     1.007825032230
         H            4.834040249464    -0.657155242294     0.838579309691     1.007825032230
         H            5.010495249464     0.123663757706    -0.731535690309     1.007825032230
         H            5.490615249464     0.987904757706     0.743196309691     1.007825032230

  Basis Set: AUG-CC-PVTZ
    Blend: AUG-CC-PVTZ
  Basis Set: (AUG-CC-PVTZ AUX)
    Blend: AUG-CC-PVTZ-JKFIT
	 Reference Energy          =    -500.0309198325430771 [Eh]
	 Singles Energy            =      -0.0000000000000000 [Eh]
	 Same-Spin Energy          =      -0.5098291718504471 [Eh]
	 Opposite-Spin Energy      =      -1.7171454522251195 [Eh]
	 Correlation Energy        =      -2.2269746240755666 [Eh]
	 Total Energy              =    -502.2578944566186578 [Eh]

	 ================> DF-SCS-MP2 Energies <==================
	-----------------------------------------------------------
	 SCS Same-Spin Scale       =       0.3333333333333333 [-]
	 SCS Opposite-Spin Scale   =       1.2000000000000000 [-]
	 SCS Same-Spin Energy      =      -0.1699430572834824 [Eh]
	 SCS Opposite-Spin Energy  =      -2.0605745426701434 [Eh]
	 SCS Correlation Energy    =      -2.2305175999536258 [Eh]
	 SCS Total Energy          =    -502.2614374324966775 [Eh]
	-----------------------------------------------------------

  Dipole Moment: [D]
     X:    -1.4122      Y:     1.2189      Z:     0.8122     Total:     2.0346

*** Psi4 exiting successfully. Buy a developer a beer!
