                               Psi4 1.3.2 release

  ==> Input File <==

--------------------------------------------------------------------------
#psi4
#
memory 32 gb

molecule  {
0 1
  O        1.0716460     0.4753830     0.0137820
  O        2.5311320    -1.1057930    -0.7123110
  C       -2.3693550    -0.0883010     0.2982860
  C       -3.5980660     0.7810210     0.4066790
  C       -1.2626340     0.3942960    -0.2965320
  C        0.0082920    -0.3313460    -0.5624280
  C       -2.5132090    -1.4745150     0.8629900
  C       -4.7090750     0.3554230    -0.5595870
  C        3.3545870     0.8742710     0.4380940
  C        2.3513339    -0.0425061    -0.2167162
  C        4.7580620     0.3036620     0.3135630
  H       -3.3290990     1.8240090     0.2046860
  H       -3.9789780     0.7461160     1.4360390
  H       -1.2730680     1.4248330    -0.6509560
  H        0.2030610    -0.4353830    -1.6357720
  H        0.0474490    -1.3311670    -0.1253770
  H       -2.7951440    -1.4155820     1.9226690
  H       -3.3106690    -2.0257820     0.3507100
  H       -1.6004590    -2.0681310     0.7873000
  H       -5.0436390    -0.6667330    -0.3605950
  H       -4.3535760     0.4008270    -1.5926810
  H       -5.5777020     1.0147490    -0.4669260
  H        3.2685340     1.8407540    -0.0713220
  H        3.1339459     1.0960389     1.4869622
  H        4.8339620    -0.6514900     0.8358700
  H        5.0104170     0.1293290    -0.7342450
  H        5.4905370     0.9935700     0.7404870
units angstrom
no_reorient  #important for SAPT in psi4, default
symmetry c1  #important for SAPT in psi4, default
}

set PROPERTIES_ORIGIN ["COM"]
properties('MP2/aug-cc-pvtz', properties = ['dipole'])
--------------------------------------------------------------------------

    Molecular point group: c1
  Charge       = 0
  Multiplicity = 1
  Basis Set: AUG-CC-PVTZ
    Blend: AUG-CC-PVTZ
  Basis Set: (AUG-CC-PVTZ AUX)
    Blend: AUG-CC-PVTZ-JKFIT

    Orbital Energies [Eh]
    ---------------------

    Doubly Occupied:

       1A    -20.586535     2A    -20.551674     3A    -11.376142
       4A    -11.281442     5A    -11.243462     6A    -11.241254
       7A    -11.226484     8A    -11.224319     9A    -11.220649
      10A    -11.218934    11A    -11.217668    12A     -1.447819
      13A     -1.355868    14A     -1.109433    15A     -1.064890
      16A     -1.018128    17A     -0.973882    18A     -0.915777
      19A     -0.877612    20A     -0.830405    21A     -0.761695
      22A     -0.723241    23A     -0.690921    24A     -0.674975
      25A     -0.664561    26A     -0.637548    27A     -0.623469
      28A     -0.602549    29A     -0.588371    30A     -0.572454
      31A     -0.552012    32A     -0.543499    33A     -0.536111
      34A     -0.522250    35A     -0.519865    36A     -0.512848
      37A     -0.510994    38A     -0.495087    39A     -0.482333
      40A     -0.465344    41A     -0.456008    42A     -0.446952
      43A     -0.342937

  @DF-RHF Final Energy:  -500.03385873922525

   => Energetics <=

    Nuclear Repulsion Energy =            602.7761086823579717
    One-Electron Energy =               -1875.8031360772042717
    Two-Electron Energy =                 772.9931686556210479
    Total Energy =                       -500.0338587392252521
  Basis Set: (AUG-CC-PVTZ AUX)
    Blend: AUG-CC-PVTZ-RI
    Molecular point group: c1

    Geometry (in Angstrom), charge = 0, multiplicity = 1:

       Center              X                  Y                   Z               Mass
    ------------   -----------------  -----------------  -----------------  -----------------
         O            1.068325650221     0.474976139920     0.019016821093    15.994914619570
         O            2.527811650221    -1.106199860080    -0.707076178907    15.994914619570
         C           -2.372675349779    -0.088707860080     0.303520821093    12.000000000000
         C           -3.601386349779     0.780614139920     0.411913821093    12.000000000000
         C           -1.265954349779     0.393889139920    -0.291297178907    12.000000000000
         C            0.004971650221    -0.331752860080    -0.557193178907    12.000000000000
         C           -2.516529349779    -1.474921860080     0.868224821093    12.000000000000
         C           -4.712395349779     0.355016139920    -0.554352178907    12.000000000000
         C            3.351266650221     0.873864139920     0.443328821093    12.000000000000
         C            2.348013550221    -0.042912960080    -0.211481378907    12.000000000000
         C            4.754741650221     0.303255139920     0.318797821093    12.000000000000
         H           -3.332419349779     1.823602139920     0.209920821093     1.007825032230
         H           -3.982298349779     0.745709139920     1.441273821093     1.007825032230
         H           -1.276388349779     1.424426139920    -0.645721178907     1.007825032230
         H            0.199740650221    -0.435789860080    -1.630537178907     1.007825032230
         H            0.044128650221    -1.331573860080    -0.120142178907     1.007825032230
         H           -2.798464349779    -1.415988860080     1.927903821093     1.007825032230
         H           -3.313989349779    -2.026188860080     0.355944821093     1.007825032230
         H           -1.603779349779    -2.068537860080     0.792534821093     1.007825032230
         H           -5.046959349779    -0.667139860080    -0.355360178907     1.007825032230
         H           -4.356896349779     0.400420139920    -1.587446178907     1.007825032230
         H           -5.581022349779     1.014342139920    -0.461691178907     1.007825032230
         H            3.265213650221     1.840347139920    -0.066087178907     1.007825032230
         H            3.130625550221     1.095632039920     1.492197021093     1.007825032230
         H            4.830641650221    -0.651896860080     0.841104821093     1.007825032230
         H            5.007096650221     0.128922139920    -0.729010178907     1.007825032230
         H            5.487216650221     0.993163139920     0.745721821093     1.007825032230

  Basis Set: AUG-CC-PVTZ
    Blend: AUG-CC-PVTZ
  Basis Set: (AUG-CC-PVTZ AUX)
    Blend: AUG-CC-PVTZ-JKFIT
	 Reference Energy          =    -500.0338587392252521 [Eh]
	 Singles Energy            =      -0.0000000000000000 [Eh]
	 Same-Spin Energy          =      -0.5096587099830492 [Eh]
	 Opposite-Spin Energy      =      -1.7168701618465145 [Eh]
	 Correlation Energy        =      -2.2265288718295637 [Eh]
	 Total Energy              =    -502.2603876110547958 [Eh]

	 ================> DF-SCS-MP2 Energies <==================
	-----------------------------------------------------------
	 SCS Same-Spin Scale       =       0.3333333333333333 [-]
	 SCS Opposite-Spin Scale   =       1.2000000000000000 [-]
	 SCS Same-Spin Energy      =      -0.1698862366610164 [Eh]
	 SCS Opposite-Spin Energy  =      -2.0602441942158172 [Eh]
	 SCS Correlation Energy    =      -2.2301304308768337 [Eh]
	 SCS Total Energy          =    -502.2639891701020929 [Eh]
	-----------------------------------------------------------

  Dipole Moment: [D]
     X:    -1.0028      Y:     1.0512      Z:     0.7075     Total:     1.6159

*** Psi4 exiting successfully. Buy a developer a beer!
