                               Psi4 1.3.2 release

  ==> Input File <==

--------------------------------------------------------------------------
#psi4
#
memory 32 gb

molecule  {
0 1
  O        1.0630444     0.4838864     0.0176108
  O        2.5311320    -1.1057930    -0.7123110
  C       -2.3693550    -0.0883010     0.2982860
  C       -3.5980660     0.7810210     0.4066790
  C       -1.2559630     0.4036504    -0.2904918
  C        0.0082920    -0.3313460    -0.5624280
  C       -2.5132090    -1.4745150     0.8629900
  C       -4.7090750     0.3554230    -0.5595870
  C        3.3545870     0.8742710     0.4380940
  C        2.3120420    -0.0450080    -0.1482500
  C        4.7580620     0.3036620     0.3135630
  H       -3.3290990     1.8240090     0.2046860
  H       -3.9789780     0.7461160     1.4360390
  H       -1.2730680     1.4248330    -0.6509560
  H        0.2030610    -0.4353830    -1.6357720
  H        0.0474490    -1.3311670    -0.1253770
  H       -2.7951440    -1.4155820     1.9226690
  H       -3.3106690    -2.0257820     0.3507100
  H       -1.6004590    -2.0681310     0.7873000
  H       -5.0436390    -0.6667330    -0.3605950
  H       -4.3535760     0.4008270    -1.5926810
  H       -5.5777020     1.0147490    -0.4669260
  H        3.2685340     1.8407540    -0.0713220
  H        3.0874670     1.0628020     1.4826470
  H        4.8339620    -0.6514900     0.8358700
  H        5.0104170     0.1293290    -0.7342450
  H        5.4905370     0.9935700     0.7404870
units angstrom
no_reorient  #important for SAPT in psi4, default
symmetry c1  #important for SAPT in psi4, default
}

set PROPERTIES_ORIGIN ["COM"]
properties('MP2/aug-cc-pvtz', properties = ['dipole'])
--------------------------------------------------------------------------

    Molecular point group: c1
  Charge       = 0
  Multiplicity = 1
  Basis Set: AUG-CC-PVTZ
    Blend: AUG-CC-PVTZ
  Basis Set: (AUG-CC-PVTZ AUX)
    Blend: AUG-CC-PVTZ-JKFIT

    Orbital Energies [Eh]
    ---------------------

    Doubly Occupied:

       1A    -20.596832     2A    -20.543145     3A    -11.377042
       4A    -11.285678     5A    -11.244460     6A    -11.242675
       7A    -11.227954     8A    -11.226225     9A    -11.222827
      10A    -11.218888    11A    -11.218273    12A     -1.444766
      13A     -1.348308    14A     -1.111096    15A     -1.064001
      16A     -1.020908    17A     -0.977245    18A     -0.918486
      19A     -0.879144    20A     -0.832559    21A     -0.766865
      22A     -0.722600    23A     -0.687798    24A     -0.678855
      25A     -0.659489    26A     -0.638253    27A     -0.623285
      28A     -0.604837    29A     -0.587929    30A     -0.573740
      31A     -0.552547    32A     -0.544279    33A     -0.533738
      34A     -0.522499    35A     -0.518267    36A     -0.514478
      37A     -0.512546    38A     -0.492579    39A     -0.483335
      40A     -0.465941    41A     -0.457961    42A     -0.445031
      43A     -0.344027

  @DF-RHF Final Energy:  -500.03682979972763

   => Energetics <=

    Nuclear Repulsion Energy =            602.8197457593913668
    One-Electron Energy =               -1875.8503673763527786
    Two-Electron Energy =                 772.9937918172338414
    Total Energy =                       -500.0368297997276841
  Basis Set: (AUG-CC-PVTZ AUX)
    Blend: AUG-CC-PVTZ-RI
    Molecular point group: c1

    Geometry (in Angstrom), charge = 0, multiplicity = 1:

       Center              X                  Y                   Z               Mass
    ------------   -----------------  -----------------  -----------------  -----------------
         O            1.063412838273     0.482296154967     0.016754156588    15.994914619570
         O            2.531500438273    -1.107383245033    -0.713167643412    15.994914619570
         C           -2.368986561727    -0.089891245033     0.297429356588    12.000000000000
         C           -3.597697561727     0.779430754967     0.405822356588    12.000000000000
         C           -1.255594561727     0.402060154967    -0.291348443412    12.000000000000
         C            0.008660438273    -0.332936245033    -0.563284643412    12.000000000000
         C           -2.512840561727    -1.476105245033     0.862133356588    12.000000000000
         C           -4.708706561727     0.353832754967    -0.560443643412    12.000000000000
         C            3.354955438273     0.872680754967     0.437237356588    12.000000000000
         C            2.312410438273    -0.046598245033    -0.149106643412    12.000000000000
         C            4.758430438273     0.302071754967     0.312706356588    12.000000000000
         H           -3.328730561727     1.822418754967     0.203829356588     1.007825032230
         H           -3.978609561727     0.744525754967     1.435182356588     1.007825032230
         H           -1.272699561727     1.423242754967    -0.651812643412     1.007825032230
         H            0.203429438273    -0.436973245033    -1.636628643412     1.007825032230
         H            0.047817438273    -1.332757245033    -0.126233643412     1.007825032230
         H           -2.794775561727    -1.417172245033     1.921812356588     1.007825032230
         H           -3.310300561727    -2.027372245033     0.349853356588     1.007825032230
         H           -1.600090561727    -2.069721245033     0.786443356588     1.007825032230
         H           -5.043270561727    -0.668323245033    -0.361451643412     1.007825032230
         H           -4.353207561727     0.399236754967    -1.593537643412     1.007825032230
         H           -5.577333561727     1.013158754967    -0.467782643412     1.007825032230
         H            3.268902438273     1.839163754967    -0.072178643412     1.007825032230
         H            3.087835438273     1.061211754967     1.481790356588     1.007825032230
         H            4.834330438273    -0.653080245033     0.835013356588     1.007825032230
         H            5.010785438273     0.127738754967    -0.735101643412     1.007825032230
         H            5.490905438273     0.991979754967     0.739630356588     1.007825032230

  Basis Set: AUG-CC-PVTZ
    Blend: AUG-CC-PVTZ
  Basis Set: (AUG-CC-PVTZ AUX)
    Blend: AUG-CC-PVTZ-JKFIT
	 Reference Energy          =    -500.0368297997276272 [Eh]
	 Singles Energy            =      -0.0000000000000000 [Eh]
	 Same-Spin Energy          =      -0.5100273116716061 [Eh]
	 Opposite-Spin Energy      =      -1.7175481387815690 [Eh]
	 Correlation Energy        =      -2.2275754504531751 [Eh]
	 Total Energy              =    -502.2644052501808005 [Eh]

	 ================> DF-SCS-MP2 Energies <==================
	-----------------------------------------------------------
	 SCS Same-Spin Scale       =       0.3333333333333333 [-]
	 SCS Opposite-Spin Scale   =       1.2000000000000000 [-]
	 SCS Same-Spin Energy      =      -0.1700091038905354 [Eh]
	 SCS Opposite-Spin Energy  =      -2.0610577665378829 [Eh]
	 SCS Correlation Energy    =      -2.2310668704284184 [Eh]
	 SCS Total Energy          =    -502.2678966701560626 [Eh]
	-----------------------------------------------------------

  Dipole Moment: [D]
     X:    -1.3632      Y:     1.1511      Z:     0.8091     Total:     1.9591

*** Psi4 exiting successfully. Buy a developer a beer!
