                               Psi4 1.3.2 release

  ==> Input File <==

--------------------------------------------------------------------------
#psi4
#
memory 32 gb

molecule  {
0 1
  O        1.0716460     0.4753830     0.0137820
  O        2.5311320    -1.1057930    -0.7123110
  C       -2.3693550    -0.0883010     0.2982860
  C       -3.5849911     0.8005787     0.3948383
  C       -1.2626340     0.3942960    -0.2965320
  C        0.0082920    -0.3313460    -0.5624280
  C       -2.4883833    -1.4796182     0.8561771
  C       -4.7090750     0.3554230    -0.5595870
  C        3.3545870     0.8742710     0.4380940
  C        2.3120420    -0.0450080    -0.1482500
  C        4.7580620     0.3036620     0.3135630
  H       -3.3290990     1.8240090     0.2046860
  H       -3.9789780     0.7461160     1.4360390
  H       -1.2730680     1.4248330    -0.6509560
  H        0.2030610    -0.4353830    -1.6357720
  H        0.0474490    -1.3311670    -0.1253770
  H       -2.7951440    -1.4155820     1.9226690
  H       -3.3106690    -2.0257820     0.3507100
  H       -1.6004590    -2.0681310     0.7873000
  H       -5.0436390    -0.6667330    -0.3605950
  H       -4.3535760     0.4008270    -1.5926810
  H       -5.5777020     1.0147490    -0.4669260
  H        3.2685340     1.8407540    -0.0713220
  H        3.0874670     1.0628020     1.4826470
  H        4.8339620    -0.6514900     0.8358700
  H        5.0104170     0.1293290    -0.7342450
  H        5.4905370     0.9935700     0.7404870
units angstrom
no_reorient  #important for SAPT in psi4, default
symmetry c1  #important for SAPT in psi4, default
}

set PROPERTIES_ORIGIN ["COM"]
properties('MP2/aug-cc-pvtz', properties = ['dipole'])
--------------------------------------------------------------------------

    Molecular point group: c1
  Charge       = 0
  Multiplicity = 1
  Basis Set: AUG-CC-PVTZ
    Blend: AUG-CC-PVTZ
  Basis Set: (AUG-CC-PVTZ AUX)
    Blend: AUG-CC-PVTZ-JKFIT

    Orbital Energies [Eh]
    ---------------------

    Doubly Occupied:

       1A    -20.597174     2A    -20.540700     3A    -11.375439
       4A    -11.286242     5A    -11.244353     6A    -11.242150
       7A    -11.228951     8A    -11.227267     9A    -11.222228
      10A    -11.219590    11A    -11.217841    12A     -1.448014
      13A     -1.347518    14A     -1.112497    15A     -1.063748
      16A     -1.021026    17A     -0.977874    18A     -0.919827
      19A     -0.879492    20A     -0.833339    21A     -0.767298
      22A     -0.723149    23A     -0.688144    24A     -0.680962
      25A     -0.660161    26A     -0.640264    27A     -0.622678
      28A     -0.605036    29A     -0.586247    30A     -0.571779
      31A     -0.554563    32A     -0.544567    33A     -0.535025
      34A     -0.521785    35A     -0.517347    36A     -0.512651
      37A     -0.511501    38A     -0.492371    39A     -0.485159
      40A     -0.468336    41A     -0.457403    42A     -0.444342
      43A     -0.344757

  @DF-RHF Final Energy:  -500.03693708246885

   => Energetics <=

    Nuclear Repulsion Energy =            603.1593058331321799
    One-Electron Energy =               -1876.5108971673544147
    Two-Electron Energy =                 773.3146542517532680
    Total Energy =                       -500.0369370824688531
  Basis Set: (AUG-CC-PVTZ AUX)
    Blend: AUG-CC-PVTZ-RI
    Molecular point group: c1

    Geometry (in Angstrom), charge = 0, multiplicity = 1:

       Center              X                  Y                   Z               Mass
    ------------   -----------------  -----------------  -----------------  -----------------
         O            1.068732646261     0.474271952627     0.015215763409    15.994914619570
         O            2.528218646261    -1.106904047373    -0.710877236591    15.994914619570
         C           -2.372268353739    -0.089412047373     0.299719763409    12.000000000000
         C           -3.587904453739     0.799467652627     0.396272063409    12.000000000000
         C           -1.265547353739     0.393184952627    -0.295098236591    12.000000000000
         C            0.005378646261    -0.332457047373    -0.560994236591    12.000000000000
         C           -2.491296653739    -1.480729247373     0.857610863409    12.000000000000
         C           -4.711988353739     0.354311952627    -0.558153236591    12.000000000000
         C            3.351673646261     0.873159952627     0.439527763409    12.000000000000
         C            2.309128646261    -0.046119047373    -0.146816236591    12.000000000000
         C            4.755148646261     0.302550952627     0.314996763409    12.000000000000
         H           -3.332012353739     1.822897952627     0.206119763409     1.007825032230
         H           -3.981891353739     0.745004952627     1.437472763409     1.007825032230
         H           -1.275981353739     1.423721952627    -0.649522236591     1.007825032230
         H            0.200147646261    -0.436494047373    -1.634338236591     1.007825032230
         H            0.044535646261    -1.332278047373    -0.123943236591     1.007825032230
         H           -2.798057353739    -1.416693047373     1.924102763409     1.007825032230
         H           -3.313582353739    -2.026893047373     0.352143763409     1.007825032230
         H           -1.603372353739    -2.069242047373     0.788733763409     1.007825032230
         H           -5.046552353739    -0.667844047373    -0.359161236591     1.007825032230
         H           -4.356489353739     0.399715952627    -1.591247236591     1.007825032230
         H           -5.580615353739     1.013637952627    -0.465492236591     1.007825032230
         H            3.265620646261     1.839642952627    -0.069888236591     1.007825032230
         H            3.084553646261     1.061690952627     1.484080763409     1.007825032230
         H            4.831048646261    -0.652601047373     0.837303763409     1.007825032230
         H            5.007503646261     0.128217952627    -0.732811236591     1.007825032230
         H            5.487623646261     0.992458952627     0.741920763409     1.007825032230

  Basis Set: AUG-CC-PVTZ
    Blend: AUG-CC-PVTZ
  Basis Set: (AUG-CC-PVTZ AUX)
    Blend: AUG-CC-PVTZ-JKFIT
	 Reference Energy          =    -500.0369370824688531 [Eh]
	 Singles Energy            =      -0.0000000000000000 [Eh]
	 Same-Spin Energy          =      -0.5097338804587235 [Eh]
	 Opposite-Spin Energy      =      -1.7167740891175056 [Eh]
	 Correlation Energy        =      -2.2265079695762289 [Eh]
	 Total Energy              =    -502.2634450520450855 [Eh]

	 ================> DF-SCS-MP2 Energies <==================
	-----------------------------------------------------------
	 SCS Same-Spin Scale       =       0.3333333333333333 [-]
	 SCS Opposite-Spin Scale   =       1.2000000000000000 [-]
	 SCS Same-Spin Energy      =      -0.1699112934862411 [Eh]
	 SCS Opposite-Spin Energy  =      -2.0601289069410065 [Eh]
	 SCS Correlation Energy    =      -2.2300402004272475 [Eh]
	 SCS Total Energy          =    -502.2669772828961072 [Eh]
	-----------------------------------------------------------

  Dipole Moment: [D]
     X:    -1.4519      Y:     1.1873      Z:     0.8269     Total:     2.0498

*** Psi4 exiting successfully. Buy a developer a beer!
