                               Psi4 1.4a3.dev225

  ==> Input File <==

--------------------------------------------------------------------------
#psi4
#
memory 32 gb

molecule  {
0 1
  O       -1.1411000    -0.4541930    -0.0251880
  O       -2.5814580     1.1752260    -0.6867450
  C        2.3134570     0.0186930     0.2462000
  C        3.5222300    -0.8802230     0.3222130
  C        1.1937340    -0.4134970    -0.3651820
  C       -0.0647290     0.3542590    -0.5783780
  C        2.4850690     1.3863280     0.8546590
  C        4.7190700    -0.3405130    -0.4677320
  C       -3.4286640    -0.8122060     0.4327630
  C       -2.3749380     0.0938890    -0.1583950
  C       -4.8466588    -0.2184567     0.3103717
  H        3.2581340    -1.8761120    -0.0507320
  H        3.8122360    -1.0018650     1.3748590
  H        1.1815530    -1.4238220    -0.7735790
  H       -0.2705280     0.5138520    -1.6430550
  H       -0.0714200     1.3330110    -0.0949940
  H        3.0182560     1.3061200     1.8081990
  H        3.0814560     2.0379150     0.2067330
  H        1.5342700     1.8877430     1.0433380
  H        5.0646870     0.6170420    -0.0694620
  H        4.4484560    -0.1949880    -1.5176090
  H        5.5583810    -1.0408350    -0.4253590
  H       -3.3536290    -1.7820470    -0.0715700
  H       -3.1585900    -0.9983310     1.4781360
  H       -4.8922970     0.7333770     0.8287030
  H       -5.0879650    -0.0561110    -0.7346540
  H       -5.5642940    -0.9066400     0.7478690
units angstrom
no_reorient  #important for SAPT in psi4, default
symmetry c1  #important for SAPT in psi4, default
}

set PROPERTIES_ORIGIN ["COM"]
properties('MP2/aug-cc-pvtz', properties = ['dipole'])
--------------------------------------------------------------------------

    Molecular point group: c1
  Charge       = 0
  Multiplicity = 1
  Basis Set: AUG-CC-PVTZ
    Blend: AUG-CC-PVTZ
  Basis Set: (AUG-CC-PVTZ AUX)
    Blend: AUG-CC-PVTZ-JKFIT

    Orbital Energies [Eh]
    ---------------------

    Doubly Occupied:

       1A    -20.597114     2A    -20.540671     3A    -11.375639
       4A    -11.286791     5A    -11.244510     6A    -11.243188
       7A    -11.228598     8A    -11.226149     9A    -11.223465
      10A    -11.219285    11A    -11.217676    12A     -1.446870
      13A     -1.347244    14A     -1.112095    15A     -1.060347
      16A     -1.021346    17A     -0.976864    18A     -0.920585
      19A     -0.880786    20A     -0.832917    21A     -0.766772
      22A     -0.722260    23A     -0.687297    24A     -0.679151
      25A     -0.659237    26A     -0.637835    27A     -0.623949
      28A     -0.604523    29A     -0.589413    30A     -0.571770
      31A     -0.554031    32A     -0.546048    33A     -0.534114
      34A     -0.520147    35A     -0.517837    36A     -0.513167
      37A     -0.511775    38A     -0.494387    39A     -0.484582
      40A     -0.465818    41A     -0.457116    42A     -0.444229
      43A     -0.346011

  @DF-RHF Final Energy:  -500.03833800858678

   => Energetics <=

    Nuclear Repulsion Energy =            602.2042313685235513
    One-Electron Energy =               -1874.6179206255810641
    Two-Electron Energy =                 772.3753512484706789
    Total Energy =                       -500.0383380085868339
  Basis Set: (AUG-CC-PVTZ AUX)
    Blend: AUG-CC-PVTZ-RI
    Molecular point group: c1

    Geometry (in Angstrom), charge = 0, multiplicity = 1:

       Center              X                  Y                   Z               Mass
    ------------   -----------------  -----------------  -----------------  -----------------
         O           -1.085413645907    -0.460174393110    -0.011699470450    15.994914619570
         O           -2.525771645907     1.169244606890    -0.673256470450    15.994914619570
         C            2.369143354093     0.012711606890     0.259688529550    12.000000000000
         C            3.577916354093    -0.886204393110     0.335701529550    12.000000000000
         C            1.249420354093    -0.419478393110    -0.351693470450    12.000000000000
         C           -0.009042645907     0.348277606890    -0.564889470450    12.000000000000
         C            2.540755354093     1.380346606890     0.868147529550    12.000000000000
         C            4.774756354093    -0.346494393110    -0.454243470450    12.000000000000
         C           -3.372977645907    -0.818187393110     0.446251529550    12.000000000000
         C           -2.319251645907     0.087907606890    -0.144906470450    12.000000000000
         C           -4.790972445907    -0.224438093110     0.323860229550    12.000000000000
         H            3.313820354093    -1.882093393110    -0.037243470450     1.007825032230
         H            3.867922354093    -1.007846393110     1.388347529550     1.007825032230
         H            1.237239354093    -1.429803393110    -0.760090470450     1.007825032230
         H           -0.214841645907     0.507870606890    -1.629566470450     1.007825032230
         H           -0.015733645907     1.327029606890    -0.081505470450     1.007825032230
         H            3.073942354093     1.300138606890     1.821687529550     1.007825032230
         H            3.137142354093     2.031933606890     0.220221529550     1.007825032230
         H            1.589956354093     1.881761606890     1.056826529550     1.007825032230
         H            5.120373354093     0.611060606890    -0.055973470450     1.007825032230
         H            4.504142354093    -0.200969393110    -1.504120470450     1.007825032230
         H            5.614067354093    -1.046816393110    -0.411870470450     1.007825032230
         H           -3.297942645907    -1.788028393110    -0.058081470450     1.007825032230
         H           -3.102903645907    -1.004312393110     1.491624529550     1.007825032230
         H           -4.836610645907     0.727395606890     0.842191529550     1.007825032230
         H           -5.032278645907    -0.062092393110    -0.721165470450     1.007825032230
         H           -5.508607645907    -0.912621393110     0.761357529550     1.007825032230

  Basis Set: AUG-CC-PVTZ
    Blend: AUG-CC-PVTZ
  Basis Set: (AUG-CC-PVTZ AUX)
    Blend: AUG-CC-PVTZ-JKFIT
	 Reference Energy          =    -500.0383380085867771 [Eh]
	 Singles Energy            =      -0.0000000000000000 [Eh]
	 Same-Spin Energy          =      -0.5095777688548278 [Eh]
	 Opposite-Spin Energy      =      -1.7168313423066399 [Eh]
	 Correlation Energy        =      -2.2264091111614679 [Eh]
	 Total Energy              =    -502.2647471197482218 [Eh]

	 ================> DF-SCS-MP2 Energies <==================
	-----------------------------------------------------------
	 SCS Same-Spin Scale       =       0.3333333333333333 [-]
	 SCS Opposite-Spin Scale   =       1.2000000000000000 [-]
	 SCS Same-Spin Energy      =      -0.1698592562849426 [Eh]
	 SCS Opposite-Spin Energy  =      -2.0601976107679678 [Eh]
	 SCS Correlation Energy    =      -2.2300568670529102 [Eh]
	 SCS Total Energy          =    -502.2683948756396717 [Eh]
	-----------------------------------------------------------

  Dipole Moment: [D]
     X:     1.4383      Y:    -1.2003      Z:     0.7993     Total:     2.0367

*** Psi4 exiting successfully. Buy a developer a beer!
