                               Psi4 1.4a3.dev225

  ==> Input File <==

--------------------------------------------------------------------------
#psi4
#
memory 32 gb

molecule  {
0 1
  O       -1.1411000    -0.4541930    -0.0251880
  O       -2.5814580     1.1752260    -0.6867450
  C        2.3134570     0.0186930     0.2462000
  C        3.5222300    -0.8802230     0.3222130
  C        1.1937340    -0.4134970    -0.3651820
  C       -0.0647290     0.3542590    -0.5783780
  C        2.4850690     1.3863280     0.8546590
  C        4.7190700    -0.3405130    -0.4677320
  C       -3.4286640    -0.8122060     0.4327630
  C       -2.3664817     0.0496120    -0.1367609
  C       -4.8282690    -0.2261570     0.3119590
  H        3.2581340    -1.8761120    -0.0507320
  H        3.8122360    -1.0018650     1.3748590
  H        1.1815530    -1.4238220    -0.7735790
  H       -0.2705280     0.5138520    -1.6430550
  H       -0.0714200     1.3330110    -0.0949940
  H        3.0182560     1.3061200     1.8081990
  H        3.0814560     2.0379150     0.2067330
  H        1.5342700     1.8877430     1.0433380
  H        5.0646870     0.6170420    -0.0694620
  H        4.4484560    -0.1949880    -1.5176090
  H        5.5583810    -1.0408350    -0.4253590
  H       -3.3536290    -1.7820470    -0.0715700
  H       -3.1585900    -0.9983310     1.4781360
  H       -4.8922970     0.7333770     0.8287030
  H       -5.0879650    -0.0561110    -0.7346540
  H       -5.5642940    -0.9066400     0.7478690
units angstrom
no_reorient  #important for SAPT in psi4, default
symmetry c1  #important for SAPT in psi4, default
}

set PROPERTIES_ORIGIN ["COM"]
properties('MP2/aug-cc-pvtz', properties = ['dipole'])
--------------------------------------------------------------------------

    Molecular point group: c1
  Charge       = 0
  Multiplicity = 1
  Basis Set: AUG-CC-PVTZ
    Blend: AUG-CC-PVTZ
  Basis Set: (AUG-CC-PVTZ AUX)
    Blend: AUG-CC-PVTZ-JKFIT

    Orbital Energies [Eh]
    ---------------------

    Doubly Occupied:

       1A    -20.604233     2A    -20.530622     3A    -11.378746
       4A    -11.290185     5A    -11.246443     6A    -11.243719
       7A    -11.229818     8A    -11.227255     9A    -11.225035
      10A    -11.220219    11A    -11.219067    12A     -1.451012
      13A     -1.319743    14A     -1.114209    15A     -1.068999
      16A     -1.024866    17A     -0.979810    18A     -0.924174
      19A     -0.884289    20A     -0.835505    21A     -0.770395
      22A     -0.723699    23A     -0.686468    24A     -0.681673
      25A     -0.656933    26A     -0.639873    27A     -0.623667
      28A     -0.606645    29A     -0.587116    30A     -0.572583
      31A     -0.553607    32A     -0.545351    33A     -0.531979
      34A     -0.526077    35A     -0.515443    36A     -0.514472
      37A     -0.510452    38A     -0.490187    39A     -0.485543
      40A     -0.466893    41A     -0.447191    42A     -0.440494
      43A     -0.348083

  @DF-RHF Final Energy:  -500.03137904825644

   => Energetics <=

    Nuclear Repulsion Energy =            602.3958570124527796
    One-Electron Energy =               -1874.9689288278159438
    Two-Electron Energy =                 772.5416927671067242
    Total Energy =                       -500.0313790482564400
  Basis Set: (AUG-CC-PVTZ AUX)
    Blend: AUG-CC-PVTZ-RI
    Molecular point group: c1

    Geometry (in Angstrom), charge = 0, multiplicity = 1:

       Center              X                  Y                   Z               Mass
    ------------   -----------------  -----------------  -----------------  -----------------
         O           -1.087477208913    -0.456179085285    -0.013484415823    15.994914619570
         O           -2.527835208913     1.173239914715    -0.675041415823    15.994914619570
         C            2.367079791087     0.016706914715     0.257903584177    12.000000000000
         C            3.575852791087    -0.882209085285     0.333916584177    12.000000000000
         C            1.247356791087    -0.415483085285    -0.353478415823    12.000000000000
         C           -0.011106208913     0.352272914715    -0.566674415823    12.000000000000
         C            2.538691791087     1.384341914715     0.866362584177    12.000000000000
         C            4.772692791087    -0.342499085285    -0.456028415823    12.000000000000
         C           -3.375041208913    -0.814192085285     0.444466584177    12.000000000000
         C           -2.312858908913     0.047625914715    -0.125057315823    12.000000000000
         C           -4.774646208913    -0.228143085285     0.323662584177    12.000000000000
         H            3.311756791087    -1.878098085285    -0.039028415823     1.007825032230
         H            3.865858791087    -1.003851085285     1.386562584177     1.007825032230
         H            1.235175791087    -1.425808085285    -0.761875415823     1.007825032230
         H           -0.216905208913     0.511865914715    -1.631351415823     1.007825032230
         H           -0.017797208913     1.331024914715    -0.083290415823     1.007825032230
         H            3.071878791087     1.304133914715     1.819902584177     1.007825032230
         H            3.135078791087     2.035928914715     0.218436584177     1.007825032230
         H            1.587892791087     1.885756914715     1.055041584177     1.007825032230
         H            5.118309791087     0.615055914715    -0.057758415823     1.007825032230
         H            4.502078791087    -0.196974085285    -1.505905415823     1.007825032230
         H            5.612003791087    -1.042821085285    -0.413655415823     1.007825032230
         H           -3.300006208913    -1.784033085285    -0.059866415823     1.007825032230
         H           -3.104967208913    -1.000317085285     1.489839584177     1.007825032230
         H           -4.838674208913     0.731390914715     0.840406584177     1.007825032230
         H           -5.034342208913    -0.058097085285    -0.722950415823     1.007825032230
         H           -5.510671208913    -0.908626085285     0.759572584177     1.007825032230

  Basis Set: AUG-CC-PVTZ
    Blend: AUG-CC-PVTZ
  Basis Set: (AUG-CC-PVTZ AUX)
    Blend: AUG-CC-PVTZ-JKFIT
	 Reference Energy          =    -500.0313790482564400 [Eh]
	 Singles Energy            =      -0.0000000000000000 [Eh]
	 Same-Spin Energy          =      -0.5106130710445599 [Eh]
	 Opposite-Spin Energy      =      -1.7185129216153263 [Eh]
	 Correlation Energy        =      -2.2291259926598861 [Eh]
	 Total Energy              =    -502.2605050409163141 [Eh]

	 ================> DF-SCS-MP2 Energies <==================
	-----------------------------------------------------------
	 SCS Same-Spin Scale       =       0.3333333333333333 [-]
	 SCS Opposite-Spin Scale   =       1.2000000000000000 [-]
	 SCS Same-Spin Energy      =      -0.1702043570148533 [Eh]
	 SCS Opposite-Spin Energy  =      -2.0622155059383913 [Eh]
	 SCS Correlation Energy    =      -2.2324198629532446 [Eh]
	 SCS Total Energy          =    -502.2637989112096761 [Eh]
	-----------------------------------------------------------

  Dipole Moment: [D]
     X:     1.6597      Y:    -1.4411      Z:     0.9145     Total:     2.3807

*** Psi4 exiting successfully. Buy a developer a beer!
