                               Psi4 1.4a3.dev225

  ==> Input File <==

--------------------------------------------------------------------------
#psi4
#
memory 32 gb

molecule  {
0 1
  O       -1.1411000    -0.4541930    -0.0251880
  O       -2.5814580     1.1752260    -0.6867450
  C        2.3134570     0.0186930     0.2462000
  C        3.5222300    -0.8802230     0.3222130
  C        1.1937340    -0.4134970    -0.3651820
  C       -0.0647290     0.3542590    -0.5783780
  C        2.4850690     1.3863280     0.8546590
  C        4.7190700    -0.3405130    -0.4677320
  C       -3.4286640    -0.8122060     0.4327630
  C       -2.3609836     0.1058884    -0.1662237
  C       -4.8282690    -0.2261570     0.3119590
  H        3.2581340    -1.8761120    -0.0507320
  H        3.8122360    -1.0018650     1.3748590
  H        1.1815530    -1.4238220    -0.7735790
  H       -0.2705280     0.5138520    -1.6430550
  H       -0.0714200     1.3330110    -0.0949940
  H        3.0182560     1.3061200     1.8081990
  H        3.0814560     2.0379150     0.2067330
  H        1.5342700     1.8877430     1.0433380
  H        5.0646870     0.6170420    -0.0694620
  H        4.4484560    -0.1949880    -1.5176090
  H        5.5583810    -1.0408350    -0.4253590
  H       -3.3536290    -1.7820470    -0.0715700
  H       -3.1585900    -0.9983310     1.4781360
  H       -4.8922970     0.7333770     0.8287030
  H       -5.0879650    -0.0561110    -0.7346540
  H       -5.5642940    -0.9066400     0.7478690
units angstrom
no_reorient  #important for SAPT in psi4, default
symmetry c1  #important for SAPT in psi4, default
}

set PROPERTIES_ORIGIN ["COM"]
properties('MP2/aug-cc-pvtz', properties = ['dipole'])
--------------------------------------------------------------------------

    Molecular point group: c1
  Charge       = 0
  Multiplicity = 1
  Basis Set: AUG-CC-PVTZ
    Blend: AUG-CC-PVTZ
  Basis Set: (AUG-CC-PVTZ AUX)
    Blend: AUG-CC-PVTZ-JKFIT

    Orbital Energies [Eh]
    ---------------------

    Doubly Occupied:

       1A    -20.598702     2A    -20.541672     3A    -11.374080
       4A    -11.287606     5A    -11.245020     6A    -11.241216
       7A    -11.228943     8A    -11.226594     9A    -11.223972
      10A    -11.219588    11A    -11.216797    12A     -1.452010
      13A     -1.354640    14A     -1.112588    15A     -1.058790
      16A     -1.022052    17A     -0.977487    18A     -0.920001
      19A     -0.877073    20A     -0.832783    21A     -0.768876
      22A     -0.722737    23A     -0.687961    24A     -0.680738
      25A     -0.661819    26A     -0.637633    27A     -0.624083
      28A     -0.604497    29A     -0.589803    30A     -0.572190
      31A     -0.554930    32A     -0.546993    33A     -0.534638
      34A     -0.520443    35A     -0.517369    36A     -0.513574
      37A     -0.513053    38A     -0.492165    39A     -0.484998
      40A     -0.466557    41A     -0.459694    42A     -0.442301
      43A     -0.346448

  @DF-RHF Final Energy:  -500.03932006915750

   => Energetics <=

    Nuclear Repulsion Energy =            602.6820633504195257
    One-Electron Energy =               -1875.5325309258439574
    Two-Electron Energy =                 772.8111475062668205
    Total Energy =                       -500.0393200691574975
  Basis Set: (AUG-CC-PVTZ AUX)
    Blend: AUG-CC-PVTZ-RI
    Molecular point group: c1

    Geometry (in Angstrom), charge = 0, multiplicity = 1:

       Center              X                  Y                   Z               Mass
    ------------   -----------------  -----------------  -----------------  -----------------
         O           -1.087899828055    -0.460504849441    -0.011219716514    15.994914619570
         O           -2.528257828055     1.168914150559    -0.672776716514    15.994914619570
         C            2.366657171945     0.012381150559     0.260168283486    12.000000000000
         C            3.575430171945    -0.886534849441     0.336181283486    12.000000000000
         C            1.246934171945    -0.419808849441    -0.351213716514    12.000000000000
         C           -0.011528828055     0.347947150559    -0.564409716514    12.000000000000
         C            2.538269171945     1.380016150559     0.868627283486    12.000000000000
         C            4.772270171945    -0.346824849441    -0.453763716514    12.000000000000
         C           -3.375463828055    -0.818517849441     0.446731283486    12.000000000000
         C           -2.307783428055     0.099576550559    -0.152255416514    12.000000000000
         C           -4.775068828055    -0.232468849441     0.325927283486    12.000000000000
         H            3.311334171945    -1.882423849441    -0.036763716514     1.007825032230
         H            3.865436171945    -1.008176849441     1.388827283486     1.007825032230
         H            1.234753171945    -1.430133849441    -0.759610716514     1.007825032230
         H           -0.217327828055     0.507540150559    -1.629086716514     1.007825032230
         H           -0.018219828055     1.326699150559    -0.081025716514     1.007825032230
         H            3.071456171945     1.299808150559     1.822167283486     1.007825032230
         H            3.134656171945     2.031603150559     0.220701283486     1.007825032230
         H            1.587470171945     1.881431150559     1.057306283486     1.007825032230
         H            5.117887171945     0.610730150559    -0.055493716514     1.007825032230
         H            4.501656171945    -0.201299849441    -1.503640716514     1.007825032230
         H            5.611581171945    -1.047146849441    -0.411390716514     1.007825032230
         H           -3.300428828055    -1.788358849441    -0.057601716514     1.007825032230
         H           -3.105389828055    -1.004642849441     1.492104283486     1.007825032230
         H           -4.839096828055     0.727065150559     0.842671283486     1.007825032230
         H           -5.034764828055    -0.062422849441    -0.720685716514     1.007825032230
         H           -5.511093828055    -0.912951849441     0.761837283486     1.007825032230

  Basis Set: AUG-CC-PVTZ
    Blend: AUG-CC-PVTZ
  Basis Set: (AUG-CC-PVTZ AUX)
    Blend: AUG-CC-PVTZ-JKFIT
	 Reference Energy          =    -500.0393200691574975 [Eh]
	 Singles Energy            =      -0.0000000000000000 [Eh]
	 Same-Spin Energy          =      -0.5093325995268188 [Eh]
	 Opposite-Spin Energy      =      -1.7162641943634176 [Eh]
	 Correlation Energy        =      -2.2255967938902366 [Eh]
	 Total Energy              =    -502.2649168630477448 [Eh]

	 ================> DF-SCS-MP2 Energies <==================
	-----------------------------------------------------------
	 SCS Same-Spin Scale       =       0.3333333333333333 [-]
	 SCS Opposite-Spin Scale   =       1.2000000000000000 [-]
	 SCS Same-Spin Energy      =      -0.1697775331756062 [Eh]
	 SCS Opposite-Spin Energy  =      -2.0595170332361010 [Eh]
	 SCS Correlation Energy    =      -2.2292945664117072 [Eh]
	 SCS Total Energy          =    -502.2686146355691790 [Eh]
	-----------------------------------------------------------

  Dipole Moment: [D]
     X:     1.5469      Y:    -1.1362      Z:     0.7557     Total:     2.0627

*** Psi4 exiting successfully. Buy a developer a beer!
