                               Psi4 1.3.2 release

  ==> Input File <==

--------------------------------------------------------------------------
#psi4
#
memory 32 gb

molecule  {
0 1
  O        1.0679550     0.4852237     0.0066762
  O        2.5311320    -1.1057930    -0.7123110
  C       -2.3693550    -0.0883010     0.2982860
  C       -3.5980660     0.7810210     0.4066790
  C       -1.2626340     0.3942960    -0.2965320
  C        0.0082920    -0.3313460    -0.5624280
  C       -2.5132090    -1.4745150     0.8629900
  C       -4.7090750     0.3554230    -0.5595870
  C        3.3545870     0.8742710     0.4380940
  C        2.3120420    -0.0450080    -0.1482500
  C        4.7580620     0.3036620     0.3135630
  H       -3.3290990     1.8240090     0.2046860
  H       -3.9789780     0.7461160     1.4360390
  H       -1.2730680     1.4248330    -0.6509560
  H        0.2030610    -0.4353830    -1.6357720
  H        0.0399662    -1.3337359    -0.1306872
  H       -2.7951440    -1.4155820     1.9226690
  H       -3.3106690    -2.0257820     0.3507100
  H       -1.6004590    -2.0681310     0.7873000
  H       -5.0436390    -0.6667330    -0.3605950
  H       -4.3535760     0.4008270    -1.5926810
  H       -5.5777020     1.0147490    -0.4669260
  H        3.2685340     1.8407540    -0.0713220
  H        3.0874670     1.0628020     1.4826470
  H        4.8339620    -0.6514900     0.8358700
  H        5.0104170     0.1293290    -0.7342450
  H        5.4905370     0.9935700     0.7404870
units angstrom
no_reorient  #important for SAPT in psi4, default
symmetry c1  #important for SAPT in psi4, default
}

set PROPERTIES_ORIGIN ["COM"]
properties('MP2/aug-cc-pvtz', properties = ['dipole'])
--------------------------------------------------------------------------

    Molecular point group: c1
  Charge       = 0
  Multiplicity = 1
  Basis Set: AUG-CC-PVTZ
    Blend: AUG-CC-PVTZ
  Basis Set: (AUG-CC-PVTZ AUX)
    Blend: AUG-CC-PVTZ-JKFIT

    Orbital Energies [Eh]
    ---------------------

    Doubly Occupied:

       1A    -20.597474     2A    -20.542167     3A    -11.376539
       4A    -11.286086     5A    -11.243818     6A    -11.242555
       7A    -11.228171     8A    -11.226250     9A    -11.222895
      10A    -11.219015    11A    -11.218151    12A     -1.446394
      13A     -1.348107    14A     -1.112162    15A     -1.064020
      16A     -1.021419    17A     -0.977543    18A     -0.919210
      19A     -0.879305    20A     -0.833171    21A     -0.767335
      22A     -0.722216    23A     -0.687633    24A     -0.679521
      25A     -0.659956    26A     -0.638379    27A     -0.623601
      28A     -0.605058    29A     -0.587957    30A     -0.574238
      31A     -0.552830    32A     -0.544422    33A     -0.533484
      34A     -0.522323    35A     -0.517843    36A     -0.514699
      37A     -0.512273    38A     -0.492489    39A     -0.483697
      40A     -0.465335    41A     -0.457758    42A     -0.444973
      43A     -0.345647

  @DF-RHF Final Energy:  -500.03773117453596

   => Energetics <=

    Nuclear Repulsion Energy =            602.9375694909829235
    One-Electron Energy =               -1876.0743611938930826
    Two-Electron Energy =                 773.0990605283741388
    Total Energy =                       -500.0377311745360203
  Basis Set: (AUG-CC-PVTZ AUX)
    Blend: AUG-CC-PVTZ-RI
    Molecular point group: c1

    Geometry (in Angstrom), charge = 0, multiplicity = 1:

       Center              X                  Y                   Z               Mass
    ------------   -----------------  -----------------  -----------------  -----------------
         O            1.068381400184     0.484232063586     0.007438440729    15.994914619570
         O            2.531558400184    -1.106784636414    -0.711548759271    15.994914619570
         C           -2.368928599816    -0.089292636414     0.299048240729    12.000000000000
         C           -3.597639599816     0.780029363586     0.407441240729    12.000000000000
         C           -1.262207599816     0.393304363586    -0.295769759271    12.000000000000
         C            0.008718400184    -0.332337636414    -0.561665759271    12.000000000000
         C           -2.512782599816    -1.475506636414     0.863752240729    12.000000000000
         C           -4.708648599816     0.354431363586    -0.558824759271    12.000000000000
         C            3.355013400184     0.873279363586     0.438856240729    12.000000000000
         C            2.312468400184    -0.045999636414    -0.147487759271    12.000000000000
         C            4.758488400184     0.302670363586     0.314325240729    12.000000000000
         H           -3.328672599816     1.823017363586     0.205448240729     1.007825032230
         H           -3.978551599816     0.745124363586     1.436801240729     1.007825032230
         H           -1.272641599816     1.423841363586    -0.650193759271     1.007825032230
         H            0.203487400184    -0.436374636414    -1.635009759271     1.007825032230
         H            0.040392600184    -1.334727536414    -0.129924959271     1.007825032230
         H           -2.794717599816    -1.416573636414     1.923431240729     1.007825032230
         H           -3.310242599816    -2.026773636414     0.351472240729     1.007825032230
         H           -1.600032599816    -2.069122636414     0.788062240729     1.007825032230
         H           -5.043212599816    -0.667724636414    -0.359832759271     1.007825032230
         H           -4.353149599816     0.399835363586    -1.591918759271     1.007825032230
         H           -5.577275599816     1.013757363586    -0.466163759271     1.007825032230
         H            3.268960400184     1.839762363586    -0.070559759271     1.007825032230
         H            3.087893400184     1.061810363586     1.483409240729     1.007825032230
         H            4.834388400184    -0.652481636414     0.836632240729     1.007825032230
         H            5.010843400184     0.128337363586    -0.733482759271     1.007825032230
         H            5.490963400184     0.992578363586     0.741249240729     1.007825032230

  Basis Set: AUG-CC-PVTZ
    Blend: AUG-CC-PVTZ
  Basis Set: (AUG-CC-PVTZ AUX)
    Blend: AUG-CC-PVTZ-JKFIT
	 Reference Energy          =    -500.0377311745359634 [Eh]
	 Singles Energy            =      -0.0000000000000000 [Eh]
	 Same-Spin Energy          =      -0.5098728777876166 [Eh]
	 Opposite-Spin Energy      =      -1.7171367316443116 [Eh]
	 Correlation Energy        =      -2.2270096094319283 [Eh]
	 Total Energy              =    -502.2647407839679090 [Eh]

	 ================> DF-SCS-MP2 Energies <==================
	-----------------------------------------------------------
	 SCS Same-Spin Scale       =       0.3333333333333333 [-]
	 SCS Opposite-Spin Scale   =       1.2000000000000000 [-]
	 SCS Same-Spin Energy      =      -0.1699576259292055 [Eh]
	 SCS Opposite-Spin Energy  =      -2.0605640779731740 [Eh]
	 SCS Correlation Energy    =      -2.2305217039023795 [Eh]
	 SCS Total Energy          =    -502.2682528784383180 [Eh]
	-----------------------------------------------------------

  Dipole Moment: [D]
     X:    -1.3965      Y:     1.1598      Z:     0.8349     Total:     1.9981

*** Psi4 exiting successfully. Buy a developer a beer!
