                               Psi4 1.3.2 release

  ==> Input File <==

--------------------------------------------------------------------------
#psi4
#
memory 32 gb

molecule  {
0 1
  O        1.0716460     0.4753830     0.0137820
  O        2.5311320    -1.1057930    -0.7123110
  C       -2.3693550    -0.0883010     0.2982860
  C       -3.5980660     0.7810210     0.4066790
  C       -1.2536107     0.4145713    -0.3100021
  C        0.0082920    -0.3313460    -0.5624280
  C       -2.5132090    -1.4745150     0.8629900
  C       -4.7090750     0.3554230    -0.5595870
  C        3.3545870     0.8742710     0.4380940
  C        2.3120420    -0.0450080    -0.1482500
  C        4.7580620     0.3036620     0.3135630
  H       -3.3290990     1.8240090     0.2046860
  H       -3.9789780     0.7461160     1.4360390
  H       -1.2730680     1.4248330    -0.6509560
  H        0.2030610    -0.4353830    -1.6357720
  H        0.0649543    -1.3334385    -0.1325573
  H       -2.7951440    -1.4155820     1.9226690
  H       -3.3106690    -2.0257820     0.3507100
  H       -1.6004590    -2.0681310     0.7873000
  H       -5.0436390    -0.6667330    -0.3605950
  H       -4.3535760     0.4008270    -1.5926810
  H       -5.5777020     1.0147490    -0.4669260
  H        3.2685340     1.8407540    -0.0713220
  H        3.0874670     1.0628020     1.4826470
  H        4.8339620    -0.6514900     0.8358700
  H        5.0104170     0.1293290    -0.7342450
  H        5.4905370     0.9935700     0.7404870
units angstrom
no_reorient  #important for SAPT in psi4, default
symmetry c1  #important for SAPT in psi4, default
}

set PROPERTIES_ORIGIN ["COM"]
properties('MP2/aug-cc-pvtz', properties = ['dipole'])
--------------------------------------------------------------------------

    Molecular point group: c1
  Charge       = 0
  Multiplicity = 1
  Basis Set: AUG-CC-PVTZ
    Blend: AUG-CC-PVTZ
  Basis Set: (AUG-CC-PVTZ AUX)
    Blend: AUG-CC-PVTZ-JKFIT

    Orbital Energies [Eh]
    ---------------------

    Doubly Occupied:

       1A    -20.596554     2A    -20.540590     3A    -11.375152
       4A    -11.286102     5A    -11.247496     6A    -11.241979
       7A    -11.228346     8A    -11.227107     9A    -11.224065
      10A    -11.219154    11A    -11.217726    12A     -1.447815
      13A     -1.347383    14A     -1.110111    15A     -1.063766
      16A     -1.021275    17A     -0.978286    18A     -0.918584
      19A     -0.878673    20A     -0.832674    21A     -0.767601
      22A     -0.724640    23A     -0.688440    24A     -0.679112
      25A     -0.660304    26A     -0.638445    27A     -0.623346
      28A     -0.605147    29A     -0.588184    30A     -0.573937
      31A     -0.552804    32A     -0.544165    33A     -0.533908
      34A     -0.522913    35A     -0.518148    36A     -0.514100
      37A     -0.513221    38A     -0.492125    39A     -0.483323
      40A     -0.467847    41A     -0.457136    42A     -0.443990
      43A     -0.341446

  @DF-RHF Final Energy:  -500.03650376353517

   => Energetics <=

    Nuclear Repulsion Energy =            602.8350534050968008
    One-Electron Energy =               -1875.8688728428865033
    Two-Electron Energy =                 772.9973156742544234
    Total Energy =                       -500.0365037635351655
  Basis Set: (AUG-CC-PVTZ AUX)
    Blend: AUG-CC-PVTZ-RI
    Molecular point group: c1

    Geometry (in Angstrom), charge = 0, multiplicity = 1:

       Center              X                  Y                   Z               Mass
    ------------   -----------------  -----------------  -----------------  -----------------
         O            1.070839332088     0.473839192722     0.014863679987    15.994914619570
         O            2.530325332088    -1.107336807278    -0.711229320013    15.994914619570
         C           -2.370161667912    -0.089844807278     0.299367679987    12.000000000000
         C           -3.598872667912     0.779477192722     0.407760679987    12.000000000000
         C           -1.254417367912     0.413027492722    -0.308920420013    12.000000000000
         C            0.007485332088    -0.332889807278    -0.561346320013    12.000000000000
         C           -2.514015667912    -1.476058807278     0.864071679987    12.000000000000
         C           -4.709881667912     0.353879192722    -0.558505320013    12.000000000000
         C            3.353780332088     0.872727192722     0.439175679987    12.000000000000
         C            2.311235332088    -0.046551807278    -0.147168320013    12.000000000000
         C            4.757255332088     0.302118192722     0.314644679987    12.000000000000
         H           -3.329905667912     1.822465192722     0.205767679987     1.007825032230
         H           -3.979784667912     0.744572192722     1.437120679987     1.007825032230
         H           -1.273874667912     1.423289192722    -0.649874320013     1.007825032230
         H            0.202254332088    -0.436926807278    -1.634690320013     1.007825032230
         H            0.064147632088    -1.334982307278    -0.131475620013     1.007825032230
         H           -2.795950667912    -1.417125807278     1.923750679987     1.007825032230
         H           -3.311475667912    -2.027325807278     0.351791679987     1.007825032230
         H           -1.601265667912    -2.069674807278     0.788381679987     1.007825032230
         H           -5.044445667912    -0.668276807278    -0.359513320013     1.007825032230
         H           -4.354382667912     0.399283192722    -1.591599320013     1.007825032230
         H           -5.578508667912     1.013205192722    -0.465844320013     1.007825032230
         H            3.267727332088     1.839210192722    -0.070240320013     1.007825032230
         H            3.086660332088     1.061258192722     1.483728679987     1.007825032230
         H            4.833155332088    -0.653033807278     0.836951679987     1.007825032230
         H            5.009610332088     0.127785192722    -0.733163320013     1.007825032230
         H            5.489730332088     0.992026192722     0.741568679987     1.007825032230

  Basis Set: AUG-CC-PVTZ
    Blend: AUG-CC-PVTZ
  Basis Set: (AUG-CC-PVTZ AUX)
    Blend: AUG-CC-PVTZ-JKFIT
	 Reference Energy          =    -500.0365037635351655 [Eh]
	 Singles Energy            =      -0.0000000000000000 [Eh]
	 Same-Spin Energy          =      -0.5099601561385947 [Eh]
	 Opposite-Spin Energy      =      -1.7172901256979269 [Eh]
	 Correlation Energy        =      -2.2272502818365219 [Eh]
	 Total Energy              =    -502.2637540453716838 [Eh]

	 ================> DF-SCS-MP2 Energies <==================
	-----------------------------------------------------------
	 SCS Same-Spin Scale       =       0.3333333333333333 [-]
	 SCS Opposite-Spin Scale   =       1.2000000000000000 [-]
	 SCS Same-Spin Energy      =      -0.1699867187128649 [Eh]
	 SCS Opposite-Spin Energy  =      -2.0607481508375121 [Eh]
	 SCS Correlation Energy    =      -2.2307348695503770 [Eh]
	 SCS Total Energy          =    -502.2672386330855261 [Eh]
	-----------------------------------------------------------

  Dipole Moment: [D]
     X:    -1.4512      Y:     1.1825      Z:     0.8335     Total:     2.0491

*** Psi4 exiting successfully. Buy a developer a beer!
