                               Psi4 1.3.2 release

  ==> Input File <==

--------------------------------------------------------------------------
#psi4
#
memory 32 gb

molecule  {
0 1
  O        1.1052363     0.4407617    -0.0019691
  O        2.5311320    -1.1057930    -0.7123110
  C       -2.3693550    -0.0883010     0.2982860
  C       -3.5980660     0.7810210     0.4066790
  C       -1.2883450     0.3563328    -0.3208906
  C        0.0082920    -0.3313460    -0.5624280
  C       -2.5132090    -1.4745150     0.8629900
  C       -4.7090750     0.3554230    -0.5595870
  C        3.3545870     0.8742710     0.4380940
  C        2.3120420    -0.0450080    -0.1482500
  C        4.7580620     0.3036620     0.3135630
  H       -3.3290990     1.8240090     0.2046860
  H       -3.9789780     0.7461160     1.4360390
  H       -1.2730680     1.4248330    -0.6509560
  H        0.2030610    -0.4353830    -1.6357720
  H        0.0474490    -1.3311670    -0.1253770
  H       -2.7951440    -1.4155820     1.9226690
  H       -3.3106690    -2.0257820     0.3507100
  H       -1.6004590    -2.0681310     0.7873000
  H       -5.0436390    -0.6667330    -0.3605950
  H       -4.3535760     0.4008270    -1.5926810
  H       -5.5777020     1.0147490    -0.4669260
  H        3.2685340     1.8407540    -0.0713220
  H        3.0874670     1.0628020     1.4826470
  H        4.8339620    -0.6514900     0.8358700
  H        5.0104170     0.1293290    -0.7342450
  H        5.4905370     0.9935700     0.7404870
units angstrom
no_reorient  #important for SAPT in psi4, default
symmetry c1  #important for SAPT in psi4, default
}

set PROPERTIES_ORIGIN ["COM"]
properties('MP2/aug-cc-pvtz', properties = ['dipole'])
--------------------------------------------------------------------------

    Molecular point group: c1
  Charge       = 0
  Multiplicity = 1
  Basis Set: AUG-CC-PVTZ
    Blend: AUG-CC-PVTZ
  Basis Set: (AUG-CC-PVTZ AUX)
    Blend: AUG-CC-PVTZ-JKFIT

    Orbital Energies [Eh]
    ---------------------

    Doubly Occupied:

       1A    -20.599003     2A    -20.530796     3A    -11.369125
       4A    -11.290138     5A    -11.243919     6A    -11.240264
       7A    -11.230415     8A    -11.227250     9A    -11.225582
      10A    -11.220615    11A    -11.216198    12A     -1.463451
      13A     -1.343641    14A     -1.118272    15A     -1.063767
      16A     -1.025274    17A     -0.981184    18A     -0.924505
      19A     -0.879125    20A     -0.837658    21A     -0.770251
      22A     -0.723626    23A     -0.688232    24A     -0.684609
      25A     -0.662900    26A     -0.640419    27A     -0.625254
      28A     -0.606452    29A     -0.588104    30A     -0.577180
      31A     -0.554128    32A     -0.545767    33A     -0.534162
      34A     -0.520979    35A     -0.517104    36A     -0.513882
      37A     -0.507806    38A     -0.491279    39A     -0.486189
      40A     -0.463989    41A     -0.453869    42A     -0.440963
      43A     -0.354152

  @DF-RHF Final Energy:  -500.03883127946131

   => Energetics <=

    Nuclear Repulsion Energy =            604.1404479213377954
    One-Electron Energy =               -1878.3956030621359332
    Two-Electron Energy =                 774.2163238613369458
    Total Energy =                       -500.0388312794613057
  Basis Set: (AUG-CC-PVTZ AUX)
    Blend: AUG-CC-PVTZ-RI
    Molecular point group: c1

    Geometry (in Angstrom), charge = 0, multiplicity = 1:

       Center              X                  Y                   Z               Mass
    ------------   -----------------  -----------------  -----------------  -----------------
         O            1.103771014521     0.447226970803     0.001516980218    15.994914619570
         O            2.529666714521    -1.099327729197    -0.708824919782    15.994914619570
         C           -2.370820285479    -0.081835729197     0.301772080218    12.000000000000
         C           -3.599531285479     0.787486270803     0.410165080218    12.000000000000
         C           -1.289810285479     0.362798070803    -0.317404519782    12.000000000000
         C            0.006826714521    -0.324880729197    -0.558941919782    12.000000000000
         C           -2.514674285479    -1.468049729197     0.866476080218    12.000000000000
         C           -4.710540285479     0.361888270803    -0.556100919782    12.000000000000
         C            3.353121714521     0.880736270803     0.441580080218    12.000000000000
         C            2.310576714521    -0.038542729197    -0.144763919782    12.000000000000
         C            4.756596714521     0.310127270803     0.317049080218    12.000000000000
         H           -3.330564285479     1.830474270803     0.208172080218     1.007825032230
         H           -3.980443285479     0.752581270803     1.439525080218     1.007825032230
         H           -1.274533285479     1.431298270803    -0.647469919782     1.007825032230
         H            0.201595714521    -0.428917729197    -1.632285919782     1.007825032230
         H            0.045983714521    -1.324701729197    -0.121890919782     1.007825032230
         H           -2.796609285479    -1.409116729197     1.926155080218     1.007825032230
         H           -3.312134285479    -2.019316729197     0.354196080218     1.007825032230
         H           -1.601924285479    -2.061665729197     0.790786080218     1.007825032230
         H           -5.045104285479    -0.660267729197    -0.357108919782     1.007825032230
         H           -4.355041285479     0.407292270803    -1.589194919782     1.007825032230
         H           -5.579167285479     1.021214270803    -0.463439919782     1.007825032230
         H            3.267068714521     1.847219270803    -0.067835919782     1.007825032230
         H            3.086001714521     1.069267270803     1.486133080218     1.007825032230
         H            4.832496714521    -0.645024729197     0.839356080218     1.007825032230
         H            5.008951714521     0.135794270803    -0.730758919782     1.007825032230
         H            5.489071714521     1.000035270803     0.743973080218     1.007825032230

  Basis Set: AUG-CC-PVTZ
    Blend: AUG-CC-PVTZ
  Basis Set: (AUG-CC-PVTZ AUX)
    Blend: AUG-CC-PVTZ-JKFIT
	 Reference Energy          =    -500.0388312794613057 [Eh]
	 Singles Energy            =      -0.0000000000000000 [Eh]
	 Same-Spin Energy          =      -0.5088755128731269 [Eh]
	 Opposite-Spin Energy      =      -1.7143532279740470 [Eh]
	 Correlation Energy        =      -2.2232287408471740 [Eh]
	 Total Energy              =    -502.2620600203084678 [Eh]

	 ================> DF-SCS-MP2 Energies <==================
	-----------------------------------------------------------
	 SCS Same-Spin Scale       =       0.3333333333333333 [-]
	 SCS Opposite-Spin Scale   =       1.2000000000000000 [-]
	 SCS Same-Spin Energy      =      -0.1696251709577090 [Eh]
	 SCS Opposite-Spin Energy  =      -2.0572238735688564 [Eh]
	 SCS Correlation Energy    =      -2.2268490445265652 [Eh]
	 SCS Total Energy          =    -502.2656803239878514 [Eh]
	-----------------------------------------------------------

  Dipole Moment: [D]
     X:    -1.7875      Y:     1.3050      Z:     0.9288     Total:     2.4002

*** Psi4 exiting successfully. Buy a developer a beer!
