                               Psi4 1.3.2 release

  ==> Input File <==

--------------------------------------------------------------------------
#psi4
#
memory 32 gb

molecule  {
0 1
  O        1.0716460     0.4753830     0.0137820
  O        2.5311320    -1.1057930    -0.7123110
  C       -2.3693550    -0.0883010     0.2982860
  C       -3.5980660     0.7810210     0.4066790
  C       -1.2626340     0.3942960    -0.2965320
  C        0.0082920    -0.3313460    -0.5624280
  C       -2.5132090    -1.4745150     0.8629900
  C       -4.7090750     0.3554230    -0.5595870
  C        3.3545870     0.8742710     0.4380940
  C        2.3057684    -0.0451801    -0.1366776
  C        4.7580620     0.3036620     0.3135630
  H       -3.3290990     1.8240090     0.2046860
  H       -3.9789780     0.7461160     1.4360390
  H       -1.2730680     1.4248330    -0.6509560
  H        0.2030610    -0.4353830    -1.6357720
  H        0.0474490    -1.3311670    -0.1253770
  H       -2.7951440    -1.4155820     1.9226690
  H       -3.3106690    -2.0257820     0.3507100
  H       -1.6004590    -2.0681310     0.7873000
  H       -5.0436390    -0.6667330    -0.3605950
  H       -4.3535760     0.4008270    -1.5926810
  H       -5.5777020     1.0147490    -0.4669260
  H        3.2685340     1.8407540    -0.0713220
  H        3.0797883     1.0572098     1.4816490
  H        4.8339620    -0.6514900     0.8358700
  H        5.0104170     0.1293290    -0.7342450
  H        5.4905370     0.9935700     0.7404870
units angstrom
no_reorient  #important for SAPT in psi4, default
symmetry c1  #important for SAPT in psi4, default
}

set PROPERTIES_ORIGIN ["COM"]
properties('MP2/aug-cc-pvtz', properties = ['dipole'])
--------------------------------------------------------------------------

    Molecular point group: c1
  Charge       = 0
  Multiplicity = 1
  Basis Set: AUG-CC-PVTZ
    Blend: AUG-CC-PVTZ
  Basis Set: (AUG-CC-PVTZ AUX)
    Blend: AUG-CC-PVTZ-JKFIT

    Orbital Energies [Eh]
    ---------------------

    Doubly Occupied:

       1A    -20.599028     2A    -20.538983     3A    -11.375557
       4A    -11.287324     5A    -11.244747     6A    -11.242099
       7A    -11.228732     8A    -11.226741     9A    -11.223713
      10A    -11.219459    11A    -11.217727    12A     -1.449454
      13A     -1.344669    14A     -1.113010    15A     -1.063867
      16A     -1.022385    17A     -0.978620    18A     -0.920308
      19A     -0.879425    20A     -0.834052    21A     -0.768542
      22A     -0.722752    23A     -0.687152    24A     -0.680867
      25A     -0.659811    26A     -0.638822    27A     -0.623763
      28A     -0.605591    29A     -0.587790    30A     -0.574707
      31A     -0.553081    32A     -0.544835    33A     -0.533495
      34A     -0.522582    35A     -0.516825    36A     -0.514634
      37A     -0.512212    38A     -0.491821    39A     -0.484191
      40A     -0.465925    41A     -0.456687    42A     -0.443487
      43A     -0.346599

  @DF-RHF Final Energy:  -500.03791716232291

   => Energetics <=

    Nuclear Repulsion Energy =            603.1183171441757622
    One-Electron Energy =               -1876.4203258996467412
    Two-Electron Energy =                 773.2640915931481231
    Total Energy =                       -500.0379171623228558
  Basis Set: (AUG-CC-PVTZ AUX)
    Blend: AUG-CC-PVTZ-RI
    Molecular point group: c1

    Geometry (in Angstrom), charge = 0, multiplicity = 1:

       Center              X                  Y                   Z               Mass
    ------------   -----------------  -----------------  -----------------  -----------------
         O            1.072177728948     0.475432348006     0.012898842411    15.994914619570
         O            2.531663728948    -1.105743651994    -0.713194157589    15.994914619570
         C           -2.368823271052    -0.088251651994     0.297402842411    12.000000000000
         C           -3.597534271052     0.781070348006     0.405795842411    12.000000000000
         C           -1.262102271052     0.394345348006    -0.297415157589    12.000000000000
         C            0.008823728948    -0.331296651994    -0.563311157589    12.000000000000
         C           -2.512677271052    -1.474465651994     0.862106842411    12.000000000000
         C           -4.708543271052     0.355472348006    -0.560470157589    12.000000000000
         C            3.355118728948     0.874320348006     0.437210842411    12.000000000000
         C            2.306300128948    -0.045130751994    -0.137560757589    12.000000000000
         C            4.758593728948     0.303711348006     0.312679842411    12.000000000000
         H           -3.328567271052     1.824058348006     0.203802842411     1.007825032230
         H           -3.978446271052     0.746165348006     1.435155842411     1.007825032230
         H           -1.272536271052     1.424882348006    -0.651839157589     1.007825032230
         H            0.203592728948    -0.435333651994    -1.636655157589     1.007825032230
         H            0.047980728948    -1.331117651994    -0.126260157589     1.007825032230
         H           -2.794612271052    -1.415532651994     1.921785842411     1.007825032230
         H           -3.310137271052    -2.025732651994     0.349826842411     1.007825032230
         H           -1.599927271052    -2.068081651994     0.786416842411     1.007825032230
         H           -5.043107271052    -0.666683651994    -0.361478157589     1.007825032230
         H           -4.353044271052     0.400876348006    -1.593564157589     1.007825032230
         H           -5.577170271052     1.014798348006    -0.467809157589     1.007825032230
         H            3.269065728948     1.840803348006    -0.072205157589     1.007825032230
         H            3.080320028948     1.057259148006     1.480765842411     1.007825032230
         H            4.834493728948    -0.651440651994     0.834986842411     1.007825032230
         H            5.010948728948     0.129378348006    -0.735128157589     1.007825032230
         H            5.491068728948     0.993619348006     0.739603842411     1.007825032230

  Basis Set: AUG-CC-PVTZ
    Blend: AUG-CC-PVTZ
  Basis Set: (AUG-CC-PVTZ AUX)
    Blend: AUG-CC-PVTZ-JKFIT
	 Reference Energy          =    -500.0379171623229126 [Eh]
	 Singles Energy            =      -0.0000000000000000 [Eh]
	 Same-Spin Energy          =      -0.5098240308039632 [Eh]
	 Opposite-Spin Energy      =      -1.7169322344611984 [Eh]
	 Correlation Energy        =      -2.2267562652651618 [Eh]
	 Total Energy              =    -502.2646734275880931 [Eh]

	 ================> DF-SCS-MP2 Energies <==================
	-----------------------------------------------------------
	 SCS Same-Spin Scale       =       0.3333333333333333 [-]
	 SCS Opposite-Spin Scale   =       1.2000000000000000 [-]
	 SCS Same-Spin Energy      =      -0.1699413436013211 [Eh]
	 SCS Opposite-Spin Energy  =      -2.0603186813534378 [Eh]
	 SCS Correlation Energy    =      -2.2302600249547586 [Eh]
	 SCS Total Energy          =    -502.2681771872776721 [Eh]
	-----------------------------------------------------------

  Dipole Moment: [D]
     X:    -1.5173      Y:     1.2044      Z:     0.8516     Total:     2.1161

*** Psi4 exiting successfully. Buy a developer a beer!
