                               Psi4 1.3.2 release

  ==> Input File <==

--------------------------------------------------------------------------
#psi4
#
memory 32 gb

molecule  {
0 1
  O        1.0716460     0.4753830     0.0137820
  O        2.5311320    -1.1057930    -0.7123110
  C       -2.3693550    -0.0883010     0.2982860
  C       -3.6230891     0.7411173     0.4302577
  C       -1.2626340     0.3942960    -0.2965320
  C        0.0082920    -0.3313460    -0.5624280
  C       -2.5627215    -1.4630435     0.8760977
  C       -4.7090750     0.3554230    -0.5595870
  C        3.3545870     0.8742710     0.4380940
  C        2.3120420    -0.0450080    -0.1482500
  C        4.7580620     0.3036620     0.3135630
  H       -3.3290990     1.8240090     0.2046860
  H       -3.9789780     0.7461160     1.4360390
  H       -1.2730680     1.4248330    -0.6509560
  H        0.2030610    -0.4353830    -1.6357720
  H        0.0474490    -1.3311670    -0.1253770
  H       -2.7951440    -1.4155820     1.9226690
  H       -3.3106690    -2.0257820     0.3507100
  H       -1.6004590    -2.0681310     0.7873000
  H       -5.0436390    -0.6667330    -0.3605950
  H       -4.3535760     0.4008270    -1.5926810
  H       -5.5777020     1.0147490    -0.4669260
  H        3.2685340     1.8407540    -0.0713220
  H        3.0874670     1.0628020     1.4826470
  H        4.8339620    -0.6514900     0.8358700
  H        5.0104170     0.1293290    -0.7342450
  H        5.4905370     0.9935700     0.7404870
units angstrom
no_reorient  #important for SAPT in psi4, default
symmetry c1  #important for SAPT in psi4, default
}

set PROPERTIES_ORIGIN ["COM"]
properties('MP2/aug-cc-pvtz', properties = ['dipole'])
--------------------------------------------------------------------------

    Molecular point group: c1
  Charge       = 0
  Multiplicity = 1
  Basis Set: AUG-CC-PVTZ
    Blend: AUG-CC-PVTZ
  Basis Set: (AUG-CC-PVTZ AUX)
    Blend: AUG-CC-PVTZ-JKFIT

    Orbital Energies [Eh]
    ---------------------

    Doubly Occupied:

       1A    -20.597625     2A    -20.540909     3A    -11.375706
       4A    -11.287102     5A    -11.244689     6A    -11.242300
       7A    -11.228225     8A    -11.225649     9A    -11.225604
      10A    -11.218912    11A    -11.217930    12A     -1.448371
      13A     -1.347800    14A     -1.113080    15A     -1.064306
      16A     -1.023542    17A     -0.978576    18A     -0.919736
      19A     -0.878590    20A     -0.834620    21A     -0.767737
      22A     -0.723038    23A     -0.687787    24A     -0.679078
      25A     -0.660280    26A     -0.636384    27A     -0.624781
      28A     -0.605799    29A     -0.593382    30A     -0.580202
      31A     -0.551050    32A     -0.544864    33A     -0.530530
      34A     -0.522492    35A     -0.520351    36A     -0.517755
      37A     -0.513312    38A     -0.492379    39A     -0.479462
      40A     -0.458614    41A     -0.453078    42A     -0.444645
      43A     -0.348690

  @DF-RHF Final Energy:  -500.03158014741030

   => Energetics <=

    Nuclear Repulsion Energy =            602.9467979365186920
    One-Electron Energy =               -1876.0588325583216829
    Two-Electron Energy =                 773.0804544743928091
    Total Energy =                       -500.0315801474102955
  Basis Set: (AUG-CC-PVTZ AUX)
    Blend: AUG-CC-PVTZ-RI
    Molecular point group: c1

    Geometry (in Angstrom), charge = 0, multiplicity = 1:

       Center              X                  Y                   Z               Mass
    ------------   -----------------  -----------------  -----------------  -----------------
         O            1.077375211952     0.477568498775     0.010961976948    15.994914619570
         O            2.536861211952    -1.103607501225    -0.715131023052    15.994914619570
         C           -2.363625788048    -0.086115501225     0.295465976948    12.000000000000
         C           -3.617359888048     0.743302798775     0.427437676948    12.000000000000
         C           -1.256904788048     0.396481498775    -0.299352023052    12.000000000000
         C            0.014021211952    -0.329160501225    -0.565248023052    12.000000000000
         C           -2.556992288048    -1.460858001225     0.873277676948    12.000000000000
         C           -4.703345788048     0.357608498775    -0.562407023052    12.000000000000
         C            3.360316211952     0.876456498775     0.435273976948    12.000000000000
         C            2.317771211952    -0.042822501225    -0.151070023052    12.000000000000
         C            4.763791211952     0.305847498775     0.310742976948    12.000000000000
         H           -3.323369788048     1.826194498775     0.201865976948     1.007825032230
         H           -3.973248788048     0.748301498775     1.433218976948     1.007825032230
         H           -1.267338788048     1.427018498775    -0.653776023052     1.007825032230
         H            0.208790211952    -0.433197501225    -1.638592023052     1.007825032230
         H            0.053178211952    -1.328981501225    -0.128197023052     1.007825032230
         H           -2.789414788048    -1.413396501225     1.919848976948     1.007825032230
         H           -3.304939788048    -2.023596501225     0.347889976948     1.007825032230
         H           -1.594729788048    -2.065945501225     0.784479976948     1.007825032230
         H           -5.037909788048    -0.664547501225    -0.363415023052     1.007825032230
         H           -4.347846788048     0.403012498775    -1.595501023052     1.007825032230
         H           -5.571972788048     1.016934498775    -0.469746023052     1.007825032230
         H            3.274263211952     1.842939498775    -0.074142023052     1.007825032230
         H            3.093196211952     1.064987498775     1.479826976948     1.007825032230
         H            4.839691211952    -0.649304501225     0.833049976948     1.007825032230
         H            5.016146211952     0.131514498775    -0.737065023052     1.007825032230
         H            5.496266211952     0.995755498775     0.737666976948     1.007825032230

  Basis Set: AUG-CC-PVTZ
    Blend: AUG-CC-PVTZ
  Basis Set: (AUG-CC-PVTZ AUX)
    Blend: AUG-CC-PVTZ-JKFIT
	 Reference Energy          =    -500.0315801474102955 [Eh]
	 Singles Energy            =      -0.0000000000000000 [Eh]
	 Same-Spin Energy          =      -0.5100069698937253 [Eh]
	 Opposite-Spin Energy      =      -1.7174637030757478 [Eh]
	 Correlation Energy        =      -2.2274706729694733 [Eh]
	 Total Energy              =    -502.2590508203797413 [Eh]

	 ================> DF-SCS-MP2 Energies <==================
	-----------------------------------------------------------
	 SCS Same-Spin Scale       =       0.3333333333333333 [-]
	 SCS Opposite-Spin Scale   =       1.2000000000000000 [-]
	 SCS Same-Spin Energy      =      -0.1700023232979084 [Eh]
	 SCS Opposite-Spin Energy  =      -2.0609564436908974 [Eh]
	 SCS Correlation Energy    =      -2.2309587669888060 [Eh]
	 SCS Total Energy          =    -502.2625389143991015 [Eh]
	-----------------------------------------------------------

  Dipole Moment: [D]
     X:    -1.4389      Y:     1.1701      Z:     0.8361     Total:     2.0344

*** Psi4 exiting successfully. Buy a developer a beer!
