                               Psi4 1.3.2 release

  ==> Input File <==

--------------------------------------------------------------------------
#psi4
#
memory 32 gb

molecule  {
0 1
  O        1.0811491     0.4941162     0.0246408
  O        2.5311320    -1.1057930    -0.7123110
  C       -2.3693550    -0.0883010     0.2982860
  C       -3.5980660     0.7810210     0.4066790
  C       -1.2626340     0.3942960    -0.2965320
  C        0.0082920    -0.3313460    -0.5624280
  C       -2.5132090    -1.4745150     0.8629900
  C       -4.7090750     0.3554230    -0.5595870
  C        3.3355207     0.8909722     0.4452192
  C        2.3120420    -0.0450080    -0.1482500
  C        4.7580620     0.3036620     0.3135630
  H       -3.3290990     1.8240090     0.2046860
  H       -3.9789780     0.7461160     1.4360390
  H       -1.2730680     1.4248330    -0.6509560
  H        0.2030610    -0.4353830    -1.6357720
  H        0.0474490    -1.3311670    -0.1253770
  H       -2.7951440    -1.4155820     1.9226690
  H       -3.3106690    -2.0257820     0.3507100
  H       -1.6004590    -2.0681310     0.7873000
  H       -5.0436390    -0.6667330    -0.3605950
  H       -4.3535760     0.4008270    -1.5926810
  H       -5.5777020     1.0147490    -0.4669260
  H        3.2685340     1.8407540    -0.0713220
  H        3.0874670     1.0628020     1.4826470
  H        4.8339620    -0.6514900     0.8358700
  H        5.0104170     0.1293290    -0.7342450
  H        5.4905370     0.9935700     0.7404870
units angstrom
no_reorient  #important for SAPT in psi4, default
symmetry c1  #important for SAPT in psi4, default
}

set PROPERTIES_ORIGIN ["COM"]
properties('MP2/aug-cc-pvtz', properties = ['dipole'])
--------------------------------------------------------------------------

    Molecular point group: c1
  Charge       = 0
  Multiplicity = 1
  Basis Set: AUG-CC-PVTZ
    Blend: AUG-CC-PVTZ
  Basis Set: (AUG-CC-PVTZ AUX)
    Blend: AUG-CC-PVTZ-JKFIT

    Orbital Energies [Eh]
    ---------------------

    Doubly Occupied:

       1A    -20.597789     2A    -20.541844     3A    -11.375065
       4A    -11.288558     5A    -11.244849     6A    -11.239314
       7A    -11.228796     8A    -11.226934     9A    -11.223914
      10A    -11.219539    11A    -11.217630    12A     -1.444941
      13A     -1.346638    14A     -1.113033    15A     -1.060506
      16A     -1.021060    17A     -0.977540    18A     -0.918446
      19A     -0.879069    20A     -0.833547    21A     -0.766903
      22A     -0.722540    23A     -0.685870    24A     -0.678733
      25A     -0.659856    26A     -0.639576    27A     -0.623608
      28A     -0.604446    29A     -0.587308    30A     -0.573879
      31A     -0.553224    32A     -0.545227    33A     -0.534185
      34A     -0.518407    35A     -0.518010    36A     -0.513330
      37A     -0.508640    38A     -0.496475    39A     -0.484261
      40A     -0.466352    41A     -0.459032    42A     -0.444729
      43A     -0.346462

  @DF-RHF Final Energy:  -500.03608024211064

   => Energetics <=

    Nuclear Repulsion Energy =            602.6088494340336865
    One-Electron Energy =               -1875.4297250140989490
    Two-Electron Energy =                 772.7847953379545061
    Total Energy =                       -500.0360802421106428
  Basis Set: (AUG-CC-PVTZ AUX)
    Blend: AUG-CC-PVTZ-RI
    Molecular point group: c1

    Geometry (in Angstrom), charge = 0, multiplicity = 1:

       Center              X                  Y                   Z               Mass
    ------------   -----------------  -----------------  -----------------  -----------------
         O            1.081640937470     0.490913128976     0.022980491176    15.994914619570
         O            2.531623837470    -1.108996071024    -0.713971308824    15.994914619570
         C           -2.368863162530    -0.091504071024     0.296625691176    12.000000000000
         C           -3.597574162530     0.777817928976     0.405018691176    12.000000000000
         C           -1.262142162530     0.391092928976    -0.298192308824    12.000000000000
         C            0.008783837470    -0.334549071024    -0.564088308824    12.000000000000
         C           -2.512717162530    -1.477718071024     0.861329691176    12.000000000000
         C           -4.708583162530     0.352219928976    -0.561247308824    12.000000000000
         C            3.336012537470     0.887769128976     0.443558891176    12.000000000000
         C            2.312533837470    -0.048211071024    -0.149910308824    12.000000000000
         C            4.758553837470     0.300458928976     0.311902691176    12.000000000000
         H           -3.328607162530     1.820805928976     0.203025691176     1.007825032230
         H           -3.978486162530     0.742912928976     1.434378691176     1.007825032230
         H           -1.272576162530     1.421629928976    -0.652616308824     1.007825032230
         H            0.203552837470    -0.438586071024    -1.637432308824     1.007825032230
         H            0.047940837470    -1.334370071024    -0.127037308824     1.007825032230
         H           -2.794652162530    -1.418785071024     1.921008691176     1.007825032230
         H           -3.310177162530    -2.028985071024     0.349049691176     1.007825032230
         H           -1.599967162530    -2.071334071024     0.785639691176     1.007825032230
         H           -5.043147162530    -0.669936071024    -0.362255308824     1.007825032230
         H           -4.353084162530     0.397623928976    -1.594341308824     1.007825032230
         H           -5.577210162530     1.011545928976    -0.468586308824     1.007825032230
         H            3.269025837470     1.837550928976    -0.072982308824     1.007825032230
         H            3.087958837470     1.059598928976     1.480986691176     1.007825032230
         H            4.834453837470    -0.654693071024     0.834209691176     1.007825032230
         H            5.010908837470     0.126125928976    -0.735905308824     1.007825032230
         H            5.491028837470     0.990366928976     0.738826691176     1.007825032230

  Basis Set: AUG-CC-PVTZ
    Blend: AUG-CC-PVTZ
  Basis Set: (AUG-CC-PVTZ AUX)
    Blend: AUG-CC-PVTZ-JKFIT
	 Reference Energy          =    -500.0360802421106428 [Eh]
	 Singles Energy            =      -0.0000000000000000 [Eh]
	 Same-Spin Energy          =      -0.5099035410930309 [Eh]
	 Opposite-Spin Energy      =      -1.7175972389947278 [Eh]
	 Correlation Energy        =      -2.2275007800877589 [Eh]
	 Total Energy              =    -502.2635810221984229 [Eh]

	 ================> DF-SCS-MP2 Energies <==================
	-----------------------------------------------------------
	 SCS Same-Spin Scale       =       0.3333333333333333 [-]
	 SCS Opposite-Spin Scale   =       1.2000000000000000 [-]
	 SCS Same-Spin Energy      =      -0.1699678470310103 [Eh]
	 SCS Opposite-Spin Energy  =      -2.0611166867936732 [Eh]
	 SCS Correlation Energy    =      -2.2310845338246836 [Eh]
	 SCS Total Energy          =    -502.2671647759353277 [Eh]
	-----------------------------------------------------------

  Dipole Moment: [D]
     X:    -1.5482      Y:     1.1344      Z:     0.7990     Total:     2.0789

*** Psi4 exiting successfully. Buy a developer a beer!
