                               Psi4 1.4a3.dev225

  ==> Input File <==

--------------------------------------------------------------------------
#psi4
#
memory 32 gb

molecule  {
0 1
  O       -1.1411000    -0.4541930    -0.0251880
  O       -2.5814580     1.1752260    -0.6867450
  C        2.3134570     0.0186930     0.2462000
  C        3.5222300    -0.8802230     0.3222130
  C        1.1937340    -0.4134970    -0.3651820
  C       -0.0647290     0.3542590    -0.5783780
  C        2.4850690     1.3863280     0.8546590
  C        4.7190700    -0.3405130    -0.4677320
  C       -3.4286640    -0.8122060     0.4327630
  C       -2.3749380     0.0938890    -0.1583950
  C       -4.8282690    -0.2261570     0.3119590
  H        3.2581340    -1.8761120    -0.0507320
  H        3.8122360    -1.0018650     1.3748590
  H        1.1815530    -1.4238220    -0.7735790
  H       -0.2705280     0.5138520    -1.6430550
  H       -0.0714200     1.3330110    -0.0949940
  H        3.0182560     1.3061200     1.8081990
  H        3.0814560     2.0379150     0.2067330
  H        1.5342700     1.8877430     1.0433380
  H        5.0646870     0.6170420    -0.0694620
  H        4.4484560    -0.1949880    -1.5176090
  H        5.5583810    -1.0408350    -0.4253590
  H       -3.3536290    -1.7820470    -0.0715700
  H       -3.1462649    -1.0068250     1.5258428
  H       -4.8922970     0.7333770     0.8287030
  H       -5.0879650    -0.0561110    -0.7346540
  H       -5.5642940    -0.9066400     0.7478690
units angstrom
no_reorient  #important for SAPT in psi4, default
symmetry c1  #important for SAPT in psi4, default
}

set PROPERTIES_ORIGIN ["COM"]
properties('MP2/aug-cc-pvtz', properties = ['dipole'])
--------------------------------------------------------------------------

    Molecular point group: c1
  Charge       = 0
  Multiplicity = 1
  Basis Set: AUG-CC-PVTZ
    Blend: AUG-CC-PVTZ
  Basis Set: (AUG-CC-PVTZ AUX)
    Blend: AUG-CC-PVTZ-JKFIT

    Orbital Energies [Eh]
    ---------------------

    Doubly Occupied:

       1A    -20.597125     2A    -20.541159     3A    -11.376153
       4A    -11.286838     5A    -11.248398     6A    -11.244525
       7A    -11.228604     8A    -11.226154     9A    -11.223481
      10A    -11.219291    11A    -11.218669    12A     -1.447048
      13A     -1.347577    14A     -1.112104    15A     -1.061080
      16A     -1.021685    17A     -0.977001    18A     -0.920320
      19A     -0.878727    20A     -0.832265    21A     -0.765972
      22A     -0.721594    23A     -0.687381    24A     -0.678846
      25A     -0.658921    26A     -0.636369    27A     -0.624107
      28A     -0.602949    29A     -0.589327    30A     -0.571839
      31A     -0.553800    32A     -0.545738    33A     -0.533481
      34A     -0.521846    35A     -0.516930    36A     -0.513312
      37A     -0.512623    38A     -0.489149    39A     -0.484612
      40A     -0.465851    41A     -0.457203    42A     -0.444251
      43A     -0.346039

  @DF-RHF Final Energy:  -500.03635012760901

   => Energetics <=

    Nuclear Repulsion Energy =            602.2811374204773074
    One-Electron Energy =               -1874.7742851564880766
    Two-Electron Energy =                 772.4567976084017573
    Total Energy =                       -500.0363501276090119
  Basis Set: (AUG-CC-PVTZ AUX)
    Blend: AUG-CC-PVTZ-RI
    Molecular point group: c1

    Geometry (in Angstrom), charge = 0, multiplicity = 1:

       Center              X                  Y                   Z               Mass
    ------------   -----------------  -----------------  -----------------  -----------------
         O           -1.086906770206    -0.459527664438    -0.012129459205    15.994914619570
         O           -2.527264770206     1.169891335562    -0.673686459205    15.994914619570
         C            2.367650229794     0.013358335562     0.259258540795    12.000000000000
         C            3.576423229794    -0.885557664438     0.335271540795    12.000000000000
         C            1.247927229794    -0.418831664438    -0.352123459205    12.000000000000
         C           -0.010535770206     0.348924335562    -0.565319459205    12.000000000000
         C            2.539262229794     1.380993335562     0.867717540795    12.000000000000
         C            4.773263229794    -0.345847664438    -0.454673459205    12.000000000000
         C           -3.374470770206    -0.817540664438     0.445821540795    12.000000000000
         C           -2.320744770206     0.088554335562    -0.145336459205    12.000000000000
         C           -4.774075770206    -0.231491664438     0.325017540795    12.000000000000
         H            3.312327229794    -1.881446664438    -0.037673459205     1.007825032230
         H            3.866429229794    -1.007199664438     1.387917540795     1.007825032230
         H            1.235746229794    -1.429156664438    -0.760520459205     1.007825032230
         H           -0.216334770206     0.508517335562    -1.629996459205     1.007825032230
         H           -0.017226770206     1.327676335562    -0.081935459205     1.007825032230
         H            3.072449229794     1.300785335562     1.821257540795     1.007825032230
         H            3.135649229794     2.032580335562     0.219791540795     1.007825032230
         H            1.588463229794     1.882408335562     1.056396540795     1.007825032230
         H            5.118880229794     0.611707335562    -0.056403459205     1.007825032230
         H            4.502649229794    -0.200322664438    -1.504550459205     1.007825032230
         H            5.612574229794    -1.046169664438    -0.412300459205     1.007825032230
         H           -3.299435770206    -1.787381664438    -0.058511459205     1.007825032230
         H           -3.092071670206    -1.012159664438     1.538901340795     1.007825032230
         H           -4.838103770206     0.728042335562     0.841761540795     1.007825032230
         H           -5.033771770206    -0.061445664438    -0.721595459205     1.007825032230
         H           -5.510100770206    -0.911974664438     0.760927540795     1.007825032230

  Basis Set: AUG-CC-PVTZ
    Blend: AUG-CC-PVTZ
  Basis Set: (AUG-CC-PVTZ AUX)
    Blend: AUG-CC-PVTZ-JKFIT
	 Reference Energy          =    -500.0363501276090119 [Eh]
	 Singles Energy            =      -0.0000000000000000 [Eh]
	 Same-Spin Energy          =      -0.5097154481162713 [Eh]
	 Opposite-Spin Energy      =      -1.7172826034309137 [Eh]
	 Correlation Energy        =      -2.2269980515471852 [Eh]
	 Total Energy              =    -502.2633481791561962 [Eh]

	 ================> DF-SCS-MP2 Energies <==================
	-----------------------------------------------------------
	 SCS Same-Spin Scale       =       0.3333333333333333 [-]
	 SCS Opposite-Spin Scale   =       1.2000000000000000 [-]
	 SCS Same-Spin Energy      =      -0.1699051493720904 [Eh]
	 SCS Opposite-Spin Energy  =      -2.0607391241170965 [Eh]
	 SCS Correlation Energy    =      -2.2306442734891867 [Eh]
	 SCS Total Energy          =    -502.2669944010982022 [Eh]
	-----------------------------------------------------------

  Dipole Moment: [D]
     X:     1.4326      Y:    -1.1919      Z:     0.7833     Total:     2.0215

*** Psi4 exiting successfully. Buy a developer a beer!
