                               Psi4 1.3.2 release

  ==> Input File <==

--------------------------------------------------------------------------
#psi4
#
memory 32 gb

molecule  {
0 1
  O        1.0716460     0.4753830     0.0137820
  O        2.5311320    -1.1057930    -0.7123110
  C       -2.3693550    -0.0883010     0.2982860
  C       -3.5980660     0.7810210     0.4066790
  C       -1.2626340     0.3942960    -0.2965320
  C        0.1791785    -0.4289145    -0.5981799
  C       -2.5132090    -1.4745150     0.8629900
  C       -4.7090750     0.3554230    -0.5595870
  C        3.3545870     0.8742710     0.4380940
  C        2.3120420    -0.0450080    -0.1482500
  C        4.7580620     0.3036620     0.3135630
  H       -3.3290990     1.8240090     0.2046860
  H       -3.9789780     0.7461160     1.4360390
  H       -1.2730680     1.4248330    -0.6509560
  H        0.2030610    -0.4353830    -1.6357720
  H        0.0474490    -1.3311670    -0.1253770
  H       -2.7951440    -1.4155820     1.9226690
  H       -3.3106690    -2.0257820     0.3507100
  H       -1.6004590    -2.0681310     0.7873000
  H       -5.0436390    -0.6667330    -0.3605950
  H       -4.3535760     0.4008270    -1.5926810
  H       -5.5777020     1.0147490    -0.4669260
  H        3.2685340     1.8407540    -0.0713220
  H        3.0874670     1.0628020     1.4826470
  H        4.8339620    -0.6514900     0.8358700
  H        5.0104170     0.1293290    -0.7342450
  H        5.4905370     0.9935700     0.7404870
units angstrom
no_reorient  #important for SAPT in psi4, default
symmetry c1  #important for SAPT in psi4, default
}

set PROPERTIES_ORIGIN ["COM"]
properties('MP2/aug-cc-pvtz', properties = ['dipole'])
--------------------------------------------------------------------------

    Molecular point group: c1
  Charge       = 0
  Multiplicity = 1
  Basis Set: AUG-CC-PVTZ
    Blend: AUG-CC-PVTZ
  Basis Set: (AUG-CC-PVTZ AUX)
    Blend: AUG-CC-PVTZ-JKFIT

    Orbital Energies [Eh]
    ---------------------

    Doubly Occupied:

       1A    -20.611422     2A    -20.548340     3A    -11.380795
       4A    -11.286456     5A    -11.245562     6A    -11.234353
       7A    -11.224730     8A    -11.223470     9A    -11.222466
      10A    -11.220684    11A    -11.215142    12A     -1.469646
      13A     -1.359419    14A     -1.100000    15A     -1.067730
      16A     -1.006204    17A     -0.971802    18A     -0.919476
      19A     -0.879100    20A     -0.834112    21A     -0.779586
      22A     -0.715664    23A     -0.699868    24A     -0.689754
      25A     -0.672487    26A     -0.637553    27A     -0.614089
      28A     -0.610998    29A     -0.588013    30A     -0.573411
      31A     -0.553608    32A     -0.538296    33A     -0.535783
      34A     -0.527463    35A     -0.522810    36A     -0.512457
      37A     -0.503319    38A     -0.497619    39A     -0.476715
      40A     -0.472243    41A     -0.451529    42A     -0.431049
      43A     -0.339978

  @DF-RHF Final Energy:  -500.00503837152115

   => Energetics <=

    Nuclear Repulsion Energy =            602.6651221810603829
    One-Electron Energy =               -1875.4099183402031485
    Two-Electron Energy =                 772.7397577876217838
    Total Energy =                       -500.0050383715210955
  Basis Set: (AUG-CC-PVTZ AUX)
    Blend: AUG-CC-PVTZ-RI
    Molecular point group: c1

    Geometry (in Angstrom), charge = 0, multiplicity = 1:

       Center              X                  Y                   Z               Mass
    ------------   -----------------  -----------------  -----------------  -----------------
         O            1.058510499153     0.482882757123     0.016530048141    15.994914619570
         O            2.517996499153    -1.098293242877    -0.709562951859    15.994914619570
         C           -2.382490500847    -0.080801242877     0.301034048141    12.000000000000
         C           -3.611201500847     0.788520757123     0.409427048141    12.000000000000
         C           -1.275769500847     0.401795757123    -0.293783951859    12.000000000000
         C            0.166042999153    -0.421414742877    -0.595431851859    12.000000000000
         C           -2.526344500847    -1.467015242877     0.865738048141    12.000000000000
         C           -4.722210500847     0.362922757123    -0.556838951859    12.000000000000
         C            3.341451499153     0.881770757123     0.440842048141    12.000000000000
         C            2.298906499153    -0.037508242877    -0.145501951859    12.000000000000
         C            4.744926499153     0.311161757123     0.316311048141    12.000000000000
         H           -3.342234500847     1.831508757123     0.207434048141     1.007825032230
         H           -3.992113500847     0.753615757123     1.438787048141     1.007825032230
         H           -1.286203500847     1.432332757123    -0.648207951859     1.007825032230
         H            0.189925499153    -0.427883242877    -1.633023951859     1.007825032230
         H            0.034313499153    -1.323667242877    -0.122628951859     1.007825032230
         H           -2.808279500847    -1.408082242877     1.925417048141     1.007825032230
         H           -3.323804500847    -2.018282242877     0.353458048141     1.007825032230
         H           -1.613594500847    -2.060631242877     0.790048048141     1.007825032230
         H           -5.056774500847    -0.659233242877    -0.357846951859     1.007825032230
         H           -4.366711500847     0.408326757123    -1.589932951859     1.007825032230
         H           -5.590837500847     1.022248757123    -0.464177951859     1.007825032230
         H            3.255398499153     1.848253757123    -0.068573951859     1.007825032230
         H            3.074331499153     1.070301757123     1.485395048141     1.007825032230
         H            4.820826499153    -0.643990242877     0.838618048141     1.007825032230
         H            4.997281499153     0.136828757123    -0.731496951859     1.007825032230
         H            5.477401499153     1.001069757123     0.743235048141     1.007825032230

  Basis Set: AUG-CC-PVTZ
    Blend: AUG-CC-PVTZ
  Basis Set: (AUG-CC-PVTZ AUX)
    Blend: AUG-CC-PVTZ-JKFIT
	 Reference Energy          =    -500.0050383715211524 [Eh]
	 Singles Energy            =      -0.0000000000000000 [Eh]
	 Same-Spin Energy          =      -0.5100579953909666 [Eh]
	 Opposite-Spin Energy      =      -1.7188475744406477 [Eh]
	 Correlation Energy        =      -2.2289055698316145 [Eh]
	 Total Energy              =    -502.2339439413527771 [Eh]

	 ================> DF-SCS-MP2 Energies <==================
	-----------------------------------------------------------
	 SCS Same-Spin Scale       =       0.3333333333333333 [-]
	 SCS Opposite-Spin Scale   =       1.2000000000000000 [-]
	 SCS Same-Spin Energy      =      -0.1700193317969889 [Eh]
	 SCS Opposite-Spin Energy  =      -2.0626170893287772 [Eh]
	 SCS Correlation Energy    =      -2.2326364211257661 [Eh]
	 SCS Total Energy          =    -502.2376747926469420 [Eh]
	-----------------------------------------------------------

  Dipole Moment: [D]
     X:    -0.7989      Y:     1.1403      Z:     0.7789     Total:     1.5954

*** Psi4 exiting successfully. Buy a developer a beer!
