                               Psi4 1.4a3.dev225

  ==> Input File <==

--------------------------------------------------------------------------
#psi4
#
memory 32 gb

molecule  {
0 1
  O       -1.1411000    -0.4541930    -0.0251880
  O       -2.5814580     1.1752260    -0.6867450
  C        2.3134570     0.0186930     0.2462000
  C        3.5222300    -0.8802230     0.3222130
  C        1.1937340    -0.4134970    -0.3651820
  C       -0.0647290     0.3542590    -0.5783780
  C        2.4850690     1.3863280     0.8546590
  C        4.7190700    -0.3405130    -0.4677320
  C       -3.4286640    -0.8122060     0.4327630
  C       -2.3749380     0.0938890    -0.1583950
  C       -4.8098792    -0.2338573     0.3135463
  H        3.2581340    -1.8761120    -0.0507320
  H        3.8122360    -1.0018650     1.3748590
  H        1.1815530    -1.4238220    -0.7735790
  H       -0.2705280     0.5138520    -1.6430550
  H       -0.0714200     1.3330110    -0.0949940
  H        3.0182560     1.3061200     1.8081990
  H        3.0814560     2.0379150     0.2067330
  H        1.5342700     1.8877430     1.0433380
  H        5.0646870     0.6170420    -0.0694620
  H        4.4484560    -0.1949880    -1.5176090
  H        5.5583810    -1.0408350    -0.4253590
  H       -3.3536290    -1.7820470    -0.0715700
  H       -3.1585900    -0.9983310     1.4781360
  H       -4.8922970     0.7333770     0.8287030
  H       -5.0879650    -0.0561110    -0.7346540
  H       -5.5642940    -0.9066400     0.7478690
units angstrom
no_reorient  #important for SAPT in psi4, default
symmetry c1  #important for SAPT in psi4, default
}

set PROPERTIES_ORIGIN ["COM"]
properties('MP2/aug-cc-pvtz', properties = ['dipole'])
--------------------------------------------------------------------------

    Molecular point group: c1
  Charge       = 0
  Multiplicity = 1
  Basis Set: AUG-CC-PVTZ
    Blend: AUG-CC-PVTZ
  Basis Set: (AUG-CC-PVTZ AUX)
    Blend: AUG-CC-PVTZ-JKFIT

    Orbital Energies [Eh]
    ---------------------

    Doubly Occupied:

       1A    -20.597304     2A    -20.541049     3A    -11.375842
       4A    -11.286929     5A    -11.244599     6A    -11.242006
       7A    -11.228660     8A    -11.226215     9A    -11.223548
      10A    -11.219336    11A    -11.218842    12A     -1.447141
      13A     -1.347571    14A     -1.112231    15A     -1.065971
      16A     -1.022446    17A     -0.977168    18A     -0.920150
      19A     -0.878459    20A     -0.832568    21A     -0.766911
      22A     -0.722755    23A     -0.688326    24A     -0.679544
      25A     -0.660159    26A     -0.638634    27A     -0.624172
      28A     -0.604772    29A     -0.589427    30A     -0.571971
      31A     -0.553713    32A     -0.545706    33A     -0.532808
      34A     -0.527212    35A     -0.515244    36A     -0.513502
      37A     -0.511729    38A     -0.489771    39A     -0.484672
      40A     -0.465939    41A     -0.457165    42A     -0.444318
      43A     -0.346111

  @DF-RHF Final Energy:  -500.03788246214305

   => Energetics <=

    Nuclear Repulsion Energy =            602.8123787191901783
    One-Electron Energy =               -1875.8153350652303288
    Two-Electron Energy =                 772.9650738838972757
    Total Energy =                       -500.0378824621429885
  Basis Set: (AUG-CC-PVTZ AUX)
    Blend: AUG-CC-PVTZ-RI
    Molecular point group: c1

    Geometry (in Angstrom), charge = 0, multiplicity = 1:

       Center              X                  Y                   Z               Mass
    ------------   -----------------  -----------------  -----------------  -----------------
         O           -1.088240761277    -0.458990604462    -0.011943490517    15.994914619570
         O           -2.528598761277     1.170428395538    -0.673500490517    15.994914619570
         C            2.366316238723     0.013895395538     0.259444509483    12.000000000000
         C            3.575089238723    -0.885020604462     0.335457509483    12.000000000000
         C            1.246593238723    -0.418294604462    -0.351937490517    12.000000000000
         C           -0.011869761277     0.349461395538    -0.565133490517    12.000000000000
         C            2.537928238723     1.381530395538     0.867903509483    12.000000000000
         C            4.771929238723    -0.345310604462    -0.454487490517    12.000000000000
         C           -3.375804761277    -0.817003604462     0.446007509483    12.000000000000
         C           -2.322078761277     0.089091395538    -0.145150490517    12.000000000000
         C           -4.757019961277    -0.238654904462     0.326790809483    12.000000000000
         H            3.310993238723    -1.880909604462    -0.037487490517     1.007825032230
         H            3.865095238723    -1.006662604462     1.388103509483     1.007825032230
         H            1.234412238723    -1.428619604462    -0.760334490517     1.007825032230
         H           -0.217668761277     0.509054395538    -1.629810490517     1.007825032230
         H           -0.018560761277     1.328213395538    -0.081749490517     1.007825032230
         H            3.071115238723     1.301322395538     1.821443509483     1.007825032230
         H            3.134315238723     2.033117395538     0.219977509483     1.007825032230
         H            1.587129238723     1.882945395538     1.056582509483     1.007825032230
         H            5.117546238723     0.612244395538    -0.056217490517     1.007825032230
         H            4.501315238723    -0.199785604462    -1.504364490517     1.007825032230
         H            5.611240238723    -1.045632604462    -0.412114490517     1.007825032230
         H           -3.300769761277    -1.786844604462    -0.058325490517     1.007825032230
         H           -3.105730761277    -1.003128604462     1.491380509483     1.007825032230
         H           -4.839437761277     0.728579395538     0.841947509483     1.007825032230
         H           -5.035105761277    -0.060908604462    -0.721409490517     1.007825032230
         H           -5.511434761277    -0.911437604462     0.761113509483     1.007825032230

  Basis Set: AUG-CC-PVTZ
    Blend: AUG-CC-PVTZ
  Basis Set: (AUG-CC-PVTZ AUX)
    Blend: AUG-CC-PVTZ-JKFIT
	 Reference Energy          =    -500.0378824621430454 [Eh]
	 Singles Energy            =      -0.0000000000000000 [Eh]
	 Same-Spin Energy          =      -0.5098406303275057 [Eh]
	 Opposite-Spin Energy      =      -1.7170837246625317 [Eh]
	 Correlation Energy        =      -2.2269243549900373 [Eh]
	 Total Energy              =    -502.2648068171330920 [Eh]

	 ================> DF-SCS-MP2 Energies <==================
	-----------------------------------------------------------
	 SCS Same-Spin Scale       =       0.3333333333333333 [-]
	 SCS Opposite-Spin Scale   =       1.2000000000000000 [-]
	 SCS Same-Spin Energy      =      -0.1699468767758352 [Eh]
	 SCS Opposite-Spin Energy  =      -2.0605004695950377 [Eh]
	 SCS Correlation Energy    =      -2.2304473463708732 [Eh]
	 SCS Total Energy          =    -502.2683298085138972 [Eh]
	-----------------------------------------------------------

  Dipole Moment: [D]
     X:     1.4485      Y:    -1.1981      Z:     0.7972     Total:     2.0419

*** Psi4 exiting successfully. Buy a developer a beer!
