                               Psi4 1.3.2 release

  ==> Input File <==

--------------------------------------------------------------------------
#psi4
#
memory 32 gb

molecule  {
0 1
  O        1.0716460     0.4753830     0.0137820
  O        2.4891732    -1.1104730    -0.7181964
  C       -2.3693550    -0.0883010     0.2982860
  C       -3.5980660     0.7810210     0.4066790
  C       -1.2626340     0.3942960    -0.2965320
  C        0.0082920    -0.3313460    -0.5624280
  C       -2.5132090    -1.4745150     0.8629900
  C       -4.7090750     0.3554230    -0.5595870
  C        3.3160740     0.9069574     0.4529611
  C        2.3120420    -0.0450080    -0.1482500
  C        4.7580620     0.3036620     0.3135630
  H       -3.3290990     1.8240090     0.2046860
  H       -3.9789780     0.7461160     1.4360390
  H       -1.2730680     1.4248330    -0.6509560
  H        0.2030610    -0.4353830    -1.6357720
  H        0.0474490    -1.3311670    -0.1253770
  H       -2.7951440    -1.4155820     1.9226690
  H       -3.3106690    -2.0257820     0.3507100
  H       -1.6004590    -2.0681310     0.7873000
  H       -5.0436390    -0.6667330    -0.3605950
  H       -4.3535760     0.4008270    -1.5926810
  H       -5.5777020     1.0147490    -0.4669260
  H        3.2685340     1.8407540    -0.0713220
  H        3.0874670     1.0628020     1.4826470
  H        4.8339620    -0.6514900     0.8358700
  H        5.0104170     0.1293290    -0.7342450
  H        5.4905370     0.9935700     0.7404870
units angstrom
no_reorient  #important for SAPT in psi4, default
symmetry c1  #important for SAPT in psi4, default
}

set PROPERTIES_ORIGIN ["COM"]
properties('MP2/aug-cc-pvtz', properties = ['dipole'])
--------------------------------------------------------------------------

    Molecular point group: c1
  Charge       = 0
  Multiplicity = 1
  Basis Set: AUG-CC-PVTZ
    Blend: AUG-CC-PVTZ
  Basis Set: (AUG-CC-PVTZ AUX)
    Blend: AUG-CC-PVTZ-JKFIT

    Orbital Energies [Eh]
    ---------------------

    Doubly Occupied:

       1A    -20.593825     2A    -20.541898     3A    -11.376124
       4A    -11.284317     5A    -11.243069     6A    -11.242423
       7A    -11.227681     8A    -11.225584     9A    -11.222168
      10A    -11.221171    11A    -11.218599    12A     -1.448741
      13A     -1.345212    14A     -1.111568    15A     -1.061756
      16A     -1.019589    17A     -0.976466    18A     -0.918559
      19A     -0.879939    20A     -0.833352    21A     -0.767757
      22A     -0.723245    23A     -0.687064    24A     -0.679999
      25A     -0.660912    26A     -0.640871    27A     -0.623103
      28A     -0.606195    29A     -0.586969    30A     -0.573114
      31A     -0.551592    32A     -0.542867    33A     -0.532948
      34A     -0.520858    35A     -0.516810    36A     -0.512414
      37A     -0.505879    38A     -0.500717    39A     -0.483121
      40A     -0.464549    41A     -0.456167    42A     -0.446676
      43A     -0.344910

  @DF-RHF Final Energy:  -500.03509344199693

   => Energetics <=

    Nuclear Repulsion Energy =            603.1937041057086617
    One-Electron Energy =               -1876.6160457150192542
    Two-Electron Energy =                 773.3872481673136008
    Total Energy =                       -500.0350934419968780
  Basis Set: (AUG-CC-PVTZ AUX)
    Blend: AUG-CC-PVTZ-RI
    Molecular point group: c1

    Geometry (in Angstrom), charge = 0, multiplicity = 1:

       Center              X                  Y                   Z               Mass
    ------------   -----------------  -----------------  -----------------  -----------------
         O            1.078905213413     0.473350026021     0.013242142228    15.994914619570
         O            2.496432413413    -1.112505973979    -0.718736257772    15.994914619570
         C           -2.362095786587    -0.090333973979     0.297746142228    12.000000000000
         C           -3.590806786587     0.778988026021     0.406139142228    12.000000000000
         C           -1.255374786587     0.392263026021    -0.297071857772    12.000000000000
         C            0.015551213413    -0.333378973979    -0.562967857772    12.000000000000
         C           -2.505949786587    -1.476547973979     0.862450142228    12.000000000000
         C           -4.701815786587     0.353390026021    -0.560126857772    12.000000000000
         C            3.323333213413     0.904924426021     0.452421242228    12.000000000000
         C            2.319301213413    -0.047040973979    -0.148789857772    12.000000000000
         C            4.765321213413     0.301629026021     0.313023142228    12.000000000000
         H           -3.321839786587     1.821976026021     0.204146142228     1.007825032230
         H           -3.971718786587     0.744083026021     1.435499142228     1.007825032230
         H           -1.265808786587     1.422800026021    -0.651495857772     1.007825032230
         H            0.210320213413    -0.437415973979    -1.636311857772     1.007825032230
         H            0.054708213413    -1.333199973979    -0.125916857772     1.007825032230
         H           -2.787884786587    -1.417614973979     1.922129142228     1.007825032230
         H           -3.303409786587    -2.027814973979     0.350170142228     1.007825032230
         H           -1.593199786587    -2.070163973979     0.786760142228     1.007825032230
         H           -5.036379786587    -0.668765973979    -0.361134857772     1.007825032230
         H           -4.346316786587     0.398794026021    -1.593220857772     1.007825032230
         H           -5.570442786587     1.012716026021    -0.467465857772     1.007825032230
         H            3.275793213413     1.838721026021    -0.071861857772     1.007825032230
         H            3.094726213413     1.060769026021     1.482107142228     1.007825032230
         H            4.841221213413    -0.653522973979     0.835330142228     1.007825032230
         H            5.017676213413     0.127296026021    -0.734784857772     1.007825032230
         H            5.497796213413     0.991537026021     0.739947142228     1.007825032230

  Basis Set: AUG-CC-PVTZ
    Blend: AUG-CC-PVTZ
  Basis Set: (AUG-CC-PVTZ AUX)
    Blend: AUG-CC-PVTZ-JKFIT
	 Reference Energy          =    -500.0350934419969349 [Eh]
	 Singles Energy            =      -0.0000000000000000 [Eh]
	 Same-Spin Energy          =      -0.5096854916667988 [Eh]
	 Opposite-Spin Energy      =      -1.7170153523472109 [Eh]
	 Correlation Energy        =      -2.2267008440140099 [Eh]
	 Total Energy              =    -502.2617942860109679 [Eh]

	 ================> DF-SCS-MP2 Energies <==================
	-----------------------------------------------------------
	 SCS Same-Spin Scale       =       0.3333333333333333 [-]
	 SCS Opposite-Spin Scale   =       1.2000000000000000 [-]
	 SCS Same-Spin Energy      =      -0.1698951638889329 [Eh]
	 SCS Opposite-Spin Energy  =      -2.0604184228166531 [Eh]
	 SCS Correlation Energy    =      -2.2303135867055861 [Eh]
	 SCS Total Energy          =    -502.2654070287024979 [Eh]
	-----------------------------------------------------------

  Dipole Moment: [D]
     X:    -1.3083      Y:     1.2063      Z:     0.8491     Total:     1.9718

*** Psi4 exiting successfully. Buy a developer a beer!
