                               Psi4 1.3.2 release

  ==> Input File <==

--------------------------------------------------------------------------
#psi4
#
memory 32 gb

molecule  {
0 1
  O        1.0716460     0.4753830     0.0137820
  O        2.5311320    -1.1057930    -0.7123110
  C       -2.3693550    -0.0883010     0.2982860
  C       -3.5980660     0.7810210     0.4066790
  C       -1.0981801     0.4660078    -0.3849194
  C        0.0082920    -0.3313460    -0.5624280
  C       -2.5132090    -1.4745150     0.8629900
  C       -4.7090750     0.3554230    -0.5595870
  C        3.3545870     0.8742710     0.4380940
  C        2.3120420    -0.0450080    -0.1482500
  C        4.7580620     0.3036620     0.3135630
  H       -3.3290990     1.8240090     0.2046860
  H       -3.9789780     0.7461160     1.4360390
  H       -1.2730680     1.4248330    -0.6509560
  H        0.2030610    -0.4353830    -1.6357720
  H        0.0474490    -1.3311670    -0.1253770
  H       -2.7951440    -1.4155820     1.9226690
  H       -3.3106690    -2.0257820     0.3507100
  H       -1.6004590    -2.0681310     0.7873000
  H       -5.0436390    -0.6667330    -0.3605950
  H       -4.3535760     0.4008270    -1.5926810
  H       -5.5777020     1.0147490    -0.4669260
  H        3.2685340     1.8407540    -0.0713220
  H        3.0874670     1.0628020     1.4826470
  H        4.8339620    -0.6514900     0.8358700
  H        5.0104170     0.1293290    -0.7342450
  H        5.4905370     0.9935700     0.7404870
units angstrom
no_reorient  #important for SAPT in psi4, default
symmetry c1  #important for SAPT in psi4, default
}

set PROPERTIES_ORIGIN ["COM"]
properties('MP2/aug-cc-pvtz', properties = ['dipole'])
--------------------------------------------------------------------------

    Molecular point group: c1
  Charge       = 0
  Multiplicity = 1
  Basis Set: AUG-CC-PVTZ
    Blend: AUG-CC-PVTZ
  Basis Set: (AUG-CC-PVTZ AUX)
    Blend: AUG-CC-PVTZ-JKFIT

    Orbital Energies [Eh]
    ---------------------

    Doubly Occupied:

       1A    -20.593586     2A    -20.539674     3A    -11.373223
       4A    -11.280245     5A    -11.271758     6A    -11.240867
       7A    -11.232481     8A    -11.231383     9A    -11.229871
      10A    -11.221112    11A    -11.216951    12A     -1.447862
      13A     -1.347667    14A     -1.102220    15A     -1.066442
      16A     -1.033784    17A     -0.984161    18A     -0.906144
      19A     -0.879608    20A     -0.826138    21A     -0.770623
      22A     -0.727336    23A     -0.691842    24A     -0.681087
      25A     -0.664502    26A     -0.636127    27A     -0.626347
      28A     -0.605709    29A     -0.594744    30A     -0.574751
      31A     -0.555149    32A     -0.548115    33A     -0.537894
      34A     -0.523904    35A     -0.519741    36A     -0.515444
      37A     -0.507781    38A     -0.492406    39A     -0.480334
      40A     -0.471428    41A     -0.456884    42A     -0.440731
      43A     -0.304499

  @DF-RHF Final Energy:  -499.97704217398467

   => Energetics <=

    Nuclear Repulsion Energy =            602.5126491894362744
    One-Electron Energy =               -1875.0742743238413368
    Two-Electron Energy =                 772.5845829604202208
    Total Energy =                       -499.9770421739847279
  Basis Set: (AUG-CC-PVTZ AUX)
    Blend: AUG-CC-PVTZ-RI
    Molecular point group: c1

    Geometry (in Angstrom), charge = 0, multiplicity = 1:

       Center              X                  Y                   Z               Mass
    ------------   -----------------  -----------------  -----------------  -----------------
         O            1.059004949944     0.469870790221     0.020575949429    15.994914619570
         O            2.518490949944    -1.111305209779    -0.705517050571    15.994914619570
         C           -2.381996050056    -0.093813209779     0.305079949429    12.000000000000
         C           -3.610707050056     0.775508790221     0.413472949429    12.000000000000
         C           -1.110821150056     0.460495590221    -0.378125450571    12.000000000000
         C           -0.004349050056    -0.336858209779    -0.555634050571    12.000000000000
         C           -2.525850050056    -1.480027209779     0.869783949429    12.000000000000
         C           -4.721716050056     0.349910790221    -0.552793050571    12.000000000000
         C            3.341945949944     0.868758790221     0.444887949429    12.000000000000
         C            2.299400949944    -0.050520209779    -0.141456050571    12.000000000000
         C            4.745420949944     0.298149790221     0.320356949429    12.000000000000
         H           -3.341740050056     1.818496790221     0.211479949429     1.007825032230
         H           -3.991619050056     0.740603790221     1.442832949429     1.007825032230
         H           -1.285709050056     1.419320790221    -0.644162050571     1.007825032230
         H            0.190419949944    -0.440895209779    -1.628978050571     1.007825032230
         H            0.034807949944    -1.336679209779    -0.118583050571     1.007825032230
         H           -2.807785050056    -1.421094209779     1.929462949429     1.007825032230
         H           -3.323310050056    -2.031294209779     0.357503949429     1.007825032230
         H           -1.613100050056    -2.073643209779     0.794093949429     1.007825032230
         H           -5.056280050056    -0.672245209779    -0.353801050571     1.007825032230
         H           -4.366217050056     0.395314790221    -1.585887050571     1.007825032230
         H           -5.590343050056     1.009236790221    -0.460132050571     1.007825032230
         H            3.255892949944     1.835241790221    -0.064528050571     1.007825032230
         H            3.074825949944     1.057289790221     1.489440949429     1.007825032230
         H            4.821320949944    -0.657002209779     0.842663949429     1.007825032230
         H            4.997775949944     0.123816790221    -0.727451050571     1.007825032230
         H            5.477895949944     0.988057790221     0.747280949429     1.007825032230

  Basis Set: AUG-CC-PVTZ
    Blend: AUG-CC-PVTZ
  Basis Set: (AUG-CC-PVTZ AUX)
    Blend: AUG-CC-PVTZ-JKFIT
	 Reference Energy          =    -499.9770421739846711 [Eh]
	 Singles Energy            =      -0.0000000000000000 [Eh]
	 Same-Spin Energy          =      -0.5147899992945142 [Eh]
	 Opposite-Spin Energy      =      -1.7256950865229610 [Eh]
	 Correlation Energy        =      -2.2404850858174754 [Eh]
	 Total Energy              =    -502.2175272598021252 [Eh]

	 ================> DF-SCS-MP2 Energies <==================
	-----------------------------------------------------------
	 SCS Same-Spin Scale       =       0.3333333333333333 [-]
	 SCS Opposite-Spin Scale   =       1.2000000000000000 [-]
	 SCS Same-Spin Energy      =      -0.1715966664315047 [Eh]
	 SCS Opposite-Spin Energy  =      -2.0708341038275533 [Eh]
	 SCS Correlation Energy    =      -2.2424307702590580 [Eh]
	 SCS Total Energy          =    -502.2194729442437051 [Eh]
	-----------------------------------------------------------

  Dipole Moment: [D]
     X:    -1.4574      Y:     1.1865      Z:     0.8076     Total:     2.0454

*** Psi4 exiting successfully. Buy a developer a beer!
