                               Psi4 1.3.2 release

  ==> Input File <==

--------------------------------------------------------------------------
#psi4
#
memory 32 gb

molecule  {
0 1
  O        1.0716460     0.4753830     0.0137820
  O        2.5311320    -1.1057930    -0.7123110
  C       -2.3693550    -0.0883010     0.2982860
  C       -3.6227368     0.7414927     0.4312408
  C       -1.2412855     0.3532779    -0.2882352
  C        0.0082920    -0.3313460    -0.5624280
  C       -2.5132090    -1.4745150     0.8629900
  C       -4.7090750     0.3554230    -0.5595870
  C        3.3545870     0.8742710     0.4380940
  C        2.3120420    -0.0450080    -0.1482500
  C        4.7580620     0.3036620     0.3135630
  H       -3.3290990     1.8240090     0.2046860
  H       -3.9789780     0.7461160     1.4360390
  H       -1.2730680     1.4248330    -0.6509560
  H        0.2030610    -0.4353830    -1.6357720
  H        0.0474490    -1.3311670    -0.1253770
  H       -2.7951440    -1.4155820     1.9226690
  H       -3.3106690    -2.0257820     0.3507100
  H       -1.6004590    -2.0681310     0.7873000
  H       -5.0436390    -0.6667330    -0.3605950
  H       -4.3535760     0.4008270    -1.5926810
  H       -5.5777020     1.0147490    -0.4669260
  H        3.2685340     1.8407540    -0.0713220
  H        3.0874670     1.0628020     1.4826470
  H        4.8339620    -0.6514900     0.8358700
  H        5.0104170     0.1293290    -0.7342450
  H        5.4905370     0.9935700     0.7404870
units angstrom
no_reorient  #important for SAPT in psi4, default
symmetry c1  #important for SAPT in psi4, default
}

set PROPERTIES_ORIGIN ["COM"]
properties('MP2/aug-cc-pvtz', properties = ['dipole'])
--------------------------------------------------------------------------

    Molecular point group: c1
  Charge       = 0
  Multiplicity = 1
  Basis Set: AUG-CC-PVTZ
    Blend: AUG-CC-PVTZ
  Basis Set: (AUG-CC-PVTZ AUX)
    Blend: AUG-CC-PVTZ-JKFIT

    Orbital Energies [Eh]
    ---------------------

    Doubly Occupied:

       1A    -20.598114     2A    -20.541151     3A    -11.376057
       4A    -11.286072     5A    -11.245386     6A    -11.242463
       7A    -11.230912     8A    -11.225613     9A    -11.224167
      10A    -11.219937    11A    -11.218049    12A     -1.448940
      13A     -1.348310    14A     -1.114432    15A     -1.065049
      16A     -1.027796    17A     -0.980138    18A     -0.917030
      19A     -0.880253    20A     -0.835508    21A     -0.768365
      22A     -0.720993    23A     -0.686789    24A     -0.681851
      25A     -0.660032    26A     -0.637596    27A     -0.626989
      28A     -0.605577    29A     -0.589217    30A     -0.577013
      31A     -0.552373    32A     -0.546382    33A     -0.534169
      34A     -0.522024    35A     -0.520552    36A     -0.516907
      37A     -0.507305    38A     -0.492495    39A     -0.482405
      40A     -0.460867    41A     -0.456392    42A     -0.444766
      43A     -0.346891

  @DF-RHF Final Energy:  -500.03145443331317

   => Energetics <=

    Nuclear Repulsion Energy =            603.5337162834646278
    One-Electron Energy =               -1877.2036896878507832
    Two-Electron Energy =                 773.6385189710730401
    Total Energy =                       -500.0314544333131153
  Basis Set: (AUG-CC-PVTZ AUX)
    Blend: AUG-CC-PVTZ-RI
    Molecular point group: c1

    Geometry (in Angstrom), charge = 0, multiplicity = 1:

       Center              X                  Y                   Z               Mass
    ------------   -----------------  -----------------  -----------------  -----------------
         O            1.071901302097     0.481574329610     0.011256206146    15.994914619570
         O            2.531387302097    -1.099601670390    -0.714836793854    15.994914619570
         C           -2.369099697903    -0.082109670390     0.295760206146    12.000000000000
         C           -3.622481497903     0.747684029610     0.428715006146    12.000000000000
         C           -1.241030197903     0.359469229610    -0.290760993854    12.000000000000
         C            0.008547302097    -0.325154670390    -0.564953793854    12.000000000000
         C           -2.512953697903    -1.468323670390     0.860464206146    12.000000000000
         C           -4.708819697903     0.361614329610    -0.562112793854    12.000000000000
         C            3.354842302097     0.880462329610     0.435568206146    12.000000000000
         C            2.312297302097    -0.038816670390    -0.150775793854    12.000000000000
         C            4.758317302097     0.309853329610     0.311037206146    12.000000000000
         H           -3.328843697903     1.830200329610     0.202160206146     1.007825032230
         H           -3.978722697903     0.752307329610     1.433513206146     1.007825032230
         H           -1.272812697903     1.431024329610    -0.653481793854     1.007825032230
         H            0.203316302097    -0.429191670390    -1.638297793854     1.007825032230
         H            0.047704302097    -1.324975670390    -0.127902793854     1.007825032230
         H           -2.794888697903    -1.409390670390     1.920143206146     1.007825032230
         H           -3.310413697903    -2.019590670390     0.348184206146     1.007825032230
         H           -1.600203697903    -2.061939670390     0.784774206146     1.007825032230
         H           -5.043383697903    -0.660541670390    -0.363120793854     1.007825032230
         H           -4.353320697903     0.407018329610    -1.595206793854     1.007825032230
         H           -5.577446697903     1.020940329610    -0.469451793854     1.007825032230
         H            3.268789302097     1.846945329610    -0.073847793854     1.007825032230
         H            3.087722302097     1.068993329610     1.480121206146     1.007825032230
         H            4.834217302097    -0.645298670390     0.833344206146     1.007825032230
         H            5.010672302097     0.135520329610    -0.736770793854     1.007825032230
         H            5.490792302097     0.999761329610     0.737961206146     1.007825032230

  Basis Set: AUG-CC-PVTZ
    Blend: AUG-CC-PVTZ
  Basis Set: (AUG-CC-PVTZ AUX)
    Blend: AUG-CC-PVTZ-JKFIT
	 Reference Energy          =    -500.0314544333131721 [Eh]
	 Singles Energy            =      -0.0000000000000000 [Eh]
	 Same-Spin Energy          =      -0.5103941607816886 [Eh]
	 Opposite-Spin Energy      =      -1.7177362835628944 [Eh]
	 Correlation Energy        =      -2.2281304443445831 [Eh]
	 Total Energy              =    -502.2595848776577441 [Eh]

	 ================> DF-SCS-MP2 Energies <==================
	-----------------------------------------------------------
	 SCS Same-Spin Scale       =       0.3333333333333333 [-]
	 SCS Opposite-Spin Scale   =       1.2000000000000000 [-]
	 SCS Same-Spin Energy      =      -0.1701313869272295 [Eh]
	 SCS Opposite-Spin Energy  =      -2.0612835402754732 [Eh]
	 SCS Correlation Energy    =      -2.2314149272027026 [Eh]
	 SCS Total Energy          =    -502.2628693605158787 [Eh]
	-----------------------------------------------------------

  Dipole Moment: [D]
     X:    -1.4578      Y:     1.1602      Z:     0.8340     Total:     2.0413

*** Psi4 exiting successfully. Buy a developer a beer!
