                               Psi4 1.3.2 release

  ==> Input File <==

--------------------------------------------------------------------------
#psi4
#
memory 32 gb

molecule  {
0 1
  O        1.0716460     0.4753830     0.0137820
  O        2.5311320    -1.1057930    -0.7123110
  C       -2.3693550    -0.0883010     0.2982860
  C       -3.5980660     0.7810210     0.4066790
  C       -1.2626340     0.3942960    -0.2965320
  C        0.0082920    -0.3313460    -0.5624280
  C       -2.5132090    -1.4745150     0.8629900
  C       -4.7090750     0.3554230    -0.5595870
  C        3.3545870     0.8742710     0.4380940
  C        2.4502586     0.0768665    -0.0705148
  C        4.7580620     0.3036620     0.3135630
  H       -3.3290990     1.8240090     0.2046860
  H       -3.9789780     0.7461160     1.4360390
  H       -1.2730680     1.4248330    -0.6509560
  H        0.2030610    -0.4353830    -1.6357720
  H        0.0474490    -1.3311670    -0.1253770
  H       -2.7951440    -1.4155820     1.9226690
  H       -3.3106690    -2.0257820     0.3507100
  H       -1.6004590    -2.0681310     0.7873000
  H       -5.0436390    -0.6667330    -0.3605950
  H       -4.3535760     0.4008270    -1.5926810
  H       -5.5777020     1.0147490    -0.4669260
  H        3.2685340     1.8407540    -0.0713220
  H        3.0874670     1.0628020     1.4826470
  H        4.8339620    -0.6514900     0.8358700
  H        5.0104170     0.1293290    -0.7342450
  H        5.4905370     0.9935700     0.7404870
units angstrom
no_reorient  #important for SAPT in psi4, default
symmetry c1  #important for SAPT in psi4, default
}

set PROPERTIES_ORIGIN ["COM"]
properties('MP2/aug-cc-pvtz', properties = ['dipole'])
--------------------------------------------------------------------------

    Molecular point group: c1
  Charge       = 0
  Multiplicity = 1
  Basis Set: AUG-CC-PVTZ
    Blend: AUG-CC-PVTZ
  Basis Set: (AUG-CC-PVTZ AUX)
    Blend: AUG-CC-PVTZ-JKFIT

    Orbital Energies [Eh]
    ---------------------

    Doubly Occupied:

       1A    -20.581086     2A    -20.532129     3A    -11.393420
       4A    -11.278615     5A    -11.250415     6A    -11.239183
       7A    -11.233488     8A    -11.225018     9A    -11.222002
      10A    -11.218289    11A    -11.216212    12A     -1.398411
      13A     -1.278284    14A     -1.127496    15A     -1.104616
      16A     -1.016555    17A     -0.973104    18A     -0.935237
      19A     -0.893169    20A     -0.830527    21A     -0.752095
      22A     -0.721716    23A     -0.695196    24A     -0.678881
      25A     -0.649331    26A     -0.637319    27A     -0.619413
      28A     -0.598832    29A     -0.581058    30A     -0.570372
      31A     -0.546216    32A     -0.545004    33A     -0.536916
      34A     -0.531500    35A     -0.518646    36A     -0.512920
      37A     -0.504888    38A     -0.480337    39A     -0.476621
      40A     -0.458123    41A     -0.433992    42A     -0.427020
      43A     -0.341175

  @DF-RHF Final Energy:  -499.96108276852362

   => Energetics <=

    Nuclear Repulsion Energy =            601.6132633979373168
    One-Electron Energy =               -1873.6190310198664974
    Two-Electron Energy =                 772.0446848534055562
    Total Energy =                       -499.9610827685236245
  Basis Set: (AUG-CC-PVTZ AUX)
    Blend: AUG-CC-PVTZ-RI
    Molecular point group: c1

    Geometry (in Angstrom), charge = 0, multiplicity = 1:

       Center              X                  Y                   Z               Mass
    ------------   -----------------  -----------------  -----------------  -----------------
         O            1.061021716687     0.466014964162     0.007806703553    15.994914619570
         O            2.520507716687    -1.115161035838    -0.718286296447    15.994914619570
         C           -2.379979283313    -0.097669035838     0.292310703553    12.000000000000
         C           -3.608690283313     0.771652964162     0.400703703553    12.000000000000
         C           -1.273258283313     0.384927964162    -0.302507296447    12.000000000000
         C           -0.002332283313    -0.340714035838    -0.568403296447    12.000000000000
         C           -2.523833283313    -1.483883035838     0.857014703553    12.000000000000
         C           -4.719699283313     0.346054964162    -0.565562296447    12.000000000000
         C            3.343962716687     0.864902964162     0.432118703553    12.000000000000
         C            2.439634316687     0.067498464162    -0.076490096447    12.000000000000
         C            4.747437716687     0.294293964162     0.307587703553    12.000000000000
         H           -3.339723283313     1.814640964162     0.198710703553     1.007825032230
         H           -3.989602283313     0.736747964162     1.430063703553     1.007825032230
         H           -1.283692283313     1.415464964162    -0.656931296447     1.007825032230
         H            0.192436716687    -0.444751035838    -1.641747296447     1.007825032230
         H            0.036824716687    -1.340535035838    -0.131352296447     1.007825032230
         H           -2.805768283313    -1.424950035838     1.916693703553     1.007825032230
         H           -3.321293283313    -2.035150035838     0.344734703553     1.007825032230
         H           -1.611083283313    -2.077499035838     0.781324703553     1.007825032230
         H           -5.054263283313    -0.676101035838    -0.366570296447     1.007825032230
         H           -4.364200283313     0.391458964162    -1.598656296447     1.007825032230
         H           -5.588326283313     1.005380964162    -0.472901296447     1.007825032230
         H            3.257909716687     1.831385964162    -0.077297296447     1.007825032230
         H            3.076842716687     1.053433964162     1.476671703553     1.007825032230
         H            4.823337716687    -0.660858035838     0.829894703553     1.007825032230
         H            4.999792716687     0.119960964162    -0.740220296447     1.007825032230
         H            5.479912716687     0.984201964162     0.734511703553     1.007825032230

  Basis Set: AUG-CC-PVTZ
    Blend: AUG-CC-PVTZ
  Basis Set: (AUG-CC-PVTZ AUX)
    Blend: AUG-CC-PVTZ-JKFIT
	 Reference Energy          =    -499.9610827685236245 [Eh]
	 Singles Energy            =      -0.0000000000000000 [Eh]
	 Same-Spin Energy          =      -0.5160551203371837 [Eh]
	 Opposite-Spin Energy      =      -1.7282683599035522 [Eh]
	 Correlation Energy        =      -2.2443234802407357 [Eh]
	 Total Energy              =    -502.2054062487643478 [Eh]

	 ================> DF-SCS-MP2 Energies <==================
	-----------------------------------------------------------
	 SCS Same-Spin Scale       =       0.3333333333333333 [-]
	 SCS Opposite-Spin Scale   =       1.2000000000000000 [-]
	 SCS Same-Spin Energy      =      -0.1720183734457279 [Eh]
	 SCS Opposite-Spin Energy  =      -2.0739220318842624 [Eh]
	 SCS Correlation Energy    =      -2.2459404053299901 [Eh]
	 SCS Total Energy          =    -502.2070231738535995 [Eh]
	-----------------------------------------------------------

  Dipole Moment: [D]
     X:    -0.3640      Y:     1.7768      Z:     1.2282     Total:     2.1904

*** Psi4 exiting successfully. Buy a developer a beer!
