                               Psi4 1.4a3.dev225

  ==> Input File <==

--------------------------------------------------------------------------
#psi4
#
memory 32 gb

molecule  {
0 1
  O       -1.1411000    -0.4541930    -0.0251880
  O       -2.5814580     1.1752260    -0.6867450
  C        2.3134570     0.0186930     0.2462000
  C        3.5222300    -0.8802230     0.3222130
  C        1.1937340    -0.4134970    -0.3651820
  C       -0.0478313     0.3439501    -0.5755154
  C        2.4850690     1.3863280     0.8546590
  C        4.7190700    -0.3405130    -0.4677320
  C       -3.4286640    -0.8122060     0.4327630
  C       -2.3749380     0.0938890    -0.1583950
  C       -4.8282690    -0.2261570     0.3119590
  H        3.2581340    -1.8761120    -0.0507320
  H        3.8122360    -1.0018650     1.3748590
  H        1.1815530    -1.4238220    -0.7735790
  H       -0.2705280     0.5138520    -1.6430550
  H       -0.0714200     1.3330110    -0.0949940
  H        3.0182560     1.3061200     1.8081990
  H        3.0814560     2.0379150     0.2067330
  H        1.5342700     1.8877430     1.0433380
  H        5.0646870     0.6170420    -0.0694620
  H        4.4484560    -0.1949880    -1.5176090
  H        5.5583810    -1.0408350    -0.4253590
  H       -3.3536290    -1.7820470    -0.0715700
  H       -3.1585900    -0.9983310     1.4781360
  H       -4.8922970     0.7333770     0.8287030
  H       -5.0879650    -0.0561110    -0.7346540
  H       -5.5642940    -0.9066400     0.7478690
units angstrom
no_reorient  #important for SAPT in psi4, default
symmetry c1  #important for SAPT in psi4, default
}

set PROPERTIES_ORIGIN ["COM"]
properties('MP2/aug-cc-pvtz', properties = ['dipole'])
--------------------------------------------------------------------------

    Molecular point group: c1
  Charge       = 0
  Multiplicity = 1
  Basis Set: AUG-CC-PVTZ
    Blend: AUG-CC-PVTZ
  Basis Set: (AUG-CC-PVTZ AUX)
    Blend: AUG-CC-PVTZ-JKFIT

    Orbital Energies [Eh]
    ---------------------

    Doubly Occupied:

       1A    -20.595687     2A    -20.540120     3A    -11.375228
       4A    -11.287447     5A    -11.245719     6A    -11.242246
       7A    -11.229173     8A    -11.226614     9A    -11.222886
      10A    -11.219760    11A    -11.217889    12A     -1.444860
      13A     -1.346082    14A     -1.113869    15A     -1.062714
      16A     -1.023942    17A     -0.977804    18A     -0.920157
      19A     -0.879885    20A     -0.832493    21A     -0.765236
      22A     -0.723773    23A     -0.687125    24A     -0.678013
      25A     -0.658765    26A     -0.638555    27A     -0.625299
      28A     -0.603512    29A     -0.590659    30A     -0.572349
      31A     -0.553861    32A     -0.545868    33A     -0.533397
      34A     -0.521700    35A     -0.516993    36A     -0.514007
      37A     -0.511340    38A     -0.491606    39A     -0.485462
      40A     -0.467660    41A     -0.455511    42A     -0.443603
      43A     -0.346494

  @DF-RHF Final Energy:  -500.03772826030354

   => Energetics <=

    Nuclear Repulsion Energy =            602.5621126429440437
    One-Electron Energy =               -1875.3289516116071809
    Two-Electron Energy =                 772.7291107083597126
    Total Energy =                       -500.0377282603035383
  Basis Set: (AUG-CC-PVTZ AUX)
    Blend: AUG-CC-PVTZ-RI
    Molecular point group: c1

    Geometry (in Angstrom), charge = 0, multiplicity = 1:

       Center              X                  Y                   Z               Mass
    ------------   -----------------  -----------------  -----------------  -----------------
         O           -1.088126068924    -0.458790090777    -0.012041518235    15.994914619570
         O           -2.528484068924     1.170628909223    -0.673598518235    15.994914619570
         C            2.366430931076     0.014095909223     0.259346481765    12.000000000000
         C            3.575203931076    -0.884820090777     0.335359481765    12.000000000000
         C            1.246707931076    -0.418094090777    -0.352035518235    12.000000000000
         C            0.005142631076     0.339353009223    -0.562368918235    12.000000000000
         C            2.538042931076     1.381730909223     0.867805481765    12.000000000000
         C            4.772043931076    -0.345110090777    -0.454585518235    12.000000000000
         C           -3.375690068924    -0.816803090777     0.445909481765    12.000000000000
         C           -2.321964068924     0.089291909223    -0.145248518235    12.000000000000
         C           -4.775295068924    -0.230754090777     0.325105481765    12.000000000000
         H            3.311107931076    -1.880709090777    -0.037585518235     1.007825032230
         H            3.865209931076    -1.006462090777     1.388005481765     1.007825032230
         H            1.234526931076    -1.428419090777    -0.760432518235     1.007825032230
         H           -0.217554068924     0.509254909223    -1.629908518235     1.007825032230
         H           -0.018446068924     1.328413909223    -0.081847518235     1.007825032230
         H            3.071229931076     1.301522909223     1.821345481765     1.007825032230
         H            3.134429931076     2.033317909223     0.219879481765     1.007825032230
         H            1.587243931076     1.883145909223     1.056484481765     1.007825032230
         H            5.117660931076     0.612444909223    -0.056315518235     1.007825032230
         H            4.501429931076    -0.199585090777    -1.504462518235     1.007825032230
         H            5.611354931076    -1.045432090777    -0.412212518235     1.007825032230
         H           -3.300655068924    -1.786644090777    -0.058423518235     1.007825032230
         H           -3.105616068924    -1.002928090777     1.491282481765     1.007825032230
         H           -4.839323068924     0.728779909223     0.841849481765     1.007825032230
         H           -5.034991068924    -0.060708090777    -0.721507518235     1.007825032230
         H           -5.511320068924    -0.911237090777     0.761015481765     1.007825032230

  Basis Set: AUG-CC-PVTZ
    Blend: AUG-CC-PVTZ
  Basis Set: (AUG-CC-PVTZ AUX)
    Blend: AUG-CC-PVTZ-JKFIT
	 Reference Energy          =    -500.0377282603035383 [Eh]
	 Singles Energy            =      -0.0000000000000000 [Eh]
	 Same-Spin Energy          =      -0.5099008449560973 [Eh]
	 Opposite-Spin Energy      =      -1.7171170955957762 [Eh]
	 Correlation Energy        =      -2.2270179405518737 [Eh]
	 Total Energy              =    -502.2647462008554271 [Eh]

	 ================> DF-SCS-MP2 Energies <==================
	-----------------------------------------------------------
	 SCS Same-Spin Scale       =       0.3333333333333333 [-]
	 SCS Opposite-Spin Scale   =       1.2000000000000000 [-]
	 SCS Same-Spin Energy      =      -0.1699669483186991 [Eh]
	 SCS Opposite-Spin Energy  =      -2.0605405147149312 [Eh]
	 SCS Correlation Energy    =      -2.2305074630336303 [Eh]
	 SCS Total Energy          =    -502.2682357233371704 [Eh]
	-----------------------------------------------------------

  Dipole Moment: [D]
     X:     1.5151      Y:    -1.2058      Z:     0.8047     Total:     2.0969

*** Psi4 exiting successfully. Buy a developer a beer!
