                               Psi4 1.3.2 release

  ==> Input File <==

--------------------------------------------------------------------------
#psi4
#
memory 32 gb

molecule  {
0 1
  O        1.0716460     0.4753830     0.0137820
  O        2.5311320    -1.1057930    -0.7123110
  C       -2.3693550    -0.0883010     0.2982860
  C       -3.5980660     0.7810210     0.4066790
  C       -1.2626340     0.3942960    -0.2965320
  C        0.0082920    -0.3313460    -0.5624280
  C       -2.5132090    -1.4745150     0.8629900
  C       -4.7091643     0.3311201    -0.5484097
  C        3.3545870     0.8742710     0.4380940
  C        2.3120420    -0.0450080    -0.1482500
  C        4.7580620     0.3036620     0.3135630
  H       -3.3160937     1.8231913     0.2186867
  H       -3.9789780     0.7461160     1.4360390
  H       -1.2730680     1.4248330    -0.6509560
  H        0.2030610    -0.4353830    -1.6357720
  H        0.0474490    -1.3311670    -0.1253770
  H       -2.7951440    -1.4155820     1.9226690
  H       -3.3106690    -2.0257820     0.3507100
  H       -1.6004590    -2.0681310     0.7873000
  H       -5.0436390    -0.6667330    -0.3605950
  H       -4.3535760     0.4008270    -1.5926810
  H       -5.5777020     1.0147490    -0.4669260
  H        3.2685340     1.8407540    -0.0713220
  H        3.0874670     1.0628020     1.4826470
  H        4.8339620    -0.6514900     0.8358700
  H        5.0104170     0.1293290    -0.7342450
  H        5.4905370     0.9935700     0.7404870
units angstrom
no_reorient  #important for SAPT in psi4, default
symmetry c1  #important for SAPT in psi4, default
}

set PROPERTIES_ORIGIN ["COM"]
properties('MP2/aug-cc-pvtz', properties = ['dipole'])
--------------------------------------------------------------------------

    Molecular point group: c1
  Charge       = 0
  Multiplicity = 1
  Basis Set: AUG-CC-PVTZ
    Blend: AUG-CC-PVTZ
  Basis Set: (AUG-CC-PVTZ AUX)
    Blend: AUG-CC-PVTZ-JKFIT

    Orbital Energies [Eh]
    ---------------------

    Doubly Occupied:

       1A    -20.597239     2A    -20.540709     3A    -11.375467
       4A    -11.286408     5A    -11.243987     6A    -11.242162
       7A    -11.228596     8A    -11.226414     9A    -11.223066
      10A    -11.219629    11A    -11.217842    12A     -1.448056
      13A     -1.347543    14A     -1.112639    15A     -1.063896
      16A     -1.021759    17A     -0.977675    18A     -0.919832
      19A     -0.879318    20A     -0.833875    21A     -0.767361
      22A     -0.722649    23A     -0.687797    24A     -0.679993
      25A     -0.660120    26A     -0.638851    27A     -0.623402
      28A     -0.604950    29A     -0.587658    30A     -0.575004
      31A     -0.554346    32A     -0.542914    33A     -0.533722
      34A     -0.522015    35A     -0.517621    36A     -0.514830
      37A     -0.512498    38A     -0.492331    39A     -0.484894
      40A     -0.464214    41A     -0.457204    42A     -0.444377
      43A     -0.345965

  @DF-RHF Final Energy:  -500.03749254540787

   => Energetics <=

    Nuclear Repulsion Energy =            603.1655306566634636
    One-Electron Energy =               -1876.5243921805658829
    Two-Electron Energy =                 773.3213689784944336
    Total Energy =                       -500.0374925454078721
  Basis Set: (AUG-CC-PVTZ AUX)
    Blend: AUG-CC-PVTZ-RI
    Molecular point group: c1

    Geometry (in Angstrom), charge = 0, multiplicity = 1:

       Center              X                  Y                   Z               Mass
    ------------   -----------------  -----------------  -----------------  -----------------
         O            1.071568835281     0.477256373149     0.012832385867    15.994914619570
         O            2.531054835281    -1.103919626851    -0.713260614133    15.994914619570
         C           -2.369432164719    -0.086427626851     0.297336385867    12.000000000000
         C           -3.598143164719     0.782894373149     0.405729385867    12.000000000000
         C           -1.262711164719     0.396169373149    -0.297481614133    12.000000000000
         C            0.008214835281    -0.329472626851    -0.563377614133    12.000000000000
         C           -2.513286164719    -1.472641626851     0.862040385867    12.000000000000
         C           -4.709241464719     0.332993473149    -0.549359314133    12.000000000000
         C            3.354509835281     0.876144373149     0.437144385867    12.000000000000
         C            2.311964835281    -0.043134626851    -0.149199614133    12.000000000000
         C            4.757984835281     0.305535373149     0.312613385867    12.000000000000
         H           -3.316170864719     1.825064673149     0.217737085867     1.007825032230
         H           -3.979055164719     0.747989373149     1.435089385867     1.007825032230
         H           -1.273145164719     1.426706373149    -0.651905614133     1.007825032230
         H            0.202983835281    -0.433509626851    -1.636721614133     1.007825032230
         H            0.047371835281    -1.329293626851    -0.126326614133     1.007825032230
         H           -2.795221164719    -1.413708626851     1.921719385867     1.007825032230
         H           -3.310746164719    -2.023908626851     0.349760385867     1.007825032230
         H           -1.600536164719    -2.066257626851     0.786350385867     1.007825032230
         H           -5.043716164719    -0.664859626851    -0.361544614133     1.007825032230
         H           -4.353653164719     0.402700373149    -1.593630614133     1.007825032230
         H           -5.577779164719     1.016622373149    -0.467875614133     1.007825032230
         H            3.268456835281     1.842627373149    -0.072271614133     1.007825032230
         H            3.087389835281     1.064675373149     1.481697385867     1.007825032230
         H            4.833884835281    -0.649616626851     0.834920385867     1.007825032230
         H            5.010339835281     0.131202373149    -0.735194614133     1.007825032230
         H            5.490459835281     0.995443373149     0.739537385867     1.007825032230

  Basis Set: AUG-CC-PVTZ
    Blend: AUG-CC-PVTZ
  Basis Set: (AUG-CC-PVTZ AUX)
    Blend: AUG-CC-PVTZ-JKFIT
	 Reference Energy          =    -500.0374925454078721 [Eh]
	 Singles Energy            =      -0.0000000000000000 [Eh]
	 Same-Spin Energy          =      -0.5097985848063156 [Eh]
	 Opposite-Spin Energy      =      -1.7168867750463099 [Eh]
	 Correlation Energy        =      -2.2266853598526257 [Eh]
	 Total Energy              =    -502.2641779052605102 [Eh]

	 ================> DF-SCS-MP2 Energies <==================
	-----------------------------------------------------------
	 SCS Same-Spin Scale       =       0.3333333333333333 [-]
	 SCS Opposite-Spin Scale   =       1.2000000000000000 [-]
	 SCS Same-Spin Energy      =      -0.1699328616021052 [Eh]
	 SCS Opposite-Spin Energy  =      -2.0602641300555717 [Eh]
	 SCS Correlation Energy    =      -2.2301969916576772 [Eh]
	 SCS Total Energy          =    -502.2676895370655643 [Eh]
	-----------------------------------------------------------

  Dipole Moment: [D]
     X:    -1.4539      Y:     1.1734      Z:     0.8401     Total:     2.0486

*** Psi4 exiting successfully. Buy a developer a beer!
