                               Psi4 1.3.2 release

  ==> Input File <==

--------------------------------------------------------------------------
#psi4
#
memory 32 gb

molecule  {
0 1
  O        1.0716460     0.4753830     0.0137820
  O        2.5311320    -1.1057930    -0.7123110
  C       -2.3693550    -0.0883010     0.2982860
  C       -3.5980660     0.7810210     0.4066790
  C       -1.2626340     0.3942960    -0.2965320
  C        0.0082920    -0.3313460    -0.5624280
  C       -2.5132090    -1.4745150     0.8629900
  C       -4.7090750     0.3554230    -0.5595870
  C        3.3545870     0.8742710     0.4380940
  C        2.2429337    -0.1059452    -0.1871176
  C        4.7580620     0.3036620     0.3135630
  H       -3.3290990     1.8240090     0.2046860
  H       -3.9789780     0.7461160     1.4360390
  H       -1.2730680     1.4248330    -0.6509560
  H        0.2030610    -0.4353830    -1.6357720
  H        0.0474490    -1.3311670    -0.1253770
  H       -2.7951440    -1.4155820     1.9226690
  H       -3.3106690    -2.0257820     0.3507100
  H       -1.6004590    -2.0681310     0.7873000
  H       -5.0436390    -0.6667330    -0.3605950
  H       -4.3535760     0.4008270    -1.5926810
  H       -5.5777020     1.0147490    -0.4669260
  H        3.2685340     1.8407540    -0.0713220
  H        3.0874670     1.0628020     1.4826470
  H        4.8339620    -0.6514900     0.8358700
  H        5.0104170     0.1293290    -0.7342450
  H        5.4905370     0.9935700     0.7404870
units angstrom
no_reorient  #important for SAPT in psi4, default
symmetry c1  #important for SAPT in psi4, default
}

set PROPERTIES_ORIGIN ["COM"]
properties('MP2/aug-cc-pvtz', properties = ['dipole'])
--------------------------------------------------------------------------

    Molecular point group: c1
  Charge       = 0
  Multiplicity = 1
  Basis Set: AUG-CC-PVTZ
    Blend: AUG-CC-PVTZ
  Basis Set: (AUG-CC-PVTZ AUX)
    Blend: AUG-CC-PVTZ-JKFIT

    Orbital Energies [Eh]
    ---------------------

    Doubly Occupied:

       1A    -20.604932     2A    -20.545663     3A    -11.368768
       4A    -11.290452     5A    -11.246663     6A    -11.233562
       7A    -11.230040     8A    -11.228539     9A    -11.225699
      10A    -11.220647    11A    -11.210840    12A     -1.473340
      13A     -1.384225    14A     -1.114791    15A     -1.046217
      16A     -1.020865    17A     -0.980256    18A     -0.918816
      19A     -0.866674    20A     -0.832740    21A     -0.778055
      22A     -0.724128    23A     -0.692115    24A     -0.688376
      25A     -0.669628    26A     -0.637766    27A     -0.623850
      28A     -0.602585    29A     -0.590444    30A     -0.576263
      31A     -0.558835    32A     -0.551711    33A     -0.540414
      34A     -0.520133    35A     -0.518833    36A     -0.515176
      37A     -0.510207    38A     -0.489594    39A     -0.485751
      40A     -0.471024    41A     -0.467104    42A     -0.427280
      43A     -0.347871

  @DF-RHF Final Energy:  -500.03123016615802

   => Energetics <=

    Nuclear Repulsion Energy =            603.9880298535535985
    One-Electron Energy =               -1877.9767770334967736
    Two-Electron Energy =                 773.9575170137851501
    Total Energy =                       -500.0312301661580250
  Basis Set: (AUG-CC-PVTZ AUX)
    Blend: AUG-CC-PVTZ-RI
    Molecular point group: c1

    Geometry (in Angstrom), charge = 0, multiplicity = 1:

       Center              X                  Y                   Z               Mass
    ------------   -----------------  -----------------  -----------------  -----------------
         O            1.076958034951     0.480067041040     0.016769540777    15.994914619570
         O            2.536444034951    -1.101108958960    -0.709323459223    15.994914619570
         C           -2.364042965049    -0.083616958960     0.301273540777    12.000000000000
         C           -3.592753965049     0.785705041040     0.409666540777    12.000000000000
         C           -1.257321965049     0.398980041040    -0.293544459223    12.000000000000
         C            0.013604034951    -0.326661958960    -0.559440459223    12.000000000000
         C           -2.507896965049    -1.469830958960     0.865977540777    12.000000000000
         C           -4.703762965049     0.360107041040    -0.556599459223    12.000000000000
         C            3.359899034951     0.878955041040     0.441081540777    12.000000000000
         C            2.248245734951    -0.101261158960    -0.184130059223    12.000000000000
         C            4.763374034951     0.308346041040     0.316550540777    12.000000000000
         H           -3.323786965049     1.828693041040     0.207673540777     1.007825032230
         H           -3.973665965049     0.750800041040     1.439026540777     1.007825032230
         H           -1.267755965049     1.429517041040    -0.647968459223     1.007825032230
         H            0.208373034951    -0.430698958960    -1.632784459223     1.007825032230
         H            0.052761034951    -1.326482958960    -0.122389459223     1.007825032230
         H           -2.789831965049    -1.410897958960     1.925656540777     1.007825032230
         H           -3.305356965049    -2.021097958960     0.353697540777     1.007825032230
         H           -1.595146965049    -2.063446958960     0.790287540777     1.007825032230
         H           -5.038326965049    -0.662048958960    -0.357607459223     1.007825032230
         H           -4.348263965049     0.405511041040    -1.589693459223     1.007825032230
         H           -5.572389965049     1.019433041040    -0.463938459223     1.007825032230
         H            3.273846034951     1.845438041040    -0.068334459223     1.007825032230
         H            3.092779034951     1.067486041040     1.485634540777     1.007825032230
         H            4.839274034951    -0.646805958960     0.838857540777     1.007825032230
         H            5.015729034951     0.134013041040    -0.731257459223     1.007825032230
         H            5.495849034951     0.998254041040     0.743474540777     1.007825032230

  Basis Set: AUG-CC-PVTZ
    Blend: AUG-CC-PVTZ
  Basis Set: (AUG-CC-PVTZ AUX)
    Blend: AUG-CC-PVTZ-JKFIT
	 Reference Energy          =    -500.0312301661580250 [Eh]
	 Singles Energy            =      -0.0000000000000000 [Eh]
	 Same-Spin Energy          =      -0.5084452339892288 [Eh]
	 Opposite-Spin Energy      =      -1.7143961748498584 [Eh]
	 Correlation Energy        =      -2.2228414088390873 [Eh]
	 Total Energy              =    -502.2540715749971127 [Eh]

	 ================> DF-SCS-MP2 Energies <==================
	-----------------------------------------------------------
	 SCS Same-Spin Scale       =       0.3333333333333333 [-]
	 SCS Opposite-Spin Scale   =       1.2000000000000000 [-]
	 SCS Same-Spin Energy      =      -0.1694817446630763 [Eh]
	 SCS Opposite-Spin Energy  =      -2.0572754098198298 [Eh]
	 SCS Correlation Energy    =      -2.2267571544829061 [Eh]
	 SCS Total Energy          =    -502.2579873206409502 [Eh]
	-----------------------------------------------------------

  Dipole Moment: [D]
     X:    -1.9752      Y:     0.8382      Z:     0.6084     Total:     2.2303

*** Psi4 exiting successfully. Buy a developer a beer!
