                               Psi4 1.3.2 release

  ==> Input File <==

--------------------------------------------------------------------------
#psi4
#
memory 32 gb

molecule  {
0 1
  O        1.0716460     0.4753830     0.0137820
  O        2.5311320    -1.1057930    -0.7123110
  C       -2.3693550    -0.0883010     0.2982860
  C       -3.5980660     0.7810210     0.4066790
  C       -1.2626340     0.3942960    -0.2965320
  C        0.0082920    -0.3313460    -0.5624280
  C       -2.5132090    -1.4745150     0.8629900
  C       -4.7090750     0.3554230    -0.5595870
  C        3.3545870     0.8742710     0.4380940
  C        2.3120420    -0.0450080    -0.1482500
  C        4.6657370     0.3411985     0.3217550
  H       -3.3290990     1.8240090     0.2046860
  H       -3.9789780     0.7461160     1.4360390
  H       -1.2730680     1.4248330    -0.6509560
  H        0.2030610    -0.4353830    -1.6357720
  H        0.0474490    -1.3311670    -0.1253770
  H       -2.7951440    -1.4155820     1.9226690
  H       -3.3106690    -2.0257820     0.3507100
  H       -1.6004590    -2.0681310     0.7873000
  H       -5.0436390    -0.6667330    -0.3605950
  H       -4.3535760     0.4008270    -1.5926810
  H       -5.5777020     1.0147490    -0.4669260
  H        3.2685340     1.8407540    -0.0713220
  H        3.0874670     1.0628020     1.4826470
  H        4.8339620    -0.6514900     0.8358700
  H        5.0104170     0.1293290    -0.7342450
  H        5.4905370     0.9935700     0.7404870
units angstrom
no_reorient  #important for SAPT in psi4, default
symmetry c1  #important for SAPT in psi4, default
}

set PROPERTIES_ORIGIN ["COM"]
properties('MP2/aug-cc-pvtz', properties = ['dipole'])
--------------------------------------------------------------------------

    Molecular point group: c1
  Charge       = 0
  Multiplicity = 1
  Basis Set: AUG-CC-PVTZ
    Blend: AUG-CC-PVTZ
  Basis Set: (AUG-CC-PVTZ AUX)
    Blend: AUG-CC-PVTZ-JKFIT

    Orbital Energies [Eh]
    ---------------------

    Doubly Occupied:

       1A    -20.597816     2A    -20.541773     3A    -11.376121
       4A    -11.286860     5A    -11.244496     6A    -11.238651
       7A    -11.228581     8A    -11.226577     9A    -11.223506
      10A    -11.222255    11A    -11.219345    12A     -1.448845
      13A     -1.348479    14A     -1.112978    15A     -1.081247
      16A     -1.024175    17A     -0.978736    18A     -0.918809
      19A     -0.873116    20A     -0.832220    21A     -0.767617
      22A     -0.724249    23A     -0.690746    24A     -0.681249
      25A     -0.662864    26A     -0.641247    27A     -0.624565
      28A     -0.606618    29A     -0.588959    30A     -0.576556
      31A     -0.558095    32A     -0.549565    33A     -0.538799
      34A     -0.531139    35A     -0.515544    36A     -0.511546
      37A     -0.498744    38A     -0.484159    39A     -0.476602
      40A     -0.465948    41A     -0.457001    42A     -0.444143
      43A     -0.346342

  @DF-RHF Final Energy:  -500.02624283235457

   => Energetics <=

    Nuclear Repulsion Energy =            604.6581484396828046
    One-Electron Energy =               -1879.4350250750042051
    Two-Electron Energy =                 774.7506338029669450
    Total Energy =                       -500.0262428323545691
  Basis Set: (AUG-CC-PVTZ AUX)
    Blend: AUG-CC-PVTZ-RI
    Molecular point group: c1

    Geometry (in Angstrom), charge = 0, multiplicity = 1:

       Center              X                  Y                   Z               Mass
    ------------   -----------------  -----------------  -----------------  -----------------
         O            1.078742619052     0.472497722430     0.013152238837    15.994914619570
         O            2.538228619052    -1.108678277570    -0.712940761163    15.994914619570
         C           -2.362258380948    -0.091186277570     0.297656238837    12.000000000000
         C           -3.590969380948     0.778135722430     0.406049238837    12.000000000000
         C           -1.255537380948     0.391410722430    -0.297161761163    12.000000000000
         C            0.015388619052    -0.334231277570    -0.563057761163    12.000000000000
         C           -2.506112380948    -1.477400277570     0.862360238837    12.000000000000
         C           -4.701978380948     0.352537722430    -0.560216761163    12.000000000000
         C            3.361683619052     0.871385722430     0.437464238837    12.000000000000
         C            2.319138619052    -0.047893277570    -0.148879761163    12.000000000000
         C            4.672833619052     0.338313222430     0.321125238837    12.000000000000
         H           -3.322002380948     1.821123722430     0.204056238837     1.007825032230
         H           -3.971881380948     0.743230722430     1.435409238837     1.007825032230
         H           -1.265971380948     1.421947722430    -0.651585761163     1.007825032230
         H            0.210157619052    -0.438268277570    -1.636401761163     1.007825032230
         H            0.054545619052    -1.334052277570    -0.126006761163     1.007825032230
         H           -2.788047380948    -1.418467277570     1.922039238837     1.007825032230
         H           -3.303572380948    -2.028667277570     0.350080238837     1.007825032230
         H           -1.593362380948    -2.071016277570     0.786670238837     1.007825032230
         H           -5.036542380948    -0.669618277570    -0.361224761163     1.007825032230
         H           -4.346479380948     0.397941722430    -1.593310761163     1.007825032230
         H           -5.570605380948     1.011863722430    -0.467555761163     1.007825032230
         H            3.275630619052     1.837868722430    -0.071951761163     1.007825032230
         H            3.094563619052     1.059916722430     1.482017238837     1.007825032230
         H            4.841058619052    -0.654375277570     0.835240238837     1.007825032230
         H            5.017513619052     0.126443722430    -0.734874761163     1.007825032230
         H            5.497633619052     0.990684722430     0.739857238837     1.007825032230

  Basis Set: AUG-CC-PVTZ
    Blend: AUG-CC-PVTZ
  Basis Set: (AUG-CC-PVTZ AUX)
    Blend: AUG-CC-PVTZ-JKFIT
	 Reference Energy          =    -500.0262428323545691 [Eh]
	 Singles Energy            =      -0.0000000000000000 [Eh]
	 Same-Spin Energy          =      -0.5107797640504621 [Eh]
	 Opposite-Spin Energy      =      -1.7181288391716976 [Eh]
	 Correlation Energy        =      -2.2289086032221599 [Eh]
	 Total Energy              =    -502.2551514355767495 [Eh]

	 ================> DF-SCS-MP2 Energies <==================
	-----------------------------------------------------------
	 SCS Same-Spin Scale       =       0.3333333333333333 [-]
	 SCS Opposite-Spin Scale   =       1.2000000000000000 [-]
	 SCS Same-Spin Energy      =      -0.1702599213501540 [Eh]
	 SCS Opposite-Spin Energy  =      -2.0617546070060371 [Eh]
	 SCS Correlation Energy    =      -2.2320145283561912 [Eh]
	 SCS Total Energy          =    -502.2582573607107861 [Eh]
	-----------------------------------------------------------

  Dipole Moment: [D]
     X:    -1.4805      Y:     1.1767      Z:     0.8258     Total:     2.0636

*** Psi4 exiting successfully. Buy a developer a beer!
