                               Psi4 1.3.2 release

  ==> Input File <==

--------------------------------------------------------------------------
#psi4
#
memory 32 gb

molecule  {
0 1
  O        1.0716460     0.4753830     0.0137820
  O        2.5311320    -1.1057930    -0.7123110
  C       -2.3693550    -0.0883010     0.2982860
  C       -3.5980660     0.7810210     0.4066790
  C       -1.2626340     0.3942960    -0.2965320
  C        0.0082920    -0.3313460    -0.5624280
  C       -2.5132090    -1.4745150     0.8629900
  C       -4.7090750     0.3554230    -0.5595870
  C        3.3545870     0.8742710     0.4380940
  C        2.3379256    -0.0436197    -0.1940844
  C        4.7580620     0.3036620     0.3135630
  H       -3.3290990     1.8240090     0.2046860
  H       -3.9789780     0.7461160     1.4360390
  H       -1.2730680     1.4248330    -0.6509560
  H        0.2030610    -0.4353830    -1.6357720
  H        0.0474490    -1.3311670    -0.1253770
  H       -2.7951440    -1.4155820     1.9226690
  H       -3.3106690    -2.0257820     0.3507100
  H       -1.6004590    -2.0681310     0.7873000
  H       -5.0436390    -0.6667330    -0.3605950
  H       -4.3535760     0.4008270    -1.5926810
  H       -5.5777020     1.0147490    -0.4669260
  H        3.2685340     1.8407540    -0.0713220
  H        3.1183794     1.0850230     1.4858428
  H        4.8339620    -0.6514900     0.8358700
  H        5.0104170     0.1293290    -0.7342450
  H        5.4905370     0.9935700     0.7404870
units angstrom
no_reorient  #important for SAPT in psi4, default
symmetry c1  #important for SAPT in psi4, default
}

set PROPERTIES_ORIGIN ["COM"]
properties('MP2/aug-cc-pvtz', properties = ['dipole'])
--------------------------------------------------------------------------

    Molecular point group: c1
  Charge       = 0
  Multiplicity = 1
  Basis Set: AUG-CC-PVTZ
    Blend: AUG-CC-PVTZ
  Basis Set: (AUG-CC-PVTZ AUX)
    Blend: AUG-CC-PVTZ-JKFIT

    Orbital Energies [Eh]
    ---------------------

    Doubly Occupied:

       1A    -20.590205     2A    -20.547986     3A    -11.375758
       4A    -11.283160     5A    -11.242898     6A    -11.242282
       7A    -11.227144     8A    -11.225031     9A    -11.221551
      10A    -11.218530    11A    -11.218195    12A     -1.446340
      13A     -1.355011    14A     -1.110469    15A     -1.064422
      16A     -1.019375    17A     -0.975270    18A     -0.917061
      19A     -0.878072    20A     -0.831454    21A     -0.763373
      22A     -0.722896    23A     -0.690172    24A     -0.676599
      25A     -0.662676    26A     -0.637878    27A     -0.623629
      28A     -0.603466    29A     -0.588484    30A     -0.573164
      31A     -0.552120    32A     -0.543717    33A     -0.535175
      34A     -0.521216    35A     -0.520162    36A     -0.513403
      37A     -0.511355    38A     -0.494234    39A     -0.482855
      40A     -0.465383    41A     -0.457177    42A     -0.446774
      43A     -0.344021

  @DF-RHF Final Energy:  -500.03669970384010

   => Energetics <=

    Nuclear Repulsion Energy =            602.8903338246218482
    One-Electron Energy =               -1876.0137824295354676
    Two-Electron Energy =                 773.0867489010735198
    Total Energy =                       -500.0366997038400996
  Basis Set: (AUG-CC-PVTZ AUX)
    Blend: AUG-CC-PVTZ-RI
    Molecular point group: c1

    Geometry (in Angstrom), charge = 0, multiplicity = 1:

       Center              X                  Y                   Z               Mass
    ------------   -----------------  -----------------  -----------------  -----------------
         O            1.069456789924     0.475132853209     0.017284422611    15.994914619570
         O            2.528942789924    -1.106043146791    -0.708808577389    15.994914619570
         C           -2.371544210076    -0.088551146791     0.301788422611    12.000000000000
         C           -3.600255210076     0.780770853209     0.410181422611    12.000000000000
         C           -1.264823210076     0.394045853209    -0.293029577389    12.000000000000
         C            0.006102789924    -0.331596146791    -0.558925577389    12.000000000000
         C           -2.515398210076    -1.474765146791     0.866492422611    12.000000000000
         C           -4.711264210076     0.355172853209    -0.556084577389    12.000000000000
         C            3.352397789924     0.874020853209     0.441596422611    12.000000000000
         C            2.335736389924    -0.043869846791    -0.190581977389    12.000000000000
         C            4.755872789924     0.303411853209     0.317065422611    12.000000000000
         H           -3.331288210076     1.823758853209     0.208188422611     1.007825032230
         H           -3.981167210076     0.745865853209     1.439541422611     1.007825032230
         H           -1.275257210076     1.424582853209    -0.647453577389     1.007825032230
         H            0.200871789924    -0.435633146791    -1.632269577389     1.007825032230
         H            0.045259789924    -1.331417146791    -0.121874577389     1.007825032230
         H           -2.797333210076    -1.415832146791     1.926171422611     1.007825032230
         H           -3.312858210076    -2.026032146791     0.354212422611     1.007825032230
         H           -1.602648210076    -2.068381146791     0.790802422611     1.007825032230
         H           -5.045828210076    -0.666983146791    -0.357092577389     1.007825032230
         H           -4.355765210076     0.400576853209    -1.589178577389     1.007825032230
         H           -5.579891210076     1.014498853209    -0.463423577389     1.007825032230
         H            3.266344789924     1.840503853209    -0.067819577389     1.007825032230
         H            3.116190189924     1.084772853209     1.489345222611     1.007825032230
         H            4.831772789924    -0.651740146791     0.839372422611     1.007825032230
         H            5.008227789924     0.129078853209    -0.730742577389     1.007825032230
         H            5.488347789924     0.993319853209     0.743989422611     1.007825032230

  Basis Set: AUG-CC-PVTZ
    Blend: AUG-CC-PVTZ
  Basis Set: (AUG-CC-PVTZ AUX)
    Blend: AUG-CC-PVTZ-JKFIT
	 Reference Energy          =    -500.0366997038400996 [Eh]
	 Singles Energy            =      -0.0000000000000000 [Eh]
	 Same-Spin Energy          =      -0.5096317676163503 [Eh]
	 Opposite-Spin Energy      =      -1.7167206043912988 [Eh]
	 Correlation Energy        =      -2.2263523720076490 [Eh]
	 Total Energy              =    -502.2630520758477246 [Eh]

	 ================> DF-SCS-MP2 Energies <==================
	-----------------------------------------------------------
	 SCS Same-Spin Scale       =       0.3333333333333333 [-]
	 SCS Opposite-Spin Scale   =       1.2000000000000000 [-]
	 SCS Same-Spin Energy      =      -0.1698772558721168 [Eh]
	 SCS Opposite-Spin Energy  =      -2.0600647252695583 [Eh]
	 SCS Correlation Energy    =      -2.2299419811416752 [Eh]
	 SCS Total Energy          =    -502.2666416849817779 [Eh]
	-----------------------------------------------------------

  Dipole Moment: [D]
     X:    -1.1553      Y:     1.0938      Z:     0.7502     Total:     1.7590

*** Psi4 exiting successfully. Buy a developer a beer!
