                               Psi4 1.3.2 release

  ==> Input File <==

--------------------------------------------------------------------------
#psi4
#
memory 32 gb

molecule  {
0 1
  O        1.0716460     0.4753830     0.0137820
  O        2.5311320    -1.1057930    -0.7123110
  C       -2.3693550    -0.0883010     0.2982860
  C       -3.5915751     0.7908333     0.4007626
  C       -1.2626340     0.3942960    -0.2965320
  C        0.0082920    -0.3313460    -0.5624280
  C       -2.5008011    -1.4771195     0.8596049
  C       -4.7090750     0.3554230    -0.5595870
  C        3.3545870     0.8742710     0.4380940
  C        2.3120420    -0.0450080    -0.1482500
  C        4.7580620     0.3036620     0.3135630
  H       -3.3290990     1.8240090     0.2046860
  H       -3.9789780     0.7461160     1.4360390
  H       -1.2730680     1.4248330    -0.6509560
  H        0.2030610    -0.4353830    -1.6357720
  H        0.0474490    -1.3311670    -0.1253770
  H       -2.7951440    -1.4155820     1.9226690
  H       -3.3106690    -2.0257820     0.3507100
  H       -1.6004590    -2.0681310     0.7873000
  H       -5.0436390    -0.6667330    -0.3605950
  H       -4.3535760     0.4008270    -1.5926810
  H       -5.5777020     1.0147490    -0.4669260
  H        3.2685340     1.8407540    -0.0713220
  H        3.0874670     1.0628020     1.4826470
  H        4.8339620    -0.6514900     0.8358700
  H        5.0104170     0.1293290    -0.7342450
  H        5.4905370     0.9935700     0.7404870
units angstrom
no_reorient  #important for SAPT in psi4, default
symmetry c1  #important for SAPT in psi4, default
}

set PROPERTIES_ORIGIN ["COM"]
properties('MP2/aug-cc-pvtz', properties = ['dipole'])
--------------------------------------------------------------------------

    Molecular point group: c1
  Charge       = 0
  Multiplicity = 1
  Basis Set: AUG-CC-PVTZ
    Blend: AUG-CC-PVTZ
  Basis Set: (AUG-CC-PVTZ AUX)
    Blend: AUG-CC-PVTZ-JKFIT

    Orbital Energies [Eh]
    ---------------------

    Doubly Occupied:

       1A    -20.597237     2A    -20.540728     3A    -11.375475
       4A    -11.286372     5A    -11.244284     6A    -11.242170
       7A    -11.228652     8A    -11.226799     9A    -11.222751
      10A    -11.219383    11A    -11.217852    12A     -1.448063
      13A     -1.347556    14A     -1.112480    15A     -1.063824
      16A     -1.021402    17A     -0.977901    18A     -0.919724
      19A     -0.879304    20A     -0.833406    21A     -0.767360
      22A     -0.722857    23A     -0.687952    24A     -0.680475
      25A     -0.660152    26A     -0.639436    27A     -0.623235
      28A     -0.605113    29A     -0.587082    30A     -0.572972
      31A     -0.553713    32A     -0.544573    33A     -0.534446
      34A     -0.521975    35A     -0.517393    36A     -0.513105
      37A     -0.512108    38A     -0.492306    39A     -0.484708
      40A     -0.467235    41A     -0.457376    42A     -0.444389
      43A     -0.345432

  @DF-RHF Final Energy:  -500.03807386511255

   => Energetics <=

    Nuclear Repulsion Energy =            603.1179792836071556
    One-Electron Energy =               -1876.4306007731202044
    Two-Electron Energy =                 773.2745476244004976
    Total Energy =                       -500.0380738651125512
  Basis Set: (AUG-CC-PVTZ AUX)
    Blend: AUG-CC-PVTZ-RI
    Molecular point group: c1

    Geometry (in Angstrom), charge = 0, multiplicity = 1:

       Center              X                  Y                   Z               Mass
    ------------   -----------------  -----------------  -----------------  -----------------
         O            1.070193246182     0.474828980353     0.014496901169    15.994914619570
         O            2.529679246182    -1.106347019647    -0.711596098831    15.994914619570
         C           -2.370807753818    -0.088855019647     0.299000901169    12.000000000000
         C           -3.593027853818     0.790279280353     0.401477501169    12.000000000000
         C           -1.264086753818     0.393741980353    -0.295817098831    12.000000000000
         C            0.006839246182    -0.331900019647    -0.561713098831    12.000000000000
         C           -2.502253853818    -1.477673519647     0.860319801169    12.000000000000
         C           -4.710527753818     0.354868980353    -0.558872098831    12.000000000000
         C            3.353134246182     0.873716980353     0.438808901169    12.000000000000
         C            2.310589246182    -0.045562019647    -0.147535098831    12.000000000000
         C            4.756609246182     0.303107980353     0.314277901169    12.000000000000
         H           -3.330551753818     1.823454980353     0.205400901169     1.007825032230
         H           -3.980430753818     0.745561980353     1.436753901169     1.007825032230
         H           -1.274520753818     1.424278980353    -0.650241098831     1.007825032230
         H            0.201608246182    -0.435937019647    -1.635057098831     1.007825032230
         H            0.045996246182    -1.331721019647    -0.124662098831     1.007825032230
         H           -2.796596753818    -1.416136019647     1.923383901169     1.007825032230
         H           -3.312121753818    -2.026336019647     0.351424901169     1.007825032230
         H           -1.601911753818    -2.068685019647     0.788014901169     1.007825032230
         H           -5.045091753818    -0.667287019647    -0.359880098831     1.007825032230
         H           -4.355028753818     0.400272980353    -1.591966098831     1.007825032230
         H           -5.579154753818     1.014194980353    -0.466211098831     1.007825032230
         H            3.267081246182     1.840199980353    -0.070607098831     1.007825032230
         H            3.086014246182     1.062247980353     1.483361901169     1.007825032230
         H            4.832509246182    -0.652044019647     0.836584901169     1.007825032230
         H            5.008964246182     0.128774980353    -0.733530098831     1.007825032230
         H            5.489084246182     0.993015980353     0.741201901169     1.007825032230

  Basis Set: AUG-CC-PVTZ
    Blend: AUG-CC-PVTZ
  Basis Set: (AUG-CC-PVTZ AUX)
    Blend: AUG-CC-PVTZ-JKFIT
	 Reference Energy          =    -500.0380738651125512 [Eh]
	 Singles Energy            =      -0.0000000000000000 [Eh]
	 Same-Spin Energy          =      -0.5097364227138528 [Eh]
	 Opposite-Spin Energy      =      -1.7167757510113399 [Eh]
	 Correlation Energy        =      -2.2265121737251929 [Eh]
	 Total Energy              =    -502.2645860388377628 [Eh]

	 ================> DF-SCS-MP2 Energies <==================
	-----------------------------------------------------------
	 SCS Same-Spin Scale       =       0.3333333333333333 [-]
	 SCS Opposite-Spin Scale   =       1.2000000000000000 [-]
	 SCS Same-Spin Energy      =      -0.1699121409046176 [Eh]
	 SCS Opposite-Spin Energy  =      -2.0601309012136078 [Eh]
	 SCS Correlation Energy    =      -2.2300430421182256 [Eh]
	 SCS Total Energy          =    -502.2681169072307625 [Eh]
	-----------------------------------------------------------

  Dipole Moment: [D]
     X:    -1.4495      Y:     1.1846      Z:     0.8298     Total:     2.0477

*** Psi4 exiting successfully. Buy a developer a beer!
