                               Psi4 1.3.2 release

  ==> Input File <==

--------------------------------------------------------------------------
#psi4
#
memory 32 gb

molecule  {
0 1
  O        1.0716460     0.4753830     0.0137820
  O        2.5311320    -1.1057930    -0.7123110
  C       -2.3693550    -0.0883010     0.2982860
  C       -3.5980660     0.7810210     0.4066790
  C       -1.2626340     0.3942960    -0.2965320
  C        0.0033747    -0.3419267    -0.5567394
  C       -2.5132090    -1.4745150     0.8629900
  C       -4.7090750     0.3554230    -0.5595870
  C        3.3545870     0.8742710     0.4380940
  C        2.3120420    -0.0450080    -0.1482500
  C        4.7580620     0.3036620     0.3135630
  H       -3.3290990     1.8240090     0.2046860
  H       -3.9789780     0.7461160     1.4360390
  H       -1.2819417     1.4258254    -0.6476815
  H        0.2030610    -0.4353830    -1.6357720
  H        0.0474490    -1.3311670    -0.1253770
  H       -2.7951440    -1.4155820     1.9226690
  H       -3.3106690    -2.0257820     0.3507100
  H       -1.6004590    -2.0681310     0.7873000
  H       -5.0436390    -0.6667330    -0.3605950
  H       -4.3535760     0.4008270    -1.5926810
  H       -5.5777020     1.0147490    -0.4669260
  H        3.2685340     1.8407540    -0.0713220
  H        3.0874670     1.0628020     1.4826470
  H        4.8339620    -0.6514900     0.8358700
  H        5.0104170     0.1293290    -0.7342450
  H        5.4905370     0.9935700     0.7404870
units angstrom
no_reorient  #important for SAPT in psi4, default
symmetry c1  #important for SAPT in psi4, default
}

set PROPERTIES_ORIGIN ["COM"]
properties('MP2/aug-cc-pvtz', properties = ['dipole'])
--------------------------------------------------------------------------

    Molecular point group: c1
  Charge       = 0
  Multiplicity = 1
  Basis Set: AUG-CC-PVTZ
    Blend: AUG-CC-PVTZ
  Basis Set: (AUG-CC-PVTZ AUX)
    Blend: AUG-CC-PVTZ-JKFIT

    Orbital Energies [Eh]
    ---------------------

    Doubly Occupied:

       1A    -20.596555     2A    -20.540282     3A    -11.374993
       4A    -11.286818     5A    -11.244118     6A    -11.241866
       7A    -11.228515     8A    -11.226595     9A    -11.223498
      10A    -11.219318    11A    -11.217640    12A     -1.446529
      13A     -1.346470    14A     -1.112843    15A     -1.063488
      16A     -1.021989    17A     -0.977887    18A     -0.919635
      19A     -0.879153    20A     -0.833756    21A     -0.766817
      22A     -0.722403    23A     -0.687152    24A     -0.679654
      25A     -0.659455    26A     -0.638356    27A     -0.623789
      28A     -0.605071    29A     -0.588108    30A     -0.574291
      31A     -0.553411    32A     -0.544389    33A     -0.533718
      34A     -0.521865    35A     -0.517320    36A     -0.514325
      37A     -0.512948    38A     -0.492271    39A     -0.484025
      40A     -0.466293    41A     -0.457583    42A     -0.444062
      43A     -0.346048

  @DF-RHF Final Energy:  -500.03811902615462

   => Energetics <=

    Nuclear Repulsion Energy =            603.0167958323839912
    One-Electron Energy =               -1876.2392252984623155
    Two-Electron Energy =                 773.1843104399235926
    Total Energy =                       -500.0381190261546180
  Basis Set: (AUG-CC-PVTZ AUX)
    Blend: AUG-CC-PVTZ-RI
    Molecular point group: c1

    Geometry (in Angstrom), charge = 0, multiplicity = 1:

       Center              X                  Y                   Z               Mass
    ------------   -----------------  -----------------  -----------------  -----------------
         O            1.072081189562     0.476189911679     0.013323527130    15.994914619570
         O            2.531567189562    -1.104986088321    -0.712769472870    15.994914619570
         C           -2.368919810438    -0.087494088321     0.297827527130    12.000000000000
         C           -3.597630810438     0.781827911679     0.406220527130    12.000000000000
         C           -1.262198810438     0.395102911679    -0.296990472870    12.000000000000
         C            0.003809889562    -0.341119788321    -0.557197872870    12.000000000000
         C           -2.512773810438    -1.473708088321     0.862531527130    12.000000000000
         C           -4.708639810438     0.356229911679    -0.560045472870    12.000000000000
         C            3.355022189562     0.875077911679     0.437635527130    12.000000000000
         C            2.312477189562    -0.044201088321    -0.148708472870    12.000000000000
         C            4.758497189562     0.304468911679     0.313104527130    12.000000000000
         H           -3.328663810438     1.824815911679     0.204227527130     1.007825032230
         H           -3.978542810438     0.746922911679     1.435580527130     1.007825032230
         H           -1.281506510438     1.426632311679    -0.648139972870     1.007825032230
         H            0.203496189562    -0.434576088321    -1.636230472870     1.007825032230
         H            0.047884189562    -1.330360088321    -0.125835472870     1.007825032230
         H           -2.794708810438    -1.414775088321     1.922210527130     1.007825032230
         H           -3.310233810438    -2.024975088321     0.350251527130     1.007825032230
         H           -1.600023810438    -2.067324088321     0.786841527130     1.007825032230
         H           -5.043203810438    -0.665926088321    -0.361053472870     1.007825032230
         H           -4.353140810438     0.401633911679    -1.593139472870     1.007825032230
         H           -5.577266810438     1.015555911679    -0.467384472870     1.007825032230
         H            3.268969189562     1.841560911679    -0.071780472870     1.007825032230
         H            3.087902189562     1.063608911679     1.482188527130     1.007825032230
         H            4.834397189562    -0.650683088321     0.835411527130     1.007825032230
         H            5.010852189562     0.130135911679    -0.734703472870     1.007825032230
         H            5.490972189562     0.994376911679     0.740028527130     1.007825032230

  Basis Set: AUG-CC-PVTZ
    Blend: AUG-CC-PVTZ
  Basis Set: (AUG-CC-PVTZ AUX)
    Blend: AUG-CC-PVTZ-JKFIT
	 Reference Energy          =    -500.0381190261546180 [Eh]
	 Singles Energy            =      -0.0000000000000000 [Eh]
	 Same-Spin Energy          =      -0.5097773966848682 [Eh]
	 Opposite-Spin Energy      =      -1.7169054976476659 [Eh]
	 Correlation Energy        =      -2.2266828943325341 [Eh]
	 Total Energy              =    -502.2648019204871730 [Eh]

	 ================> DF-SCS-MP2 Energies <==================
	-----------------------------------------------------------
	 SCS Same-Spin Scale       =       0.3333333333333333 [-]
	 SCS Opposite-Spin Scale   =       1.2000000000000000 [-]
	 SCS Same-Spin Energy      =      -0.1699257988949561 [Eh]
	 SCS Opposite-Spin Energy  =      -2.0602865971771989 [Eh]
	 SCS Correlation Energy    =      -2.2302123960721549 [Eh]
	 SCS Total Energy          =    -502.2683314222267654 [Eh]
	-----------------------------------------------------------

  Dipole Moment: [D]
     X:    -1.4782      Y:     1.1686      Z:     0.8371     Total:     2.0619

*** Psi4 exiting successfully. Buy a developer a beer!
