                               Psi4 1.3.2 release

  ==> Input File <==

--------------------------------------------------------------------------
#psi4
#
memory 32 gb

molecule  {
0 1
  O        1.0716460     0.4753830     0.0137820
  O        2.5206653    -1.1070844    -0.7138471
  C       -2.3693550    -0.0883010     0.2982860
  C       -3.5980660     0.7810210     0.4066790
  C       -1.2626340     0.3942960    -0.2965320
  C        0.0082920    -0.3313460    -0.5624280
  C       -2.5132090    -1.4745150     0.8629900
  C       -4.7090750     0.3554230    -0.5595870
  C        3.3450760     0.8825492     0.4418785
  C        2.3120420    -0.0450080    -0.1482500
  C        4.7580620     0.3036620     0.3135630
  H       -3.3290990     1.8240090     0.2046860
  H       -3.9789780     0.7461160     1.4360390
  H       -1.2730680     1.4248330    -0.6509560
  H        0.2030610    -0.4353830    -1.6357720
  H        0.0474490    -1.3311670    -0.1253770
  H       -2.7951440    -1.4155820     1.9226690
  H       -3.3106690    -2.0257820     0.3507100
  H       -1.6004590    -2.0681310     0.7873000
  H       -5.0436390    -0.6667330    -0.3605950
  H       -4.3535760     0.4008270    -1.5926810
  H       -5.5777020     1.0147490    -0.4669260
  H        3.2685340     1.8407540    -0.0713220
  H        3.0874670     1.0628020     1.4826470
  H        4.8339620    -0.6514900     0.8358700
  H        5.0104170     0.1293290    -0.7342450
  H        5.4905370     0.9935700     0.7404870
units angstrom
no_reorient  #important for SAPT in psi4, default
symmetry c1  #important for SAPT in psi4, default
}

set PROPERTIES_ORIGIN ["COM"]
properties('MP2/aug-cc-pvtz', properties = ['dipole'])
--------------------------------------------------------------------------

    Molecular point group: c1
  Charge       = 0
  Multiplicity = 1
  Basis Set: AUG-CC-PVTZ
    Blend: AUG-CC-PVTZ
  Basis Set: (AUG-CC-PVTZ AUX)
    Blend: AUG-CC-PVTZ-JKFIT

    Orbital Energies [Eh]
    ---------------------

    Doubly Occupied:

       1A    -20.596432     2A    -20.541048     3A    -11.375636
       4A    -11.285958     5A    -11.243967     6A    -11.242176
       7A    -11.228237     8A    -11.226201     9A    -11.223011
      10A    -11.219059    11A    -11.218704    12A     -1.448241
      13A     -1.346994    14A     -1.112271    15A     -1.063269
      16A     -1.021232    17A     -0.977591    18A     -0.919381
      19A     -0.879329    20A     -0.833486    21A     -0.767493
      22A     -0.722832    23A     -0.687657    24A     -0.679978
      25A     -0.660300    26A     -0.639094    27A     -0.623583
      28A     -0.605413    29A     -0.587755    30A     -0.574087
      31A     -0.552491    32A     -0.544098    33A     -0.533476
      34A     -0.519857    35A     -0.518297    36A     -0.513578
      37A     -0.511786    38A     -0.494919    39A     -0.483732
      40A     -0.465412    41A     -0.457016    42A     -0.445112
      43A     -0.345803

  @DF-RHF Final Energy:  -500.03819870102382

   => Energetics <=

    Nuclear Repulsion Energy =            603.1008915358750073
    One-Electron Energy =               -1876.4061998391578072
    Two-Electron Energy =                 773.2671096022589836
    Total Energy =                       -500.0381987010238163
  Basis Set: (AUG-CC-PVTZ AUX)
    Blend: AUG-CC-PVTZ-RI
    Molecular point group: c1

    Geometry (in Angstrom), charge = 0, multiplicity = 1:

       Center              X                  Y                   Z               Mass
    ------------   -----------------  -----------------  -----------------  -----------------
         O            1.073449380928     0.474879014182     0.013648410080    15.994914619570
         O            2.522468680928    -1.107588385818    -0.713980689920    15.994914619570
         C           -2.367551619072    -0.088804985818     0.298152410080    12.000000000000
         C           -3.596262619072     0.780517014182     0.406545410080    12.000000000000
         C           -1.260830619072     0.393792014182    -0.296665589920    12.000000000000
         C            0.010095380928    -0.331849985818    -0.562561589920    12.000000000000
         C           -2.511405619072    -1.475018985818     0.862856410080    12.000000000000
         C           -4.707271619072     0.354919014182    -0.559720589920    12.000000000000
         C            3.346879380928     0.882045214182     0.441744910080    12.000000000000
         C            2.313845380928    -0.045511985818    -0.148383589920    12.000000000000
         C            4.759865380928     0.303158014182     0.313429410080    12.000000000000
         H           -3.327295619072     1.823505014182     0.204552410080     1.007825032230
         H           -3.977174619072     0.745612014182     1.435905410080     1.007825032230
         H           -1.271264619072     1.424329014182    -0.651089589920     1.007825032230
         H            0.204864380928    -0.435886985818    -1.635905589920     1.007825032230
         H            0.049252380928    -1.331670985818    -0.125510589920     1.007825032230
         H           -2.793340619072    -1.416085985818     1.922535410080     1.007825032230
         H           -3.308865619072    -2.026285985818     0.350576410080     1.007825032230
         H           -1.598655619072    -2.068634985818     0.787166410080     1.007825032230
         H           -5.041835619072    -0.667236985818    -0.360728589920     1.007825032230
         H           -4.351772619072     0.400323014182    -1.592814589920     1.007825032230
         H           -5.575898619072     1.014245014182    -0.467059589920     1.007825032230
         H            3.270337380928     1.840250014182    -0.071455589920     1.007825032230
         H            3.089270380928     1.062298014182     1.482513410080     1.007825032230
         H            4.835765380928    -0.651993985818     0.835736410080     1.007825032230
         H            5.012220380928     0.128825014182    -0.734378589920     1.007825032230
         H            5.492340380928     0.993066014182     0.740353410080     1.007825032230

  Basis Set: AUG-CC-PVTZ
    Blend: AUG-CC-PVTZ
  Basis Set: (AUG-CC-PVTZ AUX)
    Blend: AUG-CC-PVTZ-JKFIT
	 Reference Energy          =    -500.0381987010238163 [Eh]
	 Singles Energy            =      -0.0000000000000000 [Eh]
	 Same-Spin Energy          =      -0.5097144917892588 [Eh]
	 Opposite-Spin Energy      =      -1.7168231814376569 [Eh]
	 Correlation Energy        =      -2.2265376732269155 [Eh]
	 Total Energy              =    -502.2647363742507309 [Eh]

	 ================> DF-SCS-MP2 Energies <==================
	-----------------------------------------------------------
	 SCS Same-Spin Scale       =       0.3333333333333333 [-]
	 SCS Opposite-Spin Scale   =       1.2000000000000000 [-]
	 SCS Same-Spin Energy      =      -0.1699048305964196 [Eh]
	 SCS Opposite-Spin Energy  =      -2.0601878177251880 [Eh]
	 SCS Correlation Energy    =      -2.2300926483216075 [Eh]
	 SCS Total Energy          =    -502.2682913493454180 [Eh]
	-----------------------------------------------------------

  Dipole Moment: [D]
     X:    -1.4128      Y:     1.1888      Z:     0.8367     Total:     2.0271

*** Psi4 exiting successfully. Buy a developer a beer!
