                               Psi4 1.3.2 release

  ==> Input File <==

--------------------------------------------------------------------------
#psi4
#
memory 32 gb

molecule  {
0 1
  O        1.0716460     0.4753830     0.0137820
  O        2.5311320    -1.1057930    -0.7123110
  C       -2.3693550    -0.0883010     0.2982860
  C       -3.5980660     0.7810210     0.4066790
  C       -1.2670006     0.3840751    -0.2898271
  C        0.0082920    -0.3313460    -0.5624280
  C       -2.5132090    -1.4745150     0.8629900
  C       -4.7090750     0.3554230    -0.5595870
  C        3.3545870     0.8742710     0.4380940
  C        2.3120420    -0.0450080    -0.1482500
  C        4.7580620     0.3036620     0.3135630
  H       -3.3290990     1.8240090     0.2046860
  H       -3.9789780     0.7461160     1.4360390
  H       -1.2730680     1.4248330    -0.6509560
  H        0.2030610    -0.4353830    -1.6357720
  H        0.0386915    -1.3299170    -0.1218366
  H       -2.7951440    -1.4155820     1.9226690
  H       -3.3106690    -2.0257820     0.3507100
  H       -1.6004590    -2.0681310     0.7873000
  H       -5.0436390    -0.6667330    -0.3605950
  H       -4.3535760     0.4008270    -1.5926810
  H       -5.5777020     1.0147490    -0.4669260
  H        3.2685340     1.8407540    -0.0713220
  H        3.0874670     1.0628020     1.4826470
  H        4.8339620    -0.6514900     0.8358700
  H        5.0104170     0.1293290    -0.7342450
  H        5.4905370     0.9935700     0.7404870
units angstrom
no_reorient  #important for SAPT in psi4, default
symmetry c1  #important for SAPT in psi4, default
}

set PROPERTIES_ORIGIN ["COM"]
properties('MP2/aug-cc-pvtz', properties = ['dipole'])
--------------------------------------------------------------------------

    Molecular point group: c1
  Charge       = 0
  Multiplicity = 1
  Basis Set: AUG-CC-PVTZ
    Blend: AUG-CC-PVTZ
  Basis Set: (AUG-CC-PVTZ AUX)
    Blend: AUG-CC-PVTZ-JKFIT

    Orbital Energies [Eh]
    ---------------------

    Doubly Occupied:

       1A    -20.597685     2A    -20.540848     3A    -11.375700
       4A    -11.286751     5A    -11.242677     6A    -11.242300
       7A    -11.228476     8A    -11.226076     9A    -11.222933
      10A    -11.219251    11A    -11.217936    12A     -1.448275
      13A     -1.347712    14A     -1.113781    15A     -1.063983
      16A     -1.022083    17A     -0.977838    18A     -0.920225
      19A     -0.879370    20A     -0.834049    21A     -0.767358
      22A     -0.721711    23A     -0.687528    24A     -0.680526
      25A     -0.660099    26A     -0.638706    27A     -0.623951
      28A     -0.605317    29A     -0.587984    30A     -0.574689
      31A     -0.552864    32A     -0.544811    33A     -0.533717
      34A     -0.522006    35A     -0.517306    36A     -0.514736
      37A     -0.511222    38A     -0.492352    39A     -0.484169
      40A     -0.464440    41A     -0.457220    42A     -0.444643
      43A     -0.348453

  @DF-RHF Final Energy:  -500.03849675989790

   => Energetics <=

    Nuclear Repulsion Energy =            603.2032830551472671
    One-Electron Energy =               -1876.5960443435874367
    Two-Electron Energy =                 773.3542645285422168
    Total Energy =                       -500.0384967598979529
  Basis Set: (AUG-CC-PVTZ AUX)
    Blend: AUG-CC-PVTZ-RI
    Molecular point group: c1

    Geometry (in Angstrom), charge = 0, multiplicity = 1:

       Center              X                  Y                   Z               Mass
    ------------   -----------------  -----------------  -----------------  -----------------
         O            1.072038109089     0.476160592172     0.013243691251    15.994914619570
         O            2.531524109089    -1.105015407828    -0.712849308749    15.994914619570
         C           -2.368962890911    -0.087523407828     0.297747691251    12.000000000000
         C           -3.597673890911     0.781798592172     0.406140691251    12.000000000000
         C           -1.266608490911     0.384852692172    -0.290365408749    12.000000000000
         C            0.008684109089    -0.330568407828    -0.562966308749    12.000000000000
         C           -2.512816890911    -1.473737407828     0.862451691251    12.000000000000
         C           -4.708682890911     0.356200592172    -0.560125308749    12.000000000000
         C            3.354979109089     0.875048592172     0.437555691251    12.000000000000
         C            2.312434109089    -0.044230407828    -0.148788308749    12.000000000000
         C            4.758454109089     0.304439592172     0.313024691251    12.000000000000
         H           -3.328706890911     1.824786592172     0.204147691251     1.007825032230
         H           -3.978585890911     0.746893592172     1.435500691251     1.007825032230
         H           -1.272675890911     1.425610592172    -0.651494308749     1.007825032230
         H            0.203453109089    -0.434605407828    -1.636310308749     1.007825032230
         H            0.039083609089    -1.329139407828    -0.122374908749     1.007825032230
         H           -2.794751890911    -1.414804407828     1.922130691251     1.007825032230
         H           -3.310276890911    -2.025004407828     0.350171691251     1.007825032230
         H           -1.600066890911    -2.067353407828     0.786761691251     1.007825032230
         H           -5.043246890911    -0.665955407828    -0.361133308749     1.007825032230
         H           -4.353183890911     0.401604592172    -1.593219308749     1.007825032230
         H           -5.577309890911     1.015526592172    -0.467464308749     1.007825032230
         H            3.268926109089     1.841531592172    -0.071860308749     1.007825032230
         H            3.087859109089     1.063579592172     1.482108691251     1.007825032230
         H            4.834354109089    -0.650712407828     0.835331691251     1.007825032230
         H            5.010809109089     0.130106592172    -0.734783308749     1.007825032230
         H            5.490929109089     0.994347592172     0.739948691251     1.007825032230

  Basis Set: AUG-CC-PVTZ
    Blend: AUG-CC-PVTZ
  Basis Set: (AUG-CC-PVTZ AUX)
    Blend: AUG-CC-PVTZ-JKFIT
	 Reference Energy          =    -500.0384967598978960 [Eh]
	 Singles Energy            =      -0.0000000000000000 [Eh]
	 Same-Spin Energy          =      -0.5096760451336866 [Eh]
	 Opposite-Spin Energy      =      -1.7166380190007344 [Eh]
	 Correlation Energy        =      -2.2263140641344208 [Eh]
	 Total Energy              =    -502.2648108240323381 [Eh]

	 ================> DF-SCS-MP2 Energies <==================
	-----------------------------------------------------------
	 SCS Same-Spin Scale       =       0.3333333333333333 [-]
	 SCS Opposite-Spin Scale   =       1.2000000000000000 [-]
	 SCS Same-Spin Energy      =      -0.1698920150445622 [Eh]
	 SCS Opposite-Spin Energy  =      -2.0599656228008811 [Eh]
	 SCS Correlation Energy    =      -2.2298576378454431 [Eh]
	 SCS Total Energy          =    -502.2683543977433374 [Eh]
	-----------------------------------------------------------

  Dipole Moment: [D]
     X:    -1.4448      Y:     1.1804      Z:     0.8317     Total:     2.0427

*** Psi4 exiting successfully. Buy a developer a beer!
