                               Psi4 1.3.2 release

  ==> Input File <==

--------------------------------------------------------------------------
#psi4
#
memory 32 gb

molecule  {
0 1
  O        1.0763505     0.4847698     0.0192178
  O        2.5311320    -1.1057930    -0.7123110
  C       -2.3693550    -0.0883010     0.2982860
  C       -3.5980660     0.7810210     0.4066790
  C       -1.2626340     0.3942960    -0.2965320
  C        0.0082920    -0.3313460    -0.5624280
  C       -2.5132090    -1.4745150     0.8629900
  C       -4.7090750     0.3554230    -0.5595870
  C        3.3450932     0.8826569     0.4416791
  C        2.3120420    -0.0450080    -0.1482500
  C        4.7580620     0.3036620     0.3135630
  H       -3.3290990     1.8240090     0.2046860
  H       -3.9789780     0.7461160     1.4360390
  H       -1.2730680     1.4248330    -0.6509560
  H        0.2030610    -0.4353830    -1.6357720
  H        0.0474490    -1.3311670    -0.1253770
  H       -2.7951440    -1.4155820     1.9226690
  H       -3.3106690    -2.0257820     0.3507100
  H       -1.6004590    -2.0681310     0.7873000
  H       -5.0436390    -0.6667330    -0.3605950
  H       -4.3535760     0.4008270    -1.5926810
  H       -5.5777020     1.0147490    -0.4669260
  H        3.2685340     1.8407540    -0.0713220
  H        3.0874670     1.0628020     1.4826470
  H        4.8339620    -0.6514900     0.8358700
  H        5.0104170     0.1293290    -0.7342450
  H        5.4905370     0.9935700     0.7404870
units angstrom
no_reorient  #important for SAPT in psi4, default
symmetry c1  #important for SAPT in psi4, default
}

set PROPERTIES_ORIGIN ["COM"]
properties('MP2/aug-cc-pvtz', properties = ['dipole'])
--------------------------------------------------------------------------

    Molecular point group: c1
  Charge       = 0
  Multiplicity = 1
  Basis Set: AUG-CC-PVTZ
    Blend: AUG-CC-PVTZ
  Basis Set: (AUG-CC-PVTZ AUX)
    Blend: AUG-CC-PVTZ-JKFIT

    Orbital Energies [Eh]
    ---------------------

    Doubly Occupied:

       1A    -20.597557     2A    -20.541300     3A    -11.375273
       4A    -11.287528     5A    -11.244556     6A    -11.240723
       7A    -11.228608     8A    -11.226670     9A    -11.223601
      10A    -11.219375    11A    -11.217757    12A     -1.446492
      13A     -1.347104    14A     -1.112768    15A     -1.062165
      16A     -1.021427    17A     -0.977743    18A     -0.919044
      19A     -0.879105    20A     -0.833529    21A     -0.767152
      22A     -0.722603    23A     -0.686856    24A     -0.679353
      25A     -0.659991    26A     -0.639076    27A     -0.623669
      28A     -0.604801    29A     -0.587656    30A     -0.574172
      31A     -0.553022    32A     -0.544860    33A     -0.533935
      34A     -0.519392    35A     -0.517909    36A     -0.513438
      37A     -0.511677    38A     -0.494434    39A     -0.484103
      40A     -0.466033    41A     -0.458191    42A     -0.444616
      43A     -0.346284

  @DF-RHF Final Energy:  -500.03752749681018

   => Energetics <=

    Nuclear Repulsion Energy =            602.8418962435433741
    One-Electron Energy =               -1875.8877516576546896
    Two-Electron Energy =                 773.0083279173012443
    Total Energy =                       -500.0375274968101849
  Basis Set: (AUG-CC-PVTZ AUX)
    Blend: AUG-CC-PVTZ-RI
    Molecular point group: c1

    Geometry (in Angstrom), charge = 0, multiplicity = 1:

       Center              X                  Y                   Z               Mass
    ------------   -----------------  -----------------  -----------------  -----------------
         O            1.076598179027     0.483163490482     0.018385224560    15.994914619570
         O            2.531379679027    -1.107399309518    -0.713143575440    15.994914619570
         C           -2.369107320973    -0.089907309518     0.297453424560    12.000000000000
         C           -3.597818320973     0.779414690482     0.405846424560    12.000000000000
         C           -1.262386320973     0.392689690482    -0.297364575440    12.000000000000
         C            0.008539679027    -0.332952309518    -0.563260575440    12.000000000000
         C           -2.512961320973    -1.476121309518     0.862157424560    12.000000000000
         C           -4.708827320973     0.353816690482    -0.560419575440    12.000000000000
         C            3.345340879027     0.881050590482     0.440846524560    12.000000000000
         C            2.312289679027    -0.046614309518    -0.149082575440    12.000000000000
         C            4.758309679027     0.302055690482     0.312730424560    12.000000000000
         H           -3.328851320973     1.822402690482     0.203853424560     1.007825032230
         H           -3.978730320973     0.744509690482     1.435206424560     1.007825032230
         H           -1.272820320973     1.423226690482    -0.651788575440     1.007825032230
         H            0.203308679027    -0.436989309518    -1.636604575440     1.007825032230
         H            0.047696679027    -1.332773309518    -0.126209575440     1.007825032230
         H           -2.794896320973    -1.417188309518     1.921836424560     1.007825032230
         H           -3.310421320973    -2.027388309518     0.349877424560     1.007825032230
         H           -1.600211320973    -2.069737309518     0.786467424560     1.007825032230
         H           -5.043391320973    -0.668339309518    -0.361427575440     1.007825032230
         H           -4.353328320973     0.399220690482    -1.593513575440     1.007825032230
         H           -5.577454320973     1.013142690482    -0.467758575440     1.007825032230
         H            3.268781679027     1.839147690482    -0.072154575440     1.007825032230
         H            3.087714679027     1.061195690482     1.481814424560     1.007825032230
         H            4.834209679027    -0.653096309518     0.835037424560     1.007825032230
         H            5.010664679027     0.127722690482    -0.735077575440     1.007825032230
         H            5.490784679027     0.991963690482     0.739654424560     1.007825032230

  Basis Set: AUG-CC-PVTZ
    Blend: AUG-CC-PVTZ
  Basis Set: (AUG-CC-PVTZ AUX)
    Blend: AUG-CC-PVTZ-JKFIT
	 Reference Energy          =    -500.0375274968101849 [Eh]
	 Singles Energy            =      -0.0000000000000000 [Eh]
	 Same-Spin Energy          =      -0.5098180304537291 [Eh]
	 Opposite-Spin Energy      =      -1.7171879186261656 [Eh]
	 Correlation Energy        =      -2.2270059490798948 [Eh]
	 Total Energy              =    -502.2645334458900948 [Eh]

	 ================> DF-SCS-MP2 Energies <==================
	-----------------------------------------------------------
	 SCS Same-Spin Scale       =       0.3333333333333333 [-]
	 SCS Opposite-Spin Scale   =       1.2000000000000000 [-]
	 SCS Same-Spin Energy      =      -0.1699393434845763 [Eh]
	 SCS Opposite-Spin Energy  =      -2.0606255023513986 [Eh]
	 SCS Correlation Energy    =      -2.2305648458359748 [Eh]
	 SCS Total Energy          =    -502.2680923426461845 [Eh]
	-----------------------------------------------------------

  Dipole Moment: [D]
     X:    -1.4979      Y:     1.1580      Z:     0.8154     Total:     2.0615

*** Psi4 exiting successfully. Buy a developer a beer!
