                               Psi4 1.3.2 release

  ==> Input File <==

--------------------------------------------------------------------------
#psi4
#
memory 32 gb

molecule  {
0 1
  O        1.0716460     0.4753830     0.0137820
  O        2.5311320    -1.1057930    -0.7123110
  C       -2.3693550    -0.0883010     0.2982860
  C       -3.5980660     0.7810210     0.4066790
  C       -1.2626340     0.3942960    -0.2965320
  C        0.0082920    -0.3313460    -0.5624280
  C       -2.5132090    -1.4745150     0.8629900
  C       -4.7090750     0.3554230    -0.5595870
  C        3.3545870     0.8742710     0.4380940
  C        2.3120420    -0.0450080    -0.1482500
  C        4.7580620     0.3036620     0.3135630
  H       -3.3290990     1.8240090     0.2046860
  H       -3.9789780     0.7461160     1.4360390
  H       -1.2730680     1.4248330    -0.6509560
  H        0.2030610    -0.4353830    -1.6357720
  H        0.0546214    -1.5143055    -0.0453218
  H       -2.7951440    -1.4155820     1.9226690
  H       -3.3106690    -2.0257820     0.3507100
  H       -1.6004590    -2.0681310     0.7873000
  H       -5.0436390    -0.6667330    -0.3605950
  H       -4.3535760     0.4008270    -1.5926810
  H       -5.5777020     1.0147490    -0.4669260
  H        3.2685340     1.8407540    -0.0713220
  H        3.0874670     1.0628020     1.4826470
  H        4.8339620    -0.6514900     0.8358700
  H        5.0104170     0.1293290    -0.7342450
  H        5.4905370     0.9935700     0.7404870
units angstrom
no_reorient  #important for SAPT in psi4, default
symmetry c1  #important for SAPT in psi4, default
}

set PROPERTIES_ORIGIN ["COM"]
properties('MP2/aug-cc-pvtz', properties = ['dipole'])
--------------------------------------------------------------------------

    Molecular point group: c1
  Charge       = 0
  Multiplicity = 1
  Basis Set: AUG-CC-PVTZ
    Blend: AUG-CC-PVTZ
  Basis Set: (AUG-CC-PVTZ AUX)
    Blend: AUG-CC-PVTZ-JKFIT

    Orbital Energies [Eh]
    ---------------------

    Doubly Occupied:

       1A    -20.600310     2A    -20.540897     3A    -11.375823
       4A    -11.307453     5A    -11.245026     6A    -11.242589
       7A    -11.228726     8A    -11.224961     9A    -11.224694
      10A    -11.219377    11A    -11.218097    12A     -1.449141
      13A     -1.348138    14A     -1.112017    15A     -1.063637
      16A     -1.019781    17A     -0.976022    18A     -0.918324
      19A     -0.877471    20A     -0.830575    21A     -0.761269
      22A     -0.719130    23A     -0.688188    24A     -0.674527
      25A     -0.659787    26A     -0.638265    27A     -0.623887
      28A     -0.601704    29A     -0.587799    30A     -0.574329
      31A     -0.550632    32A     -0.544528    33A     -0.529950
      34A     -0.522569    35A     -0.517717    36A     -0.514431
      37A     -0.505207    38A     -0.488994    39A     -0.484025
      40A     -0.465205    41A     -0.450073    42A     -0.441086
      43A     -0.346605

  @DF-RHF Final Energy:  -500.01615913092451

   => Energetics <=

    Nuclear Repulsion Energy =            602.2183663470597139
    One-Electron Energy =               -1874.6431222215419439
    Two-Electron Energy =                 772.4085967435578368
    Total Energy =                       -500.0161591309245068
  Basis Set: (AUG-CC-PVTZ AUX)
    Blend: AUG-CC-PVTZ-RI
    Molecular point group: c1

    Geometry (in Angstrom), charge = 0, multiplicity = 1:

       Center              X                  Y                   Z               Mass
    ------------   -----------------  -----------------  -----------------  -----------------
         O            1.071599626311     0.476565297254     0.013265119484    15.994914619570
         O            2.531085626311    -1.104610702746    -0.712827880516    15.994914619570
         C           -2.369401373689    -0.087118702746     0.297769119484    12.000000000000
         C           -3.598112373689     0.782203297254     0.406162119484    12.000000000000
         C           -1.262680373689     0.395478297254    -0.297048880516    12.000000000000
         C            0.008245626311    -0.330163702746    -0.562944880516    12.000000000000
         C           -2.513255373689    -1.473332702746     0.862473119484    12.000000000000
         C           -4.709121373689     0.356605297254    -0.560103880516    12.000000000000
         C            3.354540626311     0.875453297254     0.437577119484    12.000000000000
         C            2.311995626311    -0.043825702746    -0.148766880516    12.000000000000
         C            4.758015626311     0.304844297254     0.313046119484    12.000000000000
         H           -3.329145373689     1.825191297254     0.204169119484     1.007825032230
         H           -3.979024373689     0.747298297254     1.435522119484     1.007825032230
         H           -1.273114373689     1.426015297254    -0.651472880516     1.007825032230
         H            0.203014626311    -0.434200702746    -1.636288880516     1.007825032230
         H            0.054575026311    -1.513123202746    -0.045838680516     1.007825032230
         H           -2.795190373689    -1.414399702746     1.922152119484     1.007825032230
         H           -3.310715373689    -2.024599702746     0.350193119484     1.007825032230
         H           -1.600505373689    -2.066948702746     0.786783119484     1.007825032230
         H           -5.043685373689    -0.665550702746    -0.361111880516     1.007825032230
         H           -4.353622373689     0.402009297254    -1.593197880516     1.007825032230
         H           -5.577748373689     1.015931297254    -0.467442880516     1.007825032230
         H            3.268487626311     1.841936297254    -0.071838880516     1.007825032230
         H            3.087420626311     1.063984297254     1.482130119484     1.007825032230
         H            4.833915626311    -0.650307702746     0.835353119484     1.007825032230
         H            5.010370626311     0.130511297254    -0.734761880516     1.007825032230
         H            5.490490626311     0.994752297254     0.739970119484     1.007825032230

  Basis Set: AUG-CC-PVTZ
    Blend: AUG-CC-PVTZ
  Basis Set: (AUG-CC-PVTZ AUX)
    Blend: AUG-CC-PVTZ-JKFIT
	 Reference Energy          =    -500.0161591309245068 [Eh]
	 Singles Energy            =      -0.0000000000000000 [Eh]
	 Same-Spin Energy          =      -0.5106517402161770 [Eh]
	 Opposite-Spin Energy      =      -1.7194568153444063 [Eh]
	 Correlation Energy        =      -2.2301085555605833 [Eh]
	 Total Energy              =    -502.2462676864851119 [Eh]

	 ================> DF-SCS-MP2 Energies <==================
	-----------------------------------------------------------
	 SCS Same-Spin Scale       =       0.3333333333333333 [-]
	 SCS Opposite-Spin Scale   =       1.2000000000000000 [-]
	 SCS Same-Spin Energy      =      -0.1702172467387257 [Eh]
	 SCS Opposite-Spin Energy  =      -2.0633481784132877 [Eh]
	 SCS Correlation Energy    =      -2.2335654251520132 [Eh]
	 SCS Total Energy          =    -502.2497245560765009 [Eh]
	-----------------------------------------------------------

  Dipole Moment: [D]
     X:    -1.4131      Y:     1.2760      Z:     0.8074     Total:     2.0681

*** Psi4 exiting successfully. Buy a developer a beer!
