                               Psi4 1.3.2 release

  ==> Input File <==

--------------------------------------------------------------------------
#psi4
#
memory 32 gb

molecule  {
0 1
  O        1.0716460     0.4753830     0.0137820
  O        2.5311320    -1.1057930    -0.7123110
  C       -2.3900347    -0.0466244     0.2917677
  C       -3.5980660     0.7810210     0.4066790
  C       -1.2626340     0.3942960    -0.2965320
  C        0.0082920    -0.3313460    -0.5624280
  C       -2.5132090    -1.4745150     0.8629900
  C       -4.7090750     0.3554230    -0.5595870
  C        3.3545870     0.8742710     0.4380940
  C        2.3120420    -0.0450080    -0.1482500
  C        4.7580620     0.3036620     0.3135630
  H       -3.3290990     1.8240090     0.2046860
  H       -3.9789780     0.7461160     1.4360390
  H       -1.3087959     1.4281167    -0.6383148
  H        0.2030610    -0.4353830    -1.6357720
  H        0.0474490    -1.3311670    -0.1253770
  H       -2.7951440    -1.4155820     1.9226690
  H       -3.3106690    -2.0257820     0.3507100
  H       -1.6004590    -2.0681310     0.7873000
  H       -5.0436390    -0.6667330    -0.3605950
  H       -4.3535760     0.4008270    -1.5926810
  H       -5.5777020     1.0147490    -0.4669260
  H        3.2685340     1.8407540    -0.0713220
  H        3.0874670     1.0628020     1.4826470
  H        4.8339620    -0.6514900     0.8358700
  H        5.0104170     0.1293290    -0.7342450
  H        5.4905370     0.9935700     0.7404870
units angstrom
no_reorient  #important for SAPT in psi4, default
symmetry c1  #important for SAPT in psi4, default
}

set PROPERTIES_ORIGIN ["COM"]
properties('MP2/aug-cc-pvtz', properties = ['dipole'])
--------------------------------------------------------------------------

    Molecular point group: c1
  Charge       = 0
  Multiplicity = 1
  Basis Set: AUG-CC-PVTZ
    Blend: AUG-CC-PVTZ
  Basis Set: (AUG-CC-PVTZ AUX)
    Blend: AUG-CC-PVTZ-JKFIT

    Orbital Energies [Eh]
    ---------------------

    Doubly Occupied:

       1A    -20.597903     2A    -20.541139     3A    -11.375922
       4A    -11.288725     5A    -11.243994     6A    -11.242404
       7A    -11.227262     8A    -11.226458     9A    -11.222989
      10A    -11.220302    11A    -11.218020    12A     -1.448620
      13A     -1.348029    14A     -1.114213    15A     -1.064521
      16A     -1.023176    17A     -0.972943    18A     -0.920352
      19A     -0.881503    20A     -0.837151    21A     -0.767705
      22A     -0.720678    23A     -0.688029    24A     -0.680526
      25A     -0.661033    26A     -0.637829    27A     -0.626623
      28A     -0.604923    29A     -0.588490    30A     -0.572605
      31A     -0.551291    32A     -0.545114    33A     -0.532715
      34A     -0.521367    35A     -0.517028    36A     -0.515427
      37A     -0.511707    38A     -0.492576    39A     -0.485850
      40A     -0.466939    41A     -0.457648    42A     -0.444796
      43A     -0.345887

  @DF-RHF Final Energy:  -500.03587720092662

   => Energetics <=

    Nuclear Repulsion Energy =            603.0354236740062106
    One-Electron Energy =               -1876.2377792622403376
    Two-Electron Energy =                 773.1664783873076203
    Total Energy =                       -500.0358772009266204
  Basis Set: (AUG-CC-PVTZ AUX)
    Blend: AUG-CC-PVTZ-RI
    Molecular point group: c1

    Geometry (in Angstrom), charge = 0, multiplicity = 1:

       Center              X                  Y                   Z               Mass
    ------------   -----------------  -----------------  -----------------  -----------------
         O            1.073466149968     0.472158289416     0.014201359364    15.994914619570
         O            2.532952149968    -1.109017710584    -0.711891640636    15.994914619570
         C           -2.388214550032    -0.049849110584     0.292187059364    12.000000000000
         C           -3.596245850032     0.777796289416     0.407098359364    12.000000000000
         C           -1.260813850032     0.391071289416    -0.296112640636    12.000000000000
         C            0.010112149968    -0.334570710584    -0.562008640636    12.000000000000
         C           -2.511388850032    -1.477739710584     0.863409359364    12.000000000000
         C           -4.707254850032     0.352198289416    -0.559167640636    12.000000000000
         C            3.356407149968     0.871046289416     0.438513359364    12.000000000000
         C            2.313862149968    -0.048232710584    -0.147830640636    12.000000000000
         C            4.759882149968     0.300437289416     0.313982359364    12.000000000000
         H           -3.327278850032     1.820784289416     0.205105359364     1.007825032230
         H           -3.977157850032     0.742891289416     1.436458359364     1.007825032230
         H           -1.306975750032     1.424891989416    -0.637895440636     1.007825032230
         H            0.204881149968    -0.438607710584    -1.635352640636     1.007825032230
         H            0.049269149968    -1.334391710584    -0.124957640636     1.007825032230
         H           -2.793323850032    -1.418806710584     1.923088359364     1.007825032230
         H           -3.308848850032    -2.029006710584     0.351129359364     1.007825032230
         H           -1.598638850032    -2.071355710584     0.787719359364     1.007825032230
         H           -5.041818850032    -0.669957710584    -0.360175640636     1.007825032230
         H           -4.351755850032     0.397602289416    -1.592261640636     1.007825032230
         H           -5.575881850032     1.011524289416    -0.466506640636     1.007825032230
         H            3.270354149968     1.837529289416    -0.070902640636     1.007825032230
         H            3.089287149968     1.059577289416     1.483066359364     1.007825032230
         H            4.835782149968    -0.654714710584     0.836289359364     1.007825032230
         H            5.012237149968     0.126104289416    -0.733825640636     1.007825032230
         H            5.492357149968     0.990345289416     0.740906359364     1.007825032230

  Basis Set: AUG-CC-PVTZ
    Blend: AUG-CC-PVTZ
  Basis Set: (AUG-CC-PVTZ AUX)
    Blend: AUG-CC-PVTZ-JKFIT
	 Reference Energy          =    -500.0358772009266204 [Eh]
	 Singles Energy            =      -0.0000000000000000 [Eh]
	 Same-Spin Energy          =      -0.5099259187256681 [Eh]
	 Opposite-Spin Energy      =      -1.7170976770323385 [Eh]
	 Correlation Energy        =      -2.2270235957580065 [Eh]
	 Total Energy              =    -502.2629007966846189 [Eh]

	 ================> DF-SCS-MP2 Energies <==================
	-----------------------------------------------------------
	 SCS Same-Spin Scale       =       0.3333333333333333 [-]
	 SCS Opposite-Spin Scale   =       1.2000000000000000 [-]
	 SCS Same-Spin Energy      =      -0.1699753062418893 [Eh]
	 SCS Opposite-Spin Energy  =      -2.0605172124388060 [Eh]
	 SCS Correlation Energy    =      -2.2304925186806952 [Eh]
	 SCS Total Energy          =    -502.2663697196073258 [Eh]
	-----------------------------------------------------------

  Dipole Moment: [D]
     X:    -1.4563      Y:     1.2213      Z:     0.8142     Total:     2.0677

*** Psi4 exiting successfully. Buy a developer a beer!
