                               Psi4 1.3.2 release

  ==> Input File <==

--------------------------------------------------------------------------
#psi4
#
memory 32 gb

molecule  {
0 1
  O        1.0367602     0.5090214     0.0288310
  O        2.5311320    -1.1057930    -0.7123110
  C       -2.3693550    -0.0883010     0.2982860
  C       -3.5980660     0.7810210     0.4066790
  C       -1.2353746     0.4313751    -0.2724973
  C        0.0082920    -0.3313460    -0.5624280
  C       -2.5132090    -1.4745150     0.8629900
  C       -4.7090750     0.3554230    -0.5595870
  C        3.3545870     0.8742710     0.4380940
  C        2.3120420    -0.0450080    -0.1482500
  C        4.7580620     0.3036620     0.3135630
  H       -3.3290990     1.8240090     0.2046860
  H       -3.9789780     0.7461160     1.4360390
  H       -1.2730680     1.4248330    -0.6509560
  H        0.2030610    -0.4353830    -1.6357720
  H        0.0474490    -1.3311670    -0.1253770
  H       -2.7951440    -1.4155820     1.9226690
  H       -3.3106690    -2.0257820     0.3507100
  H       -1.6004590    -2.0681310     0.7873000
  H       -5.0436390    -0.6667330    -0.3605950
  H       -4.3535760     0.4008270    -1.5926810
  H       -5.5777020     1.0147490    -0.4669260
  H        3.2685340     1.8407540    -0.0713220
  H        3.0874670     1.0628020     1.4826470
  H        4.8339620    -0.6514900     0.8358700
  H        5.0104170     0.1293290    -0.7342450
  H        5.4905370     0.9935700     0.7404870
units angstrom
no_reorient  #important for SAPT in psi4, default
symmetry c1  #important for SAPT in psi4, default
}

set PROPERTIES_ORIGIN ["COM"]
properties('MP2/aug-cc-pvtz', properties = ['dipole'])
--------------------------------------------------------------------------

    Molecular point group: c1
  Charge       = 0
  Multiplicity = 1
  Basis Set: AUG-CC-PVTZ
    Blend: AUG-CC-PVTZ
  Basis Set: (AUG-CC-PVTZ AUX)
    Blend: AUG-CC-PVTZ-JKFIT

    Orbital Energies [Eh]
    ---------------------

    Doubly Occupied:

       1A    -20.595326     2A    -20.550058     3A    -11.381439
       4A    -11.283365     5A    -11.245263     6A    -11.244132
       7A    -11.226622     8A    -11.225739     9A    -11.221692
      10A    -11.219477    11A    -11.217977    12A     -1.436007
      13A     -1.349684    14A     -1.106948    15A     -1.064395
      16A     -1.018194    17A     -0.975261    18A     -0.915126
      19A     -0.879191    20A     -0.829820    21A     -0.765437
      22A     -0.722647    23A     -0.687526    24A     -0.675551
      25A     -0.657658    26A     -0.637383    27A     -0.621665
      28A     -0.603710    29A     -0.587302    30A     -0.571649
      31A     -0.551732    32A     -0.543491    33A     -0.534101
      34A     -0.523493    35A     -0.520503    36A     -0.516496
      37A     -0.511408    38A     -0.493695    39A     -0.481550
      40A     -0.466412    41A     -0.459402    42A     -0.446004
      43A     -0.337676

  @DF-RHF Final Energy:  -500.02896780406047

   => Energetics <=

    Nuclear Repulsion Energy =            602.0581830974915647
    One-Electron Energy =               -1874.3698855442264630
    Two-Electron Energy =                 772.2827346426744271
    Total Energy =                       -500.0289678040604713
  Basis Set: (AUG-CC-PVTZ AUX)
    Blend: AUG-CC-PVTZ-RI
    Molecular point group: c1

    Geometry (in Angstrom), charge = 0, multiplicity = 1:

       Center              X                  Y                   Z               Mass
    ------------   -----------------  -----------------  -----------------  -----------------
         O            1.038239054965     0.502724826690     0.025441607873    15.994914619570
         O            2.532610854965    -1.112089573310    -0.715700392127    15.994914619570
         C           -2.367876145035    -0.094597573310     0.294896607873    12.000000000000
         C           -3.596587145035     0.774724426690     0.403289607873    12.000000000000
         C           -1.233895745035     0.425078526690    -0.275886692127    12.000000000000
         C            0.009770854965    -0.337642573310    -0.565817392127    12.000000000000
         C           -2.511730145035    -1.480811573310     0.859600607873    12.000000000000
         C           -4.707596145035     0.349126426690    -0.562976392127    12.000000000000
         C            3.356065854965     0.867974426690     0.434704607873    12.000000000000
         C            2.313520854965    -0.051304573310    -0.151639392127    12.000000000000
         C            4.759540854965     0.297365426690     0.310173607873    12.000000000000
         H           -3.327620145035     1.817712426690     0.201296607873     1.007825032230
         H           -3.977499145035     0.739819426690     1.432649607873     1.007825032230
         H           -1.271589145035     1.418536426690    -0.654345392127     1.007825032230
         H            0.204539854965    -0.441679573310    -1.639161392127     1.007825032230
         H            0.048927854965    -1.337463573310    -0.128766392127     1.007825032230
         H           -2.793665145035    -1.421878573310     1.919279607873     1.007825032230
         H           -3.309190145035    -2.032078573310     0.347320607873     1.007825032230
         H           -1.598980145035    -2.074427573310     0.783910607873     1.007825032230
         H           -5.042160145035    -0.673029573310    -0.363984392127     1.007825032230
         H           -4.352097145035     0.394530426690    -1.596070392127     1.007825032230
         H           -5.576223145035     1.008452426690    -0.470315392127     1.007825032230
         H            3.270012854965     1.834457426690    -0.074711392127     1.007825032230
         H            3.088945854965     1.056505426690     1.479257607873     1.007825032230
         H            4.835440854965    -0.657786573310     0.832480607873     1.007825032230
         H            5.011895854965     0.123032426690    -0.737634392127     1.007825032230
         H            5.492015854965     0.987273426690     0.737097607873     1.007825032230

  Basis Set: AUG-CC-PVTZ
    Blend: AUG-CC-PVTZ
  Basis Set: (AUG-CC-PVTZ AUX)
    Blend: AUG-CC-PVTZ-JKFIT
	 Reference Energy          =    -500.0289678040604713 [Eh]
	 Singles Energy            =      -0.0000000000000000 [Eh]
	 Same-Spin Energy          =      -0.5109698456682049 [Eh]
	 Opposite-Spin Energy      =      -1.7199898149153092 [Eh]
	 Correlation Energy        =      -2.2309596605835140 [Eh]
	 Total Energy              =    -502.2599274646439653 [Eh]

	 ================> DF-SCS-MP2 Energies <==================
	-----------------------------------------------------------
	 SCS Same-Spin Scale       =       0.3333333333333333 [-]
	 SCS Opposite-Spin Scale   =       1.2000000000000000 [-]
	 SCS Same-Spin Energy      =      -0.1703232818894016 [Eh]
	 SCS Opposite-Spin Energy  =      -2.0639877778983711 [Eh]
	 SCS Correlation Energy    =      -2.2343110597877729 [Eh]
	 SCS Total Energy          =    -502.2632788638482566 [Eh]
	-----------------------------------------------------------

  Dipole Moment: [D]
     X:    -1.1130      Y:     1.0593      Z:     0.7434     Total:     1.7069

*** Psi4 exiting successfully. Buy a developer a beer!
