                               Psi4 1.3.2 release

  ==> Input File <==

--------------------------------------------------------------------------
#psi4
#
memory 32 gb

molecule  {
0 1
  O        1.0716460     0.4753830     0.0137820
  O        2.5101828    -1.1082949    -0.7153401
  C       -2.3693550    -0.0883010     0.2982860
  C       -3.5980660     0.7810210     0.4066790
  C       -1.2626340     0.3942960    -0.2965320
  C        0.0082920    -0.3313460    -0.5624280
  C       -2.5132090    -1.4745150     0.8629900
  C       -4.7090750     0.3554230    -0.5595870
  C        3.3354864     0.8907567     0.4456180
  C        2.3120420    -0.0450080    -0.1482500
  C        4.7580620     0.3036620     0.3135630
  H       -3.3290990     1.8240090     0.2046860
  H       -3.9789780     0.7461160     1.4360390
  H       -1.2730680     1.4248330    -0.6509560
  H        0.2030610    -0.4353830    -1.6357720
  H        0.0474490    -1.3311670    -0.1253770
  H       -2.7951440    -1.4155820     1.9226690
  H       -3.3106690    -2.0257820     0.3507100
  H       -1.6004590    -2.0681310     0.7873000
  H       -5.0436390    -0.6667330    -0.3605950
  H       -4.3535760     0.4008270    -1.5926810
  H       -5.5777020     1.0147490    -0.4669260
  H        3.2685340     1.8407540    -0.0713220
  H        3.0874670     1.0628020     1.4826470
  H        4.8339620    -0.6514900     0.8358700
  H        5.0104170     0.1293290    -0.7342450
  H        5.4905370     0.9935700     0.7404870
units angstrom
no_reorient  #important for SAPT in psi4, default
symmetry c1  #important for SAPT in psi4, default
}

set PROPERTIES_ORIGIN ["COM"]
properties('MP2/aug-cc-pvtz', properties = ['dipole'])
--------------------------------------------------------------------------

    Molecular point group: c1
  Charge       = 0
  Multiplicity = 1
  Basis Set: AUG-CC-PVTZ
    Blend: AUG-CC-PVTZ
  Basis Set: (AUG-CC-PVTZ AUX)
    Blend: AUG-CC-PVTZ-JKFIT

    Orbital Energies [Eh]
    ---------------------

    Doubly Occupied:

       1A    -20.595561     2A    -20.541334     3A    -11.375778
       4A    -11.285410     5A    -11.243667     6A    -11.242209
       7A    -11.228051     8A    -11.225995     9A    -11.222730
      10A    -11.219535    11A    -11.218905    12A     -1.448386
      13A     -1.346395    14A     -1.112035    15A     -1.062700
      16A     -1.020675    17A     -0.977216    18A     -0.919105
      19A     -0.879530    20A     -0.833439    21A     -0.767571
      22A     -0.722972    23A     -0.687470    24A     -0.679949
      25A     -0.660474    26A     -0.639626    27A     -0.623425
      28A     -0.605657    29A     -0.587481    30A     -0.573752
      31A     -0.552169    32A     -0.543658    33A     -0.533272
      34A     -0.519270    35A     -0.518084    36A     -0.512683
      37A     -0.510699    38A     -0.497343    39A     -0.483534
      40A     -0.465128    41A     -0.456726    42A     -0.445709
      43A     -0.345507

  @DF-RHF Final Energy:  -500.03758907186847

   => Energetics <=

    Nuclear Repulsion Energy =            603.1272751265730676
    One-Electron Energy =               -1876.4680970706012886
    Two-Electron Energy =                 773.3032328721596969
    Total Energy =                       -500.0375890718685241
  Basis Set: (AUG-CC-PVTZ AUX)
    Blend: AUG-CC-PVTZ-RI
    Molecular point group: c1

    Geometry (in Angstrom), charge = 0, multiplicity = 1:

       Center              X                  Y                   Z               Mass
    ------------   -----------------  -----------------  -----------------  -----------------
         O            1.075260493497     0.474372156156     0.013513934927    15.994914619570
         O            2.513797293497    -1.109305743844    -0.715608165073    15.994914619570
         C           -2.365740506503    -0.089311843844     0.298017934927    12.000000000000
         C           -3.594451506503     0.780010156156     0.406410934927    12.000000000000
         C           -1.259019506503     0.393285156156    -0.296800065073    12.000000000000
         C            0.011906493497    -0.332356843844    -0.562696065073    12.000000000000
         C           -2.509594506503    -1.475525843844     0.862721934927    12.000000000000
         C           -4.705460506503     0.354412156156    -0.559855065073    12.000000000000
         C            3.339100893497     0.889745856156     0.445349934927    12.000000000000
         C            2.315656493497    -0.046018843844    -0.148518065073    12.000000000000
         C            4.761676493497     0.302651156156     0.313294934927    12.000000000000
         H           -3.325484506503     1.822998156156     0.204417934927     1.007825032230
         H           -3.975363506503     0.745105156156     1.435770934927     1.007825032230
         H           -1.269453506503     1.423822156156    -0.651224065073     1.007825032230
         H            0.206675493497    -0.436393843844    -1.636040065073     1.007825032230
         H            0.051063493497    -1.332177843844    -0.125645065073     1.007825032230
         H           -2.791529506503    -1.416592843844     1.922400934927     1.007825032230
         H           -3.307054506503    -2.026792843844     0.350441934927     1.007825032230
         H           -1.596844506503    -2.069141843844     0.787031934927     1.007825032230
         H           -5.040024506503    -0.667743843844    -0.360863065073     1.007825032230
         H           -4.349961506503     0.399816156156    -1.592949065073     1.007825032230
         H           -5.574087506503     1.013738156156    -0.467194065073     1.007825032230
         H            3.272148493497     1.839743156156    -0.071590065073     1.007825032230
         H            3.091081493497     1.061791156156     1.482378934927     1.007825032230
         H            4.837576493497    -0.652500843844     0.835601934927     1.007825032230
         H            5.014031493497     0.128318156156    -0.734513065073     1.007825032230
         H            5.494151493497     0.992559156156     0.740218934927     1.007825032230

  Basis Set: AUG-CC-PVTZ
    Blend: AUG-CC-PVTZ
  Basis Set: (AUG-CC-PVTZ AUX)
    Blend: AUG-CC-PVTZ-JKFIT
	 Reference Energy          =    -500.0375890718684673 [Eh]
	 Singles Energy            =      -0.0000000000000000 [Eh]
	 Same-Spin Energy          =      -0.5096888497621205 [Eh]
	 Opposite-Spin Energy      =      -1.7168551251926374 [Eh]
	 Correlation Energy        =      -2.2265439749547578 [Eh]
	 Total Energy              =    -502.2641330468232468 [Eh]

	 ================> DF-SCS-MP2 Energies <==================
	-----------------------------------------------------------
	 SCS Same-Spin Scale       =       0.3333333333333333 [-]
	 SCS Opposite-Spin Scale   =       1.2000000000000000 [-]
	 SCS Same-Spin Energy      =      -0.1698962832540402 [Eh]
	 SCS Opposite-Spin Energy  =      -2.0602261502311650 [Eh]
	 SCS Correlation Energy    =      -2.2301224334852052 [Eh]
	 SCS Total Energy          =    -502.2677115053536454 [Eh]
	-----------------------------------------------------------

  Dipole Moment: [D]
     X:    -1.3781      Y:     1.1951      Z:     0.8411     Total:     2.0088

*** Psi4 exiting successfully. Buy a developer a beer!
