                               Psi4 1.3.2 release

  ==> Input File <==

--------------------------------------------------------------------------
#psi4
#
memory 32 gb

molecule  {
0 1
  O        1.0716460     0.4753830     0.0137820
  O        2.5415820    -1.1044208    -0.7107320
  C       -2.3693550    -0.0883010     0.2982860
  C       -3.5980660     0.7810210     0.4066790
  C       -1.2626340     0.3942960    -0.2965320
  C        0.0082920    -0.3313460    -0.5624280
  C       -2.5132090    -1.4745150     0.8629900
  C       -4.7090750     0.3554230    -0.5595870
  C        3.3640186     0.8659228     0.4342649
  C        2.3120420    -0.0450080    -0.1482500
  C        4.7580620     0.3036620     0.3135630
  H       -3.3290990     1.8240090     0.2046860
  H       -3.9789780     0.7461160     1.4360390
  H       -1.2730680     1.4248330    -0.6509560
  H        0.2030610    -0.4353830    -1.6357720
  H        0.0474490    -1.3311670    -0.1253770
  H       -2.7951440    -1.4155820     1.9226690
  H       -3.3106690    -2.0257820     0.3507100
  H       -1.6004590    -2.0681310     0.7873000
  H       -5.0436390    -0.6667330    -0.3605950
  H       -4.3535760     0.4008270    -1.5926810
  H       -5.5777020     1.0147490    -0.4669260
  H        3.2685340     1.8407540    -0.0713220
  H        3.0874670     1.0628020     1.4826470
  H        4.8339620    -0.6514900     0.8358700
  H        5.0104170     0.1293290    -0.7342450
  H        5.4905370     0.9935700     0.7404870
units angstrom
no_reorient  #important for SAPT in psi4, default
symmetry c1  #important for SAPT in psi4, default
}

set PROPERTIES_ORIGIN ["COM"]
properties('MP2/aug-cc-pvtz', properties = ['dipole'])
--------------------------------------------------------------------------

    Molecular point group: c1
  Charge       = 0
  Multiplicity = 1
  Basis Set: AUG-CC-PVTZ
    Blend: AUG-CC-PVTZ
  Basis Set: (AUG-CC-PVTZ AUX)
    Blend: AUG-CC-PVTZ-JKFIT

    Orbital Energies [Eh]
    ---------------------

    Doubly Occupied:

       1A    -20.598179     2A    -20.540466     3A    -11.375416
       4A    -11.287056     5A    -11.244566     6A    -11.242257
       7A    -11.228607     8A    -11.226614     9A    -11.223572
      10A    -11.219365    11A    -11.217021    12A     -1.448014
      13A     -1.348208    14A     -1.112745    15A     -1.064621
      16A     -1.022369    17A     -0.978339    18A     -0.919935
      19A     -0.878933    20A     -0.833586    21A     -0.767371
      22A     -0.722548    23A     -0.687991    24A     -0.680128
      25A     -0.660036    26A     -0.638217    27A     -0.623900
      28A     -0.605000    29A     -0.588347    30A     -0.574797
      31A     -0.553234    32A     -0.545104    33A     -0.534015
      34A     -0.524912    35A     -0.516797    36A     -0.514986
      37A     -0.512216    38A     -0.489428    39A     -0.484108
      40A     -0.465972    41A     -0.457618    42A     -0.443685
      43A     -0.346393

  @DF-RHF Final Energy:  -500.03808579367330

   => Energetics <=

    Nuclear Repulsion Energy =            603.0620069198033661
    One-Electron Energy =               -1876.3068416090509345
    Two-Electron Energy =                 773.2067488955741510
    Total Energy =                       -500.0380857936733037
  Basis Set: (AUG-CC-PVTZ AUX)
    Blend: AUG-CC-PVTZ-RI
    Molecular point group: c1

    Geometry (in Angstrom), charge = 0, multiplicity = 1:

       Center              X                  Y                   Z               Mass
    ------------   -----------------  -----------------  -----------------  -----------------
         O            1.069850291004     0.475884123976     0.013914479539    15.994914619570
         O            2.539786291004    -1.103919676024    -0.710599520461    15.994914619570
         C           -2.371150708996    -0.087799876024     0.298418479539    12.000000000000
         C           -3.599861708996     0.781522123976     0.406811479539    12.000000000000
         C           -1.264429708996     0.394797123976    -0.296399520461    12.000000000000
         C            0.006496291004    -0.330844876024    -0.562295520461    12.000000000000
         C           -2.515004708996    -1.474013876024     0.863122479539    12.000000000000
         C           -4.710870708996     0.355924123976    -0.559454520461    12.000000000000
         C            3.362222891004     0.866423923976     0.434397379539    12.000000000000
         C            2.310246291004    -0.044506876024    -0.148117520461    12.000000000000
         C            4.756266291004     0.304163123976     0.313695479539    12.000000000000
         H           -3.330894708996     1.824510123976     0.204818479539     1.007825032230
         H           -3.980773708996     0.746617123976     1.436171479539     1.007825032230
         H           -1.274863708996     1.425334123976    -0.650823520461     1.007825032230
         H            0.201265291004    -0.434881876024    -1.635639520461     1.007825032230
         H            0.045653291004    -1.330665876024    -0.125244520461     1.007825032230
         H           -2.796939708996    -1.415080876024     1.922801479539     1.007825032230
         H           -3.312464708996    -2.025280876024     0.350842479539     1.007825032230
         H           -1.602254708996    -2.067629876024     0.787432479539     1.007825032230
         H           -5.045434708996    -0.666231876024    -0.360462520461     1.007825032230
         H           -4.355371708996     0.401328123976    -1.592548520461     1.007825032230
         H           -5.579497708996     1.015250123976    -0.466793520461     1.007825032230
         H            3.266738291004     1.841255123976    -0.071189520461     1.007825032230
         H            3.085671291004     1.063303123976     1.482779479539     1.007825032230
         H            4.832166291004    -0.650988876024     0.836002479539     1.007825032230
         H            5.008621291004     0.129830123976    -0.734112520461     1.007825032230
         H            5.488741291004     0.994071123976     0.740619479539     1.007825032230

  Basis Set: AUG-CC-PVTZ
    Blend: AUG-CC-PVTZ
  Basis Set: (AUG-CC-PVTZ AUX)
    Blend: AUG-CC-PVTZ-JKFIT
	 Reference Energy          =    -500.0380857936733037 [Eh]
	 Singles Energy            =      -0.0000000000000000 [Eh]
	 Same-Spin Energy          =      -0.5098140956962572 [Eh]
	 Opposite-Spin Energy      =      -1.7168566323853041 [Eh]
	 Correlation Energy        =      -2.2266707280815612 [Eh]
	 Total Energy              =    -502.2647565217548618 [Eh]

	 ================> DF-SCS-MP2 Energies <==================
	-----------------------------------------------------------
	 SCS Same-Spin Scale       =       0.3333333333333333 [-]
	 SCS Opposite-Spin Scale   =       1.2000000000000000 [-]
	 SCS Same-Spin Energy      =      -0.1699380318987524 [Eh]
	 SCS Opposite-Spin Energy  =      -2.0602279588623649 [Eh]
	 SCS Correlation Energy    =      -2.2301659907611171 [Eh]
	 SCS Total Energy          =    -502.2682517844344261 [Eh]
	-----------------------------------------------------------

  Dipole Moment: [D]
     X:    -1.4814      Y:     1.1744      Z:     0.8270     Total:     2.0634

*** Psi4 exiting successfully. Buy a developer a beer!
