                               Psi4 1.4a3.dev225

  ==> Input File <==

--------------------------------------------------------------------------
#psi4
#
memory 32 gb

molecule  {
0 1
  O       -1.1411000    -0.4541930    -0.0251880
  O       -2.5814580     1.1752260    -0.6867450
  C        2.3134570     0.0186930     0.2462000
  C        3.5222300    -0.8802230     0.3222130
  C        1.1937340    -0.4134970    -0.3651820
  C       -0.0647290     0.3542590    -0.5783780
  C        2.4850690     1.3863280     0.8546590
  C        4.7190700    -0.3405130    -0.4677320
  C       -3.4286640    -0.8122060     0.4327630
  C       -2.3749380     0.0938890    -0.1583950
  C       -4.8282690    -0.2261570     0.3119590
  H        3.2581340    -1.8761120    -0.0507320
  H        3.8122360    -1.0018650     1.3748590
  H        1.1815530    -1.4238220    -0.7735790
  H       -0.2705280     0.5138520    -1.6430550
  H       -0.0712974     1.3150791    -0.1038502
  H        3.0182560     1.3061200     1.8081990
  H        3.0814560     2.0379150     0.2067330
  H        1.5342700     1.8877430     1.0433380
  H        5.0646870     0.6170420    -0.0694620
  H        4.4484560    -0.1949880    -1.5176090
  H        5.5583810    -1.0408350    -0.4253590
  H       -3.3536290    -1.7820470    -0.0715700
  H       -3.1585900    -0.9983310     1.4781360
  H       -4.8922970     0.7333770     0.8287030
  H       -5.0879650    -0.0561110    -0.7346540
  H       -5.5642940    -0.9066400     0.7478690
units angstrom
no_reorient  #important for SAPT in psi4, default
symmetry c1  #important for SAPT in psi4, default
}

set PROPERTIES_ORIGIN ["COM"]
properties('MP2/aug-cc-pvtz', properties = ['dipole'])
--------------------------------------------------------------------------

    Molecular point group: c1
  Charge       = 0
  Multiplicity = 1
  Basis Set: AUG-CC-PVTZ
    Blend: AUG-CC-PVTZ
  Basis Set: (AUG-CC-PVTZ AUX)
    Blend: AUG-CC-PVTZ-JKFIT

    Orbital Energies [Eh]
    ---------------------

    Doubly Occupied:

       1A    -20.596980     2A    -20.540854     3A    -11.375724
       4A    -11.284592     5A    -11.244506     6A    -11.242593
       7A    -11.228611     8A    -11.226294     9A    -11.223402
      10A    -11.219304    11A    -11.218179    12A     -1.446951
      13A     -1.347381    14A     -1.112268    15A     -1.063124
      16A     -1.022277    17A     -0.977330    18A     -0.920598
      19A     -0.879917    20A     -0.833274    21A     -0.767801
      22A     -0.722968    23A     -0.687801    24A     -0.679960
      25A     -0.659741    26A     -0.638244    27A     -0.624069
      28A     -0.605058    29A     -0.589416    30A     -0.571871
      31A     -0.554142    32A     -0.545772    33A     -0.533876
      34A     -0.521990    35A     -0.517584    36A     -0.513449
      37A     -0.513220    38A     -0.492482    39A     -0.484624
      40A     -0.465996    41A     -0.457637    42A     -0.444337
      43A     -0.346026

  @DF-RHF Final Energy:  -500.03867596108046

   => Energetics <=

    Nuclear Repulsion Energy =            602.6016256603764987
    One-Electron Energy =               -1875.3961666619140942
    Two-Electron Energy =                 772.7558650404572518
    Total Energy =                       -500.0386759610804575
  Basis Set: (AUG-CC-PVTZ AUX)
    Blend: AUG-CC-PVTZ-RI
    Molecular point group: c1

    Geometry (in Angstrom), charge = 0, multiplicity = 1:

       Center              X                  Y                   Z               Mass
    ------------   -----------------  -----------------  -----------------  -----------------
         O           -1.086827995056    -0.459466736596    -0.011764307897    15.994914619570
         O           -2.527185995056     1.169952263404    -0.673321307897    15.994914619570
         C            2.367729004944     0.013419263404     0.259623692103    12.000000000000
         C            3.576502004944    -0.885496736596     0.335636692103    12.000000000000
         C            1.248006004944    -0.418770736596    -0.351758307897    12.000000000000
         C           -0.010456995056     0.348985263404    -0.564954307897    12.000000000000
         C            2.539341004944     1.381054263404     0.868082692103    12.000000000000
         C            4.773342004944    -0.345786736596    -0.454308307897    12.000000000000
         C           -3.374391995056    -0.817479736596     0.446186692103    12.000000000000
         C           -2.320665995056     0.088615263404    -0.144971307897    12.000000000000
         C           -4.773996995056    -0.231430736596     0.325382692103    12.000000000000
         H            3.312406004944    -1.881385736596    -0.037308307897     1.007825032230
         H            3.866508004944    -1.007138736596     1.388282692103     1.007825032230
         H            1.235825004944    -1.429095736596    -0.760155307897     1.007825032230
         H           -0.216255995056     0.508578263404    -1.629631307897     1.007825032230
         H           -0.017025395056     1.309805363404    -0.090426507897     1.007825032230
         H            3.072528004944     1.300846263404     1.821622692103     1.007825032230
         H            3.135728004944     2.032641263404     0.220156692103     1.007825032230
         H            1.588542004944     1.882469263404     1.056761692103     1.007825032230
         H            5.118959004944     0.611768263404    -0.056038307897     1.007825032230
         H            4.502728004944    -0.200261736596    -1.504185307897     1.007825032230
         H            5.612653004944    -1.046108736596    -0.411935307897     1.007825032230
         H           -3.299356995056    -1.787320736596    -0.058146307897     1.007825032230
         H           -3.104317995056    -1.003604736596     1.491559692103     1.007825032230
         H           -4.838024995056     0.728103263404     0.842126692103     1.007825032230
         H           -5.033692995056    -0.061384736596    -0.721230307897     1.007825032230
         H           -5.510021995056    -0.911913736596     0.761292692103     1.007825032230

  Basis Set: AUG-CC-PVTZ
    Blend: AUG-CC-PVTZ
  Basis Set: (AUG-CC-PVTZ AUX)
    Blend: AUG-CC-PVTZ-JKFIT
	 Reference Energy          =    -500.0386759610804575 [Eh]
	 Singles Energy            =      -0.0000000000000000 [Eh]
	 Same-Spin Energy          =      -0.5096210141615649 [Eh]
	 Opposite-Spin Energy      =      -1.7167286333369516 [Eh]
	 Correlation Energy        =      -2.2263496474985165 [Eh]
	 Total Energy              =    -502.2650256085789806 [Eh]

	 ================> DF-SCS-MP2 Energies <==================
	-----------------------------------------------------------
	 SCS Same-Spin Scale       =       0.3333333333333333 [-]
	 SCS Opposite-Spin Scale   =       1.2000000000000000 [-]
	 SCS Same-Spin Energy      =      -0.1698736713871883 [Eh]
	 SCS Opposite-Spin Energy  =      -2.0600743600043416 [Eh]
	 SCS Correlation Energy    =      -2.2299480313915301 [Eh]
	 SCS Total Energy          =    -502.2686239924719871 [Eh]
	-----------------------------------------------------------

  Dipole Moment: [D]
     X:     1.4460      Y:    -1.1929      Z:     0.8001     Total:     2.0381

*** Psi4 exiting successfully. Buy a developer a beer!
