                               Psi4 1.3.2 release

  ==> Input File <==

--------------------------------------------------------------------------
#psi4
#
memory 32 gb

molecule  {
0 1
  O        1.0537761     0.4374469    -0.0080804
  O        2.5311320    -1.1057930    -0.7123110
  C       -2.3693550    -0.0883010     0.2982860
  C       -3.5980660     0.7810210     0.4066790
  C       -1.2626340     0.3942960    -0.2965320
  C        0.0082920    -0.3313460    -0.5624280
  C       -2.5132090    -1.4745150     0.8629900
  C       -4.7090750     0.3554230    -0.5595870
  C        3.3917612     0.8400337     0.4233100
  C        2.3120420    -0.0450080    -0.1482500
  C        4.7580620     0.3036620     0.3135630
  H       -3.3290990     1.8240090     0.2046860
  H       -3.9789780     0.7461160     1.4360390
  H       -1.2730680     1.4248330    -0.6509560
  H        0.2030610    -0.4353830    -1.6357720
  H        0.0474490    -1.3311670    -0.1253770
  H       -2.7951440    -1.4155820     1.9226690
  H       -3.3106690    -2.0257820     0.3507100
  H       -1.6004590    -2.0681310     0.7873000
  H       -5.0436390    -0.6667330    -0.3605950
  H       -4.3535760     0.4008270    -1.5926810
  H       -5.5777020     1.0147490    -0.4669260
  H        3.2685340     1.8407540    -0.0713220
  H        3.0874670     1.0628020     1.4826470
  H        4.8339620    -0.6514900     0.8358700
  H        5.0104170     0.1293290    -0.7342450
  H        5.4905370     0.9935700     0.7404870
units angstrom
no_reorient  #important for SAPT in psi4, default
symmetry c1  #important for SAPT in psi4, default
}

set PROPERTIES_ORIGIN ["COM"]
properties('MP2/aug-cc-pvtz', properties = ['dipole'])
--------------------------------------------------------------------------

    Molecular point group: c1
  Charge       = 0
  Multiplicity = 1
  Basis Set: AUG-CC-PVTZ
    Blend: AUG-CC-PVTZ
  Basis Set: (AUG-CC-PVTZ AUX)
    Blend: AUG-CC-PVTZ-JKFIT

    Orbital Energies [Eh]
    ---------------------

    Doubly Occupied:

       1A    -20.596098     2A    -20.538623     3A    -11.376844
       4A    -11.282527     5A    -11.248620     6A    -11.243134
       7A    -11.227695     8A    -11.225359     9A    -11.222077
      10A    -11.218570    11A    -11.218162    12A     -1.455364
      13A     -1.349840    14A     -1.111499    15A     -1.071761
      16A     -1.023347    17A     -0.979033    18A     -0.922211
      19A     -0.879161    20A     -0.833823    21A     -0.768731
      22A     -0.723326    23A     -0.691581    24A     -0.683401
      25A     -0.661050    26A     -0.637324    27A     -0.624163
      28A     -0.607116    29A     -0.589938    30A     -0.575265
      31A     -0.553260    32A     -0.546635    33A     -0.536591
      34A     -0.531759    35A     -0.515663    36A     -0.515036
      37A     -0.510228    38A     -0.483357    39A     -0.482376
      40A     -0.464141    41A     -0.453437    42A     -0.443169
      43A     -0.345289

  @DF-RHF Final Energy:  -500.03536043308969

   => Energetics <=

    Nuclear Repulsion Energy =            604.0688781623022123
    One-Electron Energy =               -1878.2753114759609616
    Two-Electron Energy =                 774.1710728805689996
    Total Energy =                       -500.0353604330896360
  Basis Set: (AUG-CC-PVTZ AUX)
    Blend: AUG-CC-PVTZ-RI
    Molecular point group: c1

    Geometry (in Angstrom), charge = 0, multiplicity = 1:

       Center              X                  Y                   Z               Mass
    ------------   -----------------  -----------------  -----------------  -----------------
         O            1.052749459701     0.443965395294    -0.004704145711    15.994914619570
         O            2.530105359701    -1.099274504706    -0.708934745711    15.994914619570
         C           -2.370381640299    -0.081782504706     0.301662254289    12.000000000000
         C           -3.599092640299     0.787539495294     0.410055254289    12.000000000000
         C           -1.263660640299     0.400814495294    -0.293155745711    12.000000000000
         C            0.007265359701    -0.324827504706    -0.559051745711    12.000000000000
         C           -2.514235640299    -1.467996504706     0.866366254289    12.000000000000
         C           -4.710101640299     0.361941495294    -0.556210745711    12.000000000000
         C            3.390734559701     0.846552195294     0.426686254289    12.000000000000
         C            2.311015359701    -0.038489504706    -0.144873745711    12.000000000000
         C            4.757035359701     0.310180495294     0.316939254289    12.000000000000
         H           -3.330125640299     1.830527495294     0.208062254289     1.007825032230
         H           -3.980004640299     0.752634495294     1.439415254289     1.007825032230
         H           -1.274094640299     1.431351495294    -0.647579745711     1.007825032230
         H            0.202034359701    -0.428864504706    -1.632395745711     1.007825032230
         H            0.046422359701    -1.324648504706    -0.122000745711     1.007825032230
         H           -2.796170640299    -1.409063504706     1.926045254289     1.007825032230
         H           -3.311695640299    -2.019263504706     0.354086254289     1.007825032230
         H           -1.601485640299    -2.061612504706     0.790676254289     1.007825032230
         H           -5.044665640299    -0.660214504706    -0.357218745711     1.007825032230
         H           -4.354602640299     0.407345495294    -1.589304745711     1.007825032230
         H           -5.578728640299     1.021267495294    -0.463549745711     1.007825032230
         H            3.267507359701     1.847272495294    -0.067945745711     1.007825032230
         H            3.086440359701     1.069320495294     1.486023254289     1.007825032230
         H            4.832935359701    -0.644971504706     0.839246254289     1.007825032230
         H            5.009390359701     0.135847495294    -0.730868745711     1.007825032230
         H            5.489510359701     1.000088495294     0.743863254289     1.007825032230

  Basis Set: AUG-CC-PVTZ
    Blend: AUG-CC-PVTZ
  Basis Set: (AUG-CC-PVTZ AUX)
    Blend: AUG-CC-PVTZ-JKFIT
	 Reference Energy          =    -500.0353604330896928 [Eh]
	 Singles Energy            =      -0.0000000000000000 [Eh]
	 Same-Spin Energy          =      -0.5097455530851852 [Eh]
	 Opposite-Spin Energy      =      -1.7158195835933989 [Eh]
	 Correlation Energy        =      -2.2255651366785840 [Eh]
	 Total Energy              =    -502.2609255697682897 [Eh]

	 ================> DF-SCS-MP2 Energies <==================
	-----------------------------------------------------------
	 SCS Same-Spin Scale       =       0.3333333333333333 [-]
	 SCS Opposite-Spin Scale   =       1.2000000000000000 [-]
	 SCS Same-Spin Energy      =      -0.1699151843617284 [Eh]
	 SCS Opposite-Spin Energy  =      -2.0589835003120784 [Eh]
	 SCS Correlation Energy    =      -2.2288986846738070 [Eh]
	 SCS Total Energy          =    -502.2642591177635154 [Eh]
	-----------------------------------------------------------

  Dipole Moment: [D]
     X:    -1.2393      Y:     1.2792      Z:     0.9000     Total:     1.9955

*** Psi4 exiting successfully. Buy a developer a beer!
