                               Psi4 1.3.2 release

  ==> Input File <==

--------------------------------------------------------------------------
#psi4
#
memory 32 gb

molecule  {
0 1
  O        1.0716460     0.4753830     0.0137820
  O        2.5311320    -1.1057930    -0.7123110
  C       -2.3693550    -0.0883010     0.2982860
  C       -3.5980660     0.7810210     0.4066790
  C       -1.2626340     0.3942960    -0.2965320
  C        0.0082920    -0.3313460    -0.5624280
  C       -2.5132090    -1.4745150     0.8629900
  C       -4.7090750     0.3554230    -0.5595870
  C        3.3545870     0.8742710     0.4380940
  C        2.3120420    -0.0450080    -0.1482500
  C        4.7580620     0.3036620     0.3135630
  H       -3.3290990     1.8240090     0.2046860
  H       -3.9789780     0.7461160     1.4360390
  H       -1.2730680     1.4248330    -0.6509560
  H        0.2030610    -0.4353830    -1.6357720
  H        0.0474490    -1.3311670    -0.1253770
  H       -2.7951440    -1.4155820     1.9226690
  H       -3.3106690    -2.0257820     0.3507100
  H       -1.6004590    -2.0681310     0.7873000
  H       -5.0436390    -0.6667330    -0.3605950
  H       -4.3535760     0.4008270    -1.5926810
  H       -5.5777020     1.0147490    -0.4669260
  H        3.2685340     1.8407540    -0.0713220
  H        3.0386568     1.0972518     1.6735155
  H        4.8339620    -0.6514900     0.8358700
  H        5.0104170     0.1293290    -0.7342450
  H        5.4905370     0.9935700     0.7404870
units angstrom
no_reorient  #important for SAPT in psi4, default
symmetry c1  #important for SAPT in psi4, default
}

set PROPERTIES_ORIGIN ["COM"]
properties('MP2/aug-cc-pvtz', properties = ['dipole'])
--------------------------------------------------------------------------

    Molecular point group: c1
  Charge       = 0
  Multiplicity = 1
  Basis Set: AUG-CC-PVTZ
    Blend: AUG-CC-PVTZ
  Basis Set: (AUG-CC-PVTZ AUX)
    Blend: AUG-CC-PVTZ-JKFIT

    Orbital Energies [Eh]
    ---------------------

    Doubly Occupied:

       1A    -20.597139     2A    -20.542348     3A    -11.377552
       4A    -11.286505     5A    -11.264101     6A    -11.244183
       7A    -11.228333     8A    -11.226317     9A    -11.223220
      10A    -11.220116    11A    -11.219150    12A     -1.448517
      13A     -1.348564    14A     -1.112347    15A     -1.058467
      16A     -1.021208    17A     -0.977982    18A     -0.919690
      19A     -0.876740    20A     -0.832102    21A     -0.765086
      22A     -0.719953    23A     -0.687364    24A     -0.678322
      25A     -0.658517    26A     -0.631963    27A     -0.624086
      28A     -0.598666    29A     -0.587445    30A     -0.574550
      31A     -0.552953    32A     -0.544908    33A     -0.534337
      34A     -0.522722    35A     -0.516315    36A     -0.514185
      37A     -0.511522    38A     -0.483875    39A     -0.476601
      40A     -0.465568    41A     -0.457684    42A     -0.443699
      43A     -0.346042

  @DF-RHF Final Energy:  -500.01836790058240

   => Energetics <=

    Nuclear Repulsion Energy =            602.2409019624510620
    One-Electron Energy =               -1874.6766481894817389
    Two-Electron Energy =                 772.4173783264482154
    Total Energy =                       -500.0183679005824615
  Basis Set: (AUG-CC-PVTZ AUX)
    Blend: AUG-CC-PVTZ-RI
    Molecular point group: c1

    Geometry (in Angstrom), charge = 0, multiplicity = 1:

       Center              X                  Y                   Z               Mass
    ------------   -----------------  -----------------  -----------------  -----------------
         O            1.071961030756     0.475160621895     0.012549746865    15.994914619570
         O            2.531447030756    -1.106015378105    -0.713543253135    15.994914619570
         C           -2.369039969244    -0.088523378105     0.297053746865    12.000000000000
         C           -3.597750969244     0.780798621895     0.405446746865    12.000000000000
         C           -1.262318969244     0.394073621895    -0.297764253135    12.000000000000
         C            0.008607030756    -0.331568378105    -0.563660253135    12.000000000000
         C           -2.512893969244    -1.474737378105     0.861757746865    12.000000000000
         C           -4.708759969244     0.355200621895    -0.560819253135    12.000000000000
         C            3.354902030756     0.874048621895     0.436861746865    12.000000000000
         C            2.312357030756    -0.045230378105    -0.149482253135    12.000000000000
         C            4.758377030756     0.303439621895     0.312330746865    12.000000000000
         H           -3.328783969244     1.823786621895     0.203453746865     1.007825032230
         H           -3.978662969244     0.745893621895     1.434806746865     1.007825032230
         H           -1.272752969244     1.424610621895    -0.652188253135     1.007825032230
         H            0.203376030756    -0.435605378105    -1.637004253135     1.007825032230
         H            0.047764030756    -1.331389378105    -0.126609253135     1.007825032230
         H           -2.794828969244    -1.415804378105     1.921436746865     1.007825032230
         H           -3.310353969244    -2.026004378105     0.349477746865     1.007825032230
         H           -1.600143969244    -2.068353378105     0.786067746865     1.007825032230
         H           -5.043323969244    -0.666955378105    -0.361827253135     1.007825032230
         H           -4.353260969244     0.400604621895    -1.593913253135     1.007825032230
         H           -5.577386969244     1.014526621895    -0.468158253135     1.007825032230
         H            3.268849030756     1.840531621895    -0.072554253135     1.007825032230
         H            3.038971830756     1.097029421895     1.672283246865     1.007825032230
         H            4.834277030756    -0.651712378105     0.834637746865     1.007825032230
         H            5.010732030756     0.129106621895    -0.735477253135     1.007825032230
         H            5.490852030756     0.993347621895     0.739254746865     1.007825032230

  Basis Set: AUG-CC-PVTZ
    Blend: AUG-CC-PVTZ
  Basis Set: (AUG-CC-PVTZ AUX)
    Blend: AUG-CC-PVTZ-JKFIT
	 Reference Energy          =    -500.0183679005824047 [Eh]
	 Singles Energy            =      -0.0000000000000000 [Eh]
	 Same-Spin Energy          =      -0.5098623552960769 [Eh]
	 Opposite-Spin Energy      =      -1.7185204839661599 [Eh]
	 Correlation Energy        =      -2.2283828392622369 [Eh]
	 Total Energy              =    -502.2467507398446287 [Eh]

	 ================> DF-SCS-MP2 Energies <==================
	-----------------------------------------------------------
	 SCS Same-Spin Scale       =       0.3333333333333333 [-]
	 SCS Opposite-Spin Scale   =       1.2000000000000000 [-]
	 SCS Same-Spin Energy      =      -0.1699541184320256 [Eh]
	 SCS Opposite-Spin Energy  =      -2.0622245807593917 [Eh]
	 SCS Correlation Energy    =      -2.2321786991914174 [Eh]
	 SCS Total Energy          =    -502.2505465997738270 [Eh]
	-----------------------------------------------------------

  Dipole Moment: [D]
     X:    -1.4039      Y:     1.1440      Z:     0.7513     Total:     1.9607

*** Psi4 exiting successfully. Buy a developer a beer!
