                               Psi4 1.3.2 release

  ==> Input File <==

--------------------------------------------------------------------------
#psi4
#
memory 32 gb

molecule  {
0 1
  O        1.0482955     0.5334796    -0.0294920
  O        2.5311320    -1.1057930    -0.7123110
  C       -2.3693550    -0.0883010     0.2982860
  C       -3.5980660     0.7810210     0.4066790
  C       -1.2626340     0.3942960    -0.2965320
  C        0.0082920    -0.3313460    -0.5624280
  C       -2.5132090    -1.4745150     0.8629900
  C       -4.7090750     0.3554230    -0.5595870
  C        3.3545870     0.8742710     0.4380940
  C        2.3120420    -0.0450080    -0.1482500
  C        4.7580620     0.3036620     0.3135630
  H       -3.3290990     1.8240090     0.2046860
  H       -3.9789780     0.7461160     1.4360390
  H       -1.2730680     1.4248330    -0.6509560
  H        0.2030610    -0.4353830    -1.6357720
  H        0.0025272    -1.3454316    -0.1577230
  H       -2.7951440    -1.4155820     1.9226690
  H       -3.3106690    -2.0257820     0.3507100
  H       -1.6004590    -2.0681310     0.7873000
  H       -5.0436390    -0.6667330    -0.3605950
  H       -4.3535760     0.4008270    -1.5926810
  H       -5.5777020     1.0147490    -0.4669260
  H        3.2685340     1.8407540    -0.0713220
  H        3.0874670     1.0628020     1.4826470
  H        4.8339620    -0.6514900     0.8358700
  H        5.0104170     0.1293290    -0.7342450
  H        5.4905370     0.9935700     0.7404870
units angstrom
no_reorient  #important for SAPT in psi4, default
symmetry c1  #important for SAPT in psi4, default
}

set PROPERTIES_ORIGIN ["COM"]
properties('MP2/aug-cc-pvtz', properties = ['dipole'])
--------------------------------------------------------------------------

    Molecular point group: c1
  Charge       = 0
  Multiplicity = 1
  Basis Set: AUG-CC-PVTZ
    Blend: AUG-CC-PVTZ
  Basis Set: (AUG-CC-PVTZ AUX)
    Blend: AUG-CC-PVTZ-JKFIT

    Orbital Energies [Eh]
    ---------------------

    Doubly Occupied:

       1A    -20.598018     2A    -20.549323     3A    -11.381779
       4A    -11.283911     5A    -11.244553     6A    -11.241516
       7A    -11.226874     8A    -11.225410     9A    -11.220838
      10A    -11.219681    11A    -11.217999    12A     -1.438329
      13A     -1.350057    14A     -1.110367    15A     -1.064758
      16A     -1.019438    17A     -0.975342    18A     -0.917017
      19A     -0.880296    20A     -0.831370    21A     -0.766679
      22A     -0.720415    23A     -0.686340    24A     -0.676742
      25A     -0.658979    26A     -0.637153    27A     -0.622832
      28A     -0.604209    29A     -0.587520    30A     -0.573211
      31A     -0.552847    32A     -0.543617    33A     -0.532605
      34A     -0.523861    35A     -0.520633    36A     -0.515196
      37A     -0.511406    38A     -0.493786    39A     -0.482546
      40A     -0.463540    41A     -0.459179    42A     -0.447178
      43A     -0.343304

  @DF-RHF Final Energy:  -500.03209593476720

   => Energetics <=

    Nuclear Repulsion Energy =            602.2150869051553173
    One-Electron Energy =               -1874.6530583214023409
    Two-Electron Energy =                 772.4058754814797112
    Total Energy =                       -500.0320959347671987
  Basis Set: (AUG-CC-PVTZ AUX)
    Blend: AUG-CC-PVTZ-RI
    Molecular point group: c1

    Geometry (in Angstrom), charge = 0, multiplicity = 1:

       Center              X                  Y                   Z               Mass
    ------------   -----------------  -----------------  -----------------  -----------------
         O            1.050977826381     0.527619362643    -0.024849577921    15.994914619570
         O            2.533814326381    -1.111653237357    -0.707668577921    15.994914619570
         C           -2.366672673619    -0.094161237357     0.302928422079    12.000000000000
         C           -3.595383673619     0.775160762643     0.411321422079    12.000000000000
         C           -1.259951673619     0.388435762643    -0.291889577921    12.000000000000
         C            0.010974326381    -0.337206237357    -0.557785577921    12.000000000000
         C           -2.510526673619    -1.480375237357     0.867632422079    12.000000000000
         C           -4.706392673619     0.349562762643    -0.554944577921    12.000000000000
         C            3.357269326381     0.868410762643     0.442736422079    12.000000000000
         C            2.314724326381    -0.050868237357    -0.143607577921    12.000000000000
         C            4.760744326381     0.297801762643     0.318205422079    12.000000000000
         H           -3.326416673619     1.818148762643     0.209328422079     1.007825032230
         H           -3.976295673619     0.740255762643     1.440681422079     1.007825032230
         H           -1.270385673619     1.418972762643    -0.646313577921     1.007825032230
         H            0.205743326381    -0.441243237357    -1.631129577921     1.007825032230
         H            0.005209526381    -1.351291837357    -0.153080577921     1.007825032230
         H           -2.792461673619    -1.421442237357     1.927311422079     1.007825032230
         H           -3.307986673619    -2.031642237357     0.355352422079     1.007825032230
         H           -1.597776673619    -2.073991237357     0.791942422079     1.007825032230
         H           -5.040956673619    -0.672593237357    -0.355952577921     1.007825032230
         H           -4.350893673619     0.394966762643    -1.588038577921     1.007825032230
         H           -5.575019673619     1.008888762643    -0.462283577921     1.007825032230
         H            3.271216326381     1.834893762643    -0.066679577921     1.007825032230
         H            3.090149326381     1.056941762643     1.487289422079     1.007825032230
         H            4.836644326381    -0.657350237357     0.840512422079     1.007825032230
         H            5.013099326381     0.123468762643    -0.729602577921     1.007825032230
         H            5.493219326381     0.987709762643     0.745129422079     1.007825032230

  Basis Set: AUG-CC-PVTZ
    Blend: AUG-CC-PVTZ
  Basis Set: (AUG-CC-PVTZ AUX)
    Blend: AUG-CC-PVTZ-JKFIT
	 Reference Energy          =    -500.0320959347671987 [Eh]
	 Singles Energy            =      -0.0000000000000000 [Eh]
	 Same-Spin Energy          =      -0.5105560195051357 [Eh]
	 Opposite-Spin Energy      =      -1.7189129711893893 [Eh]
	 Correlation Energy        =      -2.2294689906945253 [Eh]
	 Total Energy              =    -502.2615649254616983 [Eh]

	 ================> DF-SCS-MP2 Energies <==================
	-----------------------------------------------------------
	 SCS Same-Spin Scale       =       0.3333333333333333 [-]
	 SCS Opposite-Spin Scale   =       1.2000000000000000 [-]
	 SCS Same-Spin Energy      =      -0.1701853398350452 [Eh]
	 SCS Opposite-Spin Energy  =      -2.0626955654272670 [Eh]
	 SCS Correlation Energy    =      -2.2328809052623120 [Eh]
	 SCS Total Energy          =    -502.2649768400295329 [Eh]
	-----------------------------------------------------------

  Dipole Moment: [D]
     X:    -1.1286      Y:     1.0505      Z:     0.8522     Total:     1.7617

*** Psi4 exiting successfully. Buy a developer a beer!
