                               Psi4 1.3.2 release

  ==> Input File <==

--------------------------------------------------------------------------
#psi4
#
memory 32 gb

molecule  {
0 1
  O        1.0801667     0.4668182     0.0099093
  O        2.5311320    -1.1057930    -0.7123110
  C       -2.3693550    -0.0883010     0.2982860
  C       -3.5980660     0.7810210     0.4066790
  C       -1.2692082     0.3848863    -0.3025924
  C        0.0082920    -0.3313460    -0.5624280
  C       -2.5132090    -1.4745150     0.8629900
  C       -4.7090750     0.3554230    -0.5595870
  C        3.3545870     0.8742710     0.4380940
  C        2.3120420    -0.0450080    -0.1482500
  C        4.7580620     0.3036620     0.3135630
  H       -3.3290990     1.8240090     0.2046860
  H       -3.9789780     0.7461160     1.4360390
  H       -1.2730680     1.4248330    -0.6509560
  H        0.2030610    -0.4353830    -1.6357720
  H        0.0474490    -1.3311670    -0.1253770
  H       -2.7951440    -1.4155820     1.9226690
  H       -3.3106690    -2.0257820     0.3507100
  H       -1.6004590    -2.0681310     0.7873000
  H       -5.0436390    -0.6667330    -0.3605950
  H       -4.3535760     0.4008270    -1.5926810
  H       -5.5777020     1.0147490    -0.4669260
  H        3.2685340     1.8407540    -0.0713220
  H        3.0874670     1.0628020     1.4826470
  H        4.8339620    -0.6514900     0.8358700
  H        5.0104170     0.1293290    -0.7342450
  H        5.4905370     0.9935700     0.7404870
units angstrom
no_reorient  #important for SAPT in psi4, default
symmetry c1  #important for SAPT in psi4, default
}

set PROPERTIES_ORIGIN ["COM"]
properties('MP2/aug-cc-pvtz', properties = ['dipole'])
--------------------------------------------------------------------------

    Molecular point group: c1
  Charge       = 0
  Multiplicity = 1
  Basis Set: AUG-CC-PVTZ
    Blend: AUG-CC-PVTZ
  Basis Set: (AUG-CC-PVTZ AUX)
    Blend: AUG-CC-PVTZ-JKFIT

    Orbital Energies [Eh]
    ---------------------

    Doubly Occupied:

       1A    -20.597761     2A    -20.538330     3A    -11.373959
       4A    -11.287366     5A    -11.244113     6A    -11.241710
       7A    -11.228901     8A    -11.226600     9A    -11.223800
      10A    -11.219547    11A    -11.217454    12A     -1.451670
      13A     -1.346770    14A     -1.113932    15A     -1.063835
      16A     -1.022680    17A     -0.978718    18A     -0.920849
      19A     -0.879119    20A     -0.834537    21A     -0.768040
      22A     -0.722838    23A     -0.687845    24A     -0.681250
      25A     -0.660834    26A     -0.639032    27A     -0.624161
      28A     -0.605533    29A     -0.588113    30A     -0.575127
      31A     -0.553147    32A     -0.544881    33A     -0.533749
      34A     -0.521880    35A     -0.516882    36A     -0.514749
      37A     -0.511192    38A     -0.491976    39A     -0.484507
      40A     -0.465384    41A     -0.456581    42A     -0.443726
      43A     -0.348148

  @DF-RHF Final Energy:  -500.03934709230492

   => Energetics <=

    Nuclear Repulsion Energy =            603.3410248355537533
    One-Electron Energy =               -1876.8582893954649080
    Two-Electron Energy =                 773.4779174676062894
    Total Energy =                       -500.0393470923048653
  Basis Set: (AUG-CC-PVTZ AUX)
    Blend: AUG-CC-PVTZ-RI
    Molecular point group: c1

    Geometry (in Angstrom), charge = 0, multiplicity = 1:

       Center              X                  Y                   Z               Mass
    ------------   -----------------  -----------------  -----------------  -----------------
         O            1.079798967472     0.468419022493     0.010771850668    15.994914619570
         O            2.530764267472    -1.104192177507    -0.711448449332    15.994914619570
         C           -2.369722732528    -0.086700177507     0.299148550668    12.000000000000
         C           -3.598433732528     0.782621822493     0.407541550668    12.000000000000
         C           -1.269575932528     0.386487122493    -0.301729849332    12.000000000000
         C            0.007924267472    -0.329745177507    -0.561565449332    12.000000000000
         C           -2.513576732528    -1.472914177507     0.863852550668    12.000000000000
         C           -4.709442732528     0.357023822493    -0.558724449332    12.000000000000
         C            3.354219267472     0.875871822493     0.438956550668    12.000000000000
         C            2.311674267472    -0.043407177507    -0.147387449332    12.000000000000
         C            4.757694267472     0.305262822493     0.314425550668    12.000000000000
         H           -3.329466732528     1.825609822493     0.205548550668     1.007825032230
         H           -3.979345732528     0.747716822493     1.436901550668     1.007825032230
         H           -1.273435732528     1.426433822493    -0.650093449332     1.007825032230
         H            0.202693267472    -0.433782177507    -1.634909449332     1.007825032230
         H            0.047081267472    -1.329566177507    -0.124514449332     1.007825032230
         H           -2.795511732528    -1.413981177507     1.923531550668     1.007825032230
         H           -3.311036732528    -2.024181177507     0.351572550668     1.007825032230
         H           -1.600826732528    -2.066530177507     0.788162550668     1.007825032230
         H           -5.044006732528    -0.665132177507    -0.359732449332     1.007825032230
         H           -4.353943732528     0.402427822493    -1.591818449332     1.007825032230
         H           -5.578069732528     1.016349822493    -0.466063449332     1.007825032230
         H            3.268166267472     1.842354822493    -0.070459449332     1.007825032230
         H            3.087099267472     1.064402822493     1.483509550668     1.007825032230
         H            4.833594267472    -0.649889177507     0.836732550668     1.007825032230
         H            5.010049267472     0.130929822493    -0.733382449332     1.007825032230
         H            5.490169267472     0.995170822493     0.741349550668     1.007825032230

  Basis Set: AUG-CC-PVTZ
    Blend: AUG-CC-PVTZ
  Basis Set: (AUG-CC-PVTZ AUX)
    Blend: AUG-CC-PVTZ-JKFIT
	 Reference Energy          =    -500.0393470923049222 [Eh]
	 Singles Energy            =      -0.0000000000000000 [Eh]
	 Same-Spin Energy          =      -0.5095059084162078 [Eh]
	 Opposite-Spin Energy      =      -1.7161425994297832 [Eh]
	 Correlation Energy        =      -2.2256485078459911 [Eh]
	 Total Energy              =    -502.2649956001509395 [Eh]

	 ================> DF-SCS-MP2 Energies <==================
	-----------------------------------------------------------
	 SCS Same-Spin Scale       =       0.3333333333333333 [-]
	 SCS Opposite-Spin Scale   =       1.2000000000000000 [-]
	 SCS Same-Spin Energy      =      -0.1698353028054026 [Eh]
	 SCS Opposite-Spin Energy  =      -2.0593711193157396 [Eh]
	 SCS Correlation Energy    =      -2.2292064221211421 [Eh]
	 SCS Total Energy          =    -502.2685535144260598 [Eh]
	-----------------------------------------------------------

  Dipole Moment: [D]
     X:    -1.5316      Y:     1.2127      Z:     0.8555     Total:     2.1326

*** Psi4 exiting successfully. Buy a developer a beer!
