                               Psi4 1.3.2 release

  ==> Input File <==

--------------------------------------------------------------------------
#psi4
#
memory 32 gb

molecule  {
0 1
  O        1.0716460     0.4753830     0.0137820
  O        2.5311320    -1.1057930    -0.7123110
  C       -2.3693550    -0.0883010     0.2982860
  C       -3.5980660     0.7810210     0.4066790
  C       -1.2344138     0.4544342    -0.3371689
  C        0.0082920    -0.3313460    -0.5624280
  C       -2.5132090    -1.4745150     0.8629900
  C       -4.7090750     0.3554230    -0.5595870
  C        3.3545870     0.8742710     0.4380940
  C        2.3120420    -0.0450080    -0.1482500
  C        4.7580620     0.3036620     0.3135630
  H       -3.3290990     1.8240090     0.2046860
  H       -3.9789780     0.7461160     1.4360390
  H       -1.2730680     1.4248330    -0.6509560
  H        0.2030610    -0.4353830    -1.6357720
  H        0.0999078    -1.3370653    -0.1473086
  H       -2.7951440    -1.4155820     1.9226690
  H       -3.3106690    -2.0257820     0.3507100
  H       -1.6004590    -2.0681310     0.7873000
  H       -5.0436390    -0.6667330    -0.3605950
  H       -4.3535760     0.4008270    -1.5926810
  H       -5.5777020     1.0147490    -0.4669260
  H        3.2685340     1.8407540    -0.0713220
  H        3.0874670     1.0628020     1.4826470
  H        4.8339620    -0.6514900     0.8358700
  H        5.0104170     0.1293290    -0.7342450
  H        5.4905370     0.9935700     0.7404870
units angstrom
no_reorient  #important for SAPT in psi4, default
symmetry c1  #important for SAPT in psi4, default
}

set PROPERTIES_ORIGIN ["COM"]
properties('MP2/aug-cc-pvtz', properties = ['dipole'])
--------------------------------------------------------------------------

    Molecular point group: c1
  Charge       = 0
  Multiplicity = 1
  Basis Set: AUG-CC-PVTZ
    Blend: AUG-CC-PVTZ
  Basis Set: (AUG-CC-PVTZ AUX)
    Blend: AUG-CC-PVTZ-JKFIT

    Orbital Energies [Eh]
    ---------------------

    Doubly Occupied:

       1A    -20.595089     2A    -20.540303     3A    -11.374455
       4A    -11.285621     5A    -11.254081     6A    -11.241564
       7A    -11.228632     8A    -11.228319     9A    -11.225791
      10A    -11.219111    11A    -11.217458    12A     -1.447274
      13A     -1.347009    14A     -1.105899    15A     -1.063530
      16A     -1.020427    17A     -0.979156    18A     -0.916747
      19A     -0.877851    20A     -0.831798    21A     -0.768042
      22A     -0.728355    23A     -0.689710    24A     -0.677432
      25A     -0.660785    26A     -0.638028    27A     -0.622694
      28A     -0.605895    29A     -0.588558    30A     -0.573031
      31A     -0.552748    32A     -0.543562    33A     -0.535831
      34A     -0.525352    35A     -0.519000    36A     -0.514447
      37A     -0.512637    38A     -0.491928    39A     -0.481953
      40A     -0.470097    41A     -0.456299    42A     -0.442914
      43A     -0.332383

  @DF-RHF Final Energy:  -500.02629347329668

   => Energetics <=

    Nuclear Repulsion Energy =            602.3655606111985890
    One-Electron Energy =               -1874.9201064825103913
    Two-Electron Energy =                 772.5282523980151836
    Total Energy =                       -500.0262934732966187
  Basis Set: (AUG-CC-PVTZ AUX)
    Blend: AUG-CC-PVTZ-RI
    Molecular point group: c1

    Geometry (in Angstrom), charge = 0, multiplicity = 1:

       Center              X                  Y                   Z               Mass
    ------------   -----------------  -----------------  -----------------  -----------------
         O            1.069138087738     0.470798488564     0.017047123375    15.994914619570
         O            2.528624087738    -1.110377511436    -0.709045876625    15.994914619570
         C           -2.371862912262    -0.092885511436     0.301551123375    12.000000000000
         C           -3.600573912262     0.776436488564     0.409944123375    12.000000000000
         C           -1.236921712262     0.449849688564    -0.333903776625    12.000000000000
         C            0.005784087738    -0.335930511436    -0.559162876625    12.000000000000
         C           -2.515716912262    -1.479099511436     0.866255123375    12.000000000000
         C           -4.711582912262     0.350838488564    -0.556321876625    12.000000000000
         C            3.352079087738     0.869686488564     0.441359123375    12.000000000000
         C            2.309534087738    -0.049592511436    -0.144984876625    12.000000000000
         C            4.755554087738     0.299077488564     0.316828123375    12.000000000000
         H           -3.331606912262     1.819424488564     0.207951123375     1.007825032230
         H           -3.981485912262     0.741531488564     1.439304123375     1.007825032230
         H           -1.275575912262     1.420248488564    -0.647690876625     1.007825032230
         H            0.200553087738    -0.439967511436    -1.632506876625     1.007825032230
         H            0.097399887738    -1.341649811436    -0.144043476625     1.007825032230
         H           -2.797651912262    -1.420166511436     1.925934123375     1.007825032230
         H           -3.313176912262    -2.030366511436     0.353975123375     1.007825032230
         H           -1.602966912262    -2.072715511436     0.790565123375     1.007825032230
         H           -5.046146912262    -0.671317511436    -0.357329876625     1.007825032230
         H           -4.356083912262     0.396242488564    -1.589415876625     1.007825032230
         H           -5.580209912262     1.010164488564    -0.463660876625     1.007825032230
         H            3.266026087738     1.836169488564    -0.068056876625     1.007825032230
         H            3.084959087738     1.058217488564     1.485912123375     1.007825032230
         H            4.831454087738    -0.656074511436     0.839135123375     1.007825032230
         H            5.007909087738     0.124744488564    -0.730979876625     1.007825032230
         H            5.488029087738     0.988985488564     0.743752123375     1.007825032230

  Basis Set: AUG-CC-PVTZ
    Blend: AUG-CC-PVTZ
  Basis Set: (AUG-CC-PVTZ AUX)
    Blend: AUG-CC-PVTZ-JKFIT
	 Reference Energy          =    -500.0262934732966755 [Eh]
	 Singles Energy            =      -0.0000000000000000 [Eh]
	 Same-Spin Energy          =      -0.5105438810121183 [Eh]
	 Opposite-Spin Energy      =      -1.7186216713635010 [Eh]
	 Correlation Energy        =      -2.2291655523756191 [Eh]
	 Total Energy              =    -502.2554590256722804 [Eh]

	 ================> DF-SCS-MP2 Energies <==================
	-----------------------------------------------------------
	 SCS Same-Spin Scale       =       0.3333333333333333 [-]
	 SCS Opposite-Spin Scale   =       1.2000000000000000 [-]
	 SCS Same-Spin Energy      =      -0.1701812936707061 [Eh]
	 SCS Opposite-Spin Energy  =      -2.0623460056362011 [Eh]
	 SCS Correlation Energy    =      -2.2325272993069074 [Eh]
	 SCS Total Energy          =    -502.2588207726035989 [Eh]
	-----------------------------------------------------------

  Dipole Moment: [D]
     X:    -1.4540      Y:     1.1762      Z:     0.8382     Total:     2.0495

*** Psi4 exiting successfully. Buy a developer a beer!
