                               Psi4 1.3.2 release

  ==> Input File <==

--------------------------------------------------------------------------
#psi4
#
memory 32 gb

molecule  {
0 1
  O        1.0716460     0.4753830     0.0137820
  O        2.5311320    -1.1057930    -0.7123110
  C       -2.3693550    -0.0883010     0.2982860
  C       -3.5980660     0.7810210     0.4066790
  C       -1.2626340     0.3942960    -0.2965320
  C        0.0082920    -0.3313460    -0.5624280
  C       -2.5132090    -1.4745150     0.8629900
  C       -4.7089152     0.3069542    -0.5369414
  C        3.3545870     0.8742710     0.4380940
  C        2.3120420    -0.0450080    -0.1482500
  C        4.7580620     0.3036620     0.3135630
  H       -3.3031742     1.8220561     0.2327447
  H       -3.9789780     0.7461160     1.4360390
  H       -1.2730680     1.4248330    -0.6509560
  H        0.2030610    -0.4353830    -1.6357720
  H        0.0474490    -1.3311670    -0.1253770
  H       -2.7951440    -1.4155820     1.9226690
  H       -3.3106690    -2.0257820     0.3507100
  H       -1.6004590    -2.0681310     0.7873000
  H       -5.0436390    -0.6667330    -0.3605950
  H       -4.3535760     0.4008270    -1.5926810
  H       -5.5777020     1.0147490    -0.4669260
  H        3.2685340     1.8407540    -0.0713220
  H        3.0874670     1.0628020     1.4826470
  H        4.8339620    -0.6514900     0.8358700
  H        5.0104170     0.1293290    -0.7342450
  H        5.4905370     0.9935700     0.7404870
units angstrom
no_reorient  #important for SAPT in psi4, default
symmetry c1  #important for SAPT in psi4, default
}

set PROPERTIES_ORIGIN ["COM"]
properties('MP2/aug-cc-pvtz', properties = ['dipole'])
--------------------------------------------------------------------------

    Molecular point group: c1
  Charge       = 0
  Multiplicity = 1
  Basis Set: AUG-CC-PVTZ
    Blend: AUG-CC-PVTZ
  Basis Set: (AUG-CC-PVTZ AUX)
    Blend: AUG-CC-PVTZ-JKFIT

    Orbital Energies [Eh]
    ---------------------

    Doubly Occupied:

       1A    -20.597186     2A    -20.540670     3A    -11.375428
       4A    -11.286325     5A    -11.243739     6A    -11.242140
       7A    -11.228897     8A    -11.226429     9A    -11.222867
      10A    -11.220320    11A    -11.217824    12A     -1.448007
      13A     -1.347498    14A     -1.112828    15A     -1.063901
      16A     -1.021818    17A     -0.977445    18A     -0.920069
      19A     -0.879606    20A     -0.834410    21A     -0.767309
      22A     -0.722654    23A     -0.687777    24A     -0.679986
      25A     -0.660094    26A     -0.639150    27A     -0.623242
      28A     -0.604811    29A     -0.587739    30A     -0.575870
      31A     -0.556024    32A     -0.541266    33A     -0.533730
      34A     -0.521865    35A     -0.518297    36A     -0.516130
      37A     -0.512139    38A     -0.492360    39A     -0.483917
      40A     -0.462513    41A     -0.457075    42A     -0.444318
      43A     -0.345841

  @DF-RHF Final Energy:  -500.03474753569947

   => Energetics <=

    Nuclear Repulsion Energy =            603.2564381326084231
    One-Electron Energy =               -1876.6993447361426206
    Two-Electron Energy =                 773.4081590678346174
    Total Energy =                       -500.0347475356994664
  Basis Set: (AUG-CC-PVTZ AUX)
    Blend: AUG-CC-PVTZ-RI
    Molecular point group: c1

    Geometry (in Angstrom), charge = 0, multiplicity = 1:

       Center              X                  Y                   Z               Mass
    ------------   -----------------  -----------------  -----------------  -----------------
         O            1.071466284005     0.479121247296     0.011860105334    15.994914619570
         O            2.530952284005    -1.102054752704    -0.714232894666    15.994914619570
         C           -2.369534715995    -0.084562752704     0.296364105334    12.000000000000
         C           -3.598245715995     0.784759247296     0.404757105334    12.000000000000
         C           -1.262813715995     0.398034247296    -0.298453894666    12.000000000000
         C            0.008112284005    -0.327607752704    -0.564349894666    12.000000000000
         C           -2.513388715995    -1.470776752704     0.861068105334    12.000000000000
         C           -4.709094915995     0.310692447296    -0.538863294666    12.000000000000
         C            3.354407284005     0.878009247296     0.436172105334    12.000000000000
         C            2.311862284005    -0.041269752704    -0.150171894666    12.000000000000
         C            4.757882284005     0.307400247296     0.311641105334    12.000000000000
         H           -3.303353915995     1.825794347296     0.230822805334     1.007825032230
         H           -3.979157715995     0.749854247296     1.434117105334     1.007825032230
         H           -1.273247715995     1.428571247296    -0.652877894666     1.007825032230
         H            0.202881284005    -0.431644752704    -1.637693894666     1.007825032230
         H            0.047269284005    -1.327428752704    -0.127298894666     1.007825032230
         H           -2.795323715995    -1.411843752704     1.920747105334     1.007825032230
         H           -3.310848715995    -2.022043752704     0.348788105334     1.007825032230
         H           -1.600638715995    -2.064392752704     0.785378105334     1.007825032230
         H           -5.043818715995    -0.662994752704    -0.362516894666     1.007825032230
         H           -4.353755715995     0.404565247296    -1.594602894666     1.007825032230
         H           -5.577881715995     1.018487247296    -0.468847894666     1.007825032230
         H            3.268354284005     1.844492247296    -0.073243894666     1.007825032230
         H            3.087287284005     1.066540247296     1.480725105334     1.007825032230
         H            4.833782284005    -0.647751752704     0.833948105334     1.007825032230
         H            5.010237284005     0.133067247296    -0.736166894666     1.007825032230
         H            5.490357284005     0.997308247296     0.738565105334     1.007825032230

  Basis Set: AUG-CC-PVTZ
    Blend: AUG-CC-PVTZ
  Basis Set: (AUG-CC-PVTZ AUX)
    Blend: AUG-CC-PVTZ-JKFIT
	 Reference Energy          =    -500.0347475356994664 [Eh]
	 Singles Energy            =      -0.0000000000000000 [Eh]
	 Same-Spin Energy          =      -0.5098749846765006 [Eh]
	 Opposite-Spin Energy      =      -1.7170398190189715 [Eh]
	 Correlation Energy        =      -2.2269148036954722 [Eh]
	 Total Energy              =    -502.2616623393949453 [Eh]

	 ================> DF-SCS-MP2 Energies <==================
	-----------------------------------------------------------
	 SCS Same-Spin Scale       =       0.3333333333333333 [-]
	 SCS Opposite-Spin Scale   =       1.2000000000000000 [-]
	 SCS Same-Spin Energy      =      -0.1699583282255002 [Eh]
	 SCS Opposite-Spin Energy  =      -2.0604477828227656 [Eh]
	 SCS Correlation Energy    =      -2.2304061110482660 [Eh]
	 SCS Total Energy          =    -502.2651536467477058 [Eh]
	-----------------------------------------------------------

  Dipole Moment: [D]
     X:    -1.4580      Y:     1.1668      Z:     0.8490     Total:     2.0514

*** Psi4 exiting successfully. Buy a developer a beer!
