                               Psi4 1.3.2 release

  ==> Input File <==

--------------------------------------------------------------------------
#psi4
#
memory 32 gb

molecule  {
0 1
  O        1.0716460     0.4753830     0.0137820
  O        2.5311320    -1.1057930    -0.7123110
  C       -2.3693550    -0.0883010     0.2982860
  C       -3.6345014     0.7213464     0.4434628
  C       -1.2311251     0.3325639    -0.2838181
  C        0.0082920    -0.3313460    -0.5624280
  C       -2.5132090    -1.4745150     0.8629900
  C       -4.7090750     0.3554230    -0.5595870
  C        3.3545870     0.8742710     0.4380940
  C        2.3120420    -0.0450080    -0.1482500
  C        4.7580620     0.3036620     0.3135630
  H       -3.3290990     1.8240090     0.2046860
  H       -3.9789780     0.7461160     1.4360390
  H       -1.2730680     1.4248330    -0.6509560
  H        0.2030610    -0.4353830    -1.6357720
  H        0.0474490    -1.3311670    -0.1253770
  H       -2.7951440    -1.4155820     1.9226690
  H       -3.3106690    -2.0257820     0.3507100
  H       -1.6004590    -2.0681310     0.7873000
  H       -5.0436390    -0.6667330    -0.3605950
  H       -4.3535760     0.4008270    -1.5926810
  H       -5.5777020     1.0147490    -0.4669260
  H        3.2685340     1.8407540    -0.0713220
  H        3.0874670     1.0628020     1.4826470
  H        4.8339620    -0.6514900     0.8358700
  H        5.0104170     0.1293290    -0.7342450
  H        5.4905370     0.9935700     0.7404870
units angstrom
no_reorient  #important for SAPT in psi4, default
symmetry c1  #important for SAPT in psi4, default
}

set PROPERTIES_ORIGIN ["COM"]
properties('MP2/aug-cc-pvtz', properties = ['dipole'])
--------------------------------------------------------------------------

    Molecular point group: c1
  Charge       = 0
  Multiplicity = 1
  Basis Set: AUG-CC-PVTZ
    Blend: AUG-CC-PVTZ
  Basis Set: (AUG-CC-PVTZ AUX)
    Blend: AUG-CC-PVTZ-JKFIT

    Orbital Energies [Eh]
    ---------------------

    Doubly Occupied:

       1A    -20.598511     2A    -20.541332     3A    -11.376311
       4A    -11.285828     5A    -11.246305     6A    -11.242588
       7A    -11.232552     8A    -11.226989     9A    -11.223197
      10A    -11.220510    11A    -11.218133    12A     -1.449338
      13A     -1.348653    14A     -1.115719    15A     -1.065745
      16A     -1.030796    17A     -0.981445    18A     -0.915811
      19A     -0.880829    20A     -0.836876    21A     -0.768859
      22A     -0.721022    23A     -0.686429    24A     -0.683143
      25A     -0.659755    26A     -0.637747    27A     -0.627799
      28A     -0.606706    29A     -0.589308    30A     -0.578477
      31A     -0.552267    32A     -0.547484    33A     -0.534558
      34A     -0.524624    35A     -0.521749    36A     -0.516970
      37A     -0.505454    38A     -0.493028    39A     -0.480290
      40A     -0.459211    41A     -0.452762    42A     -0.444406
      43A     -0.347325

  @DF-RHF Final Energy:  -500.02379721356687

   => Energetics <=

    Nuclear Repulsion Energy =            603.7660955946846570
    One-Electron Energy =               -1877.6261050391510707
    Two-Electron Energy =                 773.8362122308996049
    Total Energy =                       -500.0237972135668088
  Basis Set: (AUG-CC-PVTZ AUX)
    Blend: AUG-CC-PVTZ-RI
    Molecular point group: c1

    Geometry (in Angstrom), charge = 0, multiplicity = 1:

       Center              X                  Y                   Z               Mass
    ------------   -----------------  -----------------  -----------------  -----------------
         O            1.072024611172     0.484715113690     0.009977218464    15.994914619570
         O            2.531510611172    -1.096460886310    -0.716115781536    15.994914619570
         C           -2.368976388828    -0.078968886310     0.294481218464    12.000000000000
         C           -3.634122788828     0.730678513690     0.439658018464    12.000000000000
         C           -1.230746488828     0.341896013690    -0.287622881536    12.000000000000
         C            0.008670611172    -0.322013886310    -0.566232781536    12.000000000000
         C           -2.512830388828    -1.465182886310     0.859185218464    12.000000000000
         C           -4.708696388828     0.364755113690    -0.563391781536    12.000000000000
         C            3.354965611172     0.883603113690     0.434289218464    12.000000000000
         C            2.312420611172    -0.035675886310    -0.152054781536    12.000000000000
         C            4.758440611172     0.312994113690     0.309758218464    12.000000000000
         H           -3.328720388828     1.833341113690     0.200881218464     1.007825032230
         H           -3.978599388828     0.755448113690     1.432234218464     1.007825032230
         H           -1.272689388828     1.434165113690    -0.654760781536     1.007825032230
         H            0.203439611172    -0.426050886310    -1.639576781536     1.007825032230
         H            0.047827611172    -1.321834886310    -0.129181781536     1.007825032230
         H           -2.794765388828    -1.406249886310     1.918864218464     1.007825032230
         H           -3.310290388828    -2.016449886310     0.346905218464     1.007825032230
         H           -1.600080388828    -2.058798886310     0.783495218464     1.007825032230
         H           -5.043260388828    -0.657400886310    -0.364399781536     1.007825032230
         H           -4.353197388828     0.410159113690    -1.596485781536     1.007825032230
         H           -5.577323388828     1.024081113690    -0.470730781536     1.007825032230
         H            3.268912611172     1.850086113690    -0.075126781536     1.007825032230
         H            3.087845611172     1.072134113690     1.478842218464     1.007825032230
         H            4.834340611172    -0.642157886310     0.832065218464     1.007825032230
         H            5.010795611172     0.138661113690    -0.738049781536     1.007825032230
         H            5.490915611172     1.002902113690     0.736682218464     1.007825032230

  Basis Set: AUG-CC-PVTZ
    Blend: AUG-CC-PVTZ
  Basis Set: (AUG-CC-PVTZ AUX)
    Blend: AUG-CC-PVTZ-JKFIT
	 Reference Energy          =    -500.0237972135668656 [Eh]
	 Singles Energy            =      -0.0000000000000000 [Eh]
	 Same-Spin Energy          =      -0.5108204262915009 [Eh]
	 Opposite-Spin Energy      =      -1.7184532233706777 [Eh]
	 Correlation Energy        =      -2.2292736496621788 [Eh]
	 Total Energy              =    -502.2530708632290271 [Eh]

	 ================> DF-SCS-MP2 Energies <==================
	-----------------------------------------------------------
	 SCS Same-Spin Scale       =       0.3333333333333333 [-]
	 SCS Opposite-Spin Scale   =       1.2000000000000000 [-]
	 SCS Same-Spin Energy      =      -0.1702734754305003 [Eh]
	 SCS Opposite-Spin Energy  =      -2.0621438680448132 [Eh]
	 SCS Correlation Energy    =      -2.2324173434753134 [Eh]
	 SCS Total Energy          =    -502.2562145570421990 [Eh]
	-----------------------------------------------------------

  Dipole Moment: [D]
     X:    -1.4654      Y:     1.1424      Z:     0.8351     Total:     2.0371

*** Psi4 exiting successfully. Buy a developer a beer!
