                               Psi4 1.4a3.dev225

  ==> Input File <==

--------------------------------------------------------------------------
#psi4
#
memory 32 gb

molecule  {
0 1
  O       -1.1411000    -0.4541930    -0.0251880
  O       -2.5814580     1.1752260    -0.6867450
  C        2.3134570     0.0186930     0.2462000
  C        3.5222300    -0.8802230     0.3222130
  C        1.1937340    -0.4134970    -0.3651820
  C       -0.0647290     0.3542590    -0.5783780
  C        2.4850690     1.3863280     0.8546590
  C        4.7190700    -0.3405130    -0.4677320
  C       -3.4286640    -0.8122060     0.4327630
  C       -2.3567485     0.0858091    -0.1564312
  C       -4.8282690    -0.2261570     0.3119590
  H        3.2581340    -1.8761120    -0.0507320
  H        3.8122360    -1.0018650     1.3748590
  H        1.1815530    -1.4238220    -0.7735790
  H       -0.2705280     0.5138520    -1.6430550
  H       -0.0714200     1.3330110    -0.0949940
  H        3.0182560     1.3061200     1.8081990
  H        3.0814560     2.0379150     0.2067330
  H        1.5342700     1.8877430     1.0433380
  H        5.0646870     0.6170420    -0.0694620
  H        4.4484560    -0.1949880    -1.5176090
  H        5.5583810    -1.0408350    -0.4253590
  H       -3.3536290    -1.7820470    -0.0715700
  H       -3.1585900    -0.9983310     1.4781360
  H       -4.8922970     0.7333770     0.8287030
  H       -5.0879650    -0.0561110    -0.7346540
  H       -5.5642940    -0.9066400     0.7478690
units angstrom
no_reorient  #important for SAPT in psi4, default
symmetry c1  #important for SAPT in psi4, default
}

set PROPERTIES_ORIGIN ["COM"]
properties('MP2/aug-cc-pvtz', properties = ['dipole'])
--------------------------------------------------------------------------

    Molecular point group: c1
  Charge       = 0
  Multiplicity = 1
  Basis Set: AUG-CC-PVTZ
    Blend: AUG-CC-PVTZ
  Basis Set: (AUG-CC-PVTZ AUX)
    Blend: AUG-CC-PVTZ-JKFIT

    Orbital Energies [Eh]
    ---------------------

    Doubly Occupied:

       1A    -20.602035     2A    -20.537000     3A    -11.375496
       4A    -11.289156     5A    -11.245916     6A    -11.241811
       7A    -11.229507     8A    -11.227105     9A    -11.224698
      10A    -11.220019    11A    -11.217157    12A     -1.452701
      13A     -1.342829    14A     -1.113543    15A     -1.061341
      16A     -1.023391    17A     -0.978804    18A     -0.921747
      19A     -0.879159    20A     -0.834041    21A     -0.770583
      22A     -0.723240    23A     -0.686665    24A     -0.681605
      25A     -0.660335    26A     -0.638224    27A     -0.623955
      28A     -0.605429    29A     -0.588915    30A     -0.572600
      31A     -0.554779    32A     -0.546844    33A     -0.533469
      34A     -0.521916    35A     -0.515893    36A     -0.514102
      37A     -0.512408    38A     -0.490919    39A     -0.485426
      40A     -0.466837    41A     -0.456432    42A     -0.441789
      43A     -0.347421

  @DF-RHF Final Energy:  -500.03795377711037

   => Energetics <=

    Nuclear Repulsion Energy =            602.6250747440229816
    One-Electron Energy =               -1875.4115697716756586
    Two-Electron Energy =                 772.7485412505421891
    Total Energy =                       -500.0379537771103742
  Basis Set: (AUG-CC-PVTZ AUX)
    Blend: AUG-CC-PVTZ-RI
    Molecular point group: c1

    Geometry (in Angstrom), charge = 0, multiplicity = 1:

       Center              X                  Y                   Z               Mass
    ------------   -----------------  -----------------  -----------------  -----------------
         O           -1.088225364937    -0.458961425978    -0.011972430716    15.994914619570
         O           -2.528583364937     1.170457574022    -0.673529430716    15.994914619570
         C            2.366331635063     0.013924574022     0.259415569284    12.000000000000
         C            3.575104635063    -0.884991425978     0.335428569284    12.000000000000
         C            1.246608635063    -0.418265425978    -0.351966430716    12.000000000000
         C           -0.011854364937     0.349490574022    -0.565162430716    12.000000000000
         C            2.537943635063     1.381559574022     0.867874569284    12.000000000000
         C            4.771944635063    -0.345281425978    -0.454516430716    12.000000000000
         C           -3.375789364937    -0.816974425978     0.445978569284    12.000000000000
         C           -2.303873864937     0.081040674022    -0.143215630716    12.000000000000
         C           -4.775394364937    -0.230925425978     0.325174569284    12.000000000000
         H            3.311008635063    -1.880880425978    -0.037516430716     1.007825032230
         H            3.865110635063    -1.006633425978     1.388074569284     1.007825032230
         H            1.234427635063    -1.428590425978    -0.760363430716     1.007825032230
         H           -0.217653364937     0.509083574022    -1.629839430716     1.007825032230
         H           -0.018545364937     1.328242574022    -0.081778430716     1.007825032230
         H            3.071130635063     1.301351574022     1.821414569284     1.007825032230
         H            3.134330635063     2.033146574022     0.219948569284     1.007825032230
         H            1.587144635063     1.882974574022     1.056553569284     1.007825032230
         H            5.117561635063     0.612273574022    -0.056246430716     1.007825032230
         H            4.501330635063    -0.199756425978    -1.504393430716     1.007825032230
         H            5.611255635063    -1.045603425978    -0.412143430716     1.007825032230
         H           -3.300754364937    -1.786815425978    -0.058354430716     1.007825032230
         H           -3.105715364937    -1.003099425978     1.491351569284     1.007825032230
         H           -4.839422364937     0.728608574022     0.841918569284     1.007825032230
         H           -5.035090364937    -0.060879425978    -0.721438430716     1.007825032230
         H           -5.511419364937    -0.911408425978     0.761084569284     1.007825032230

  Basis Set: AUG-CC-PVTZ
    Blend: AUG-CC-PVTZ
  Basis Set: (AUG-CC-PVTZ AUX)
    Blend: AUG-CC-PVTZ-JKFIT
	 Reference Energy          =    -500.0379537771103742 [Eh]
	 Singles Energy            =      -0.0000000000000000 [Eh]
	 Same-Spin Energy          =      -0.5097075747722151 [Eh]
	 Opposite-Spin Energy      =      -1.7169065227428393 [Eh]
	 Correlation Energy        =      -2.2266140975150543 [Eh]
	 Total Energy              =    -502.2645678746254134 [Eh]

	 ================> DF-SCS-MP2 Energies <==================
	-----------------------------------------------------------
	 SCS Same-Spin Scale       =       0.3333333333333333 [-]
	 SCS Opposite-Spin Scale   =       1.2000000000000000 [-]
	 SCS Same-Spin Energy      =      -0.1699025249240717 [Eh]
	 SCS Opposite-Spin Energy  =      -2.0602878272914071 [Eh]
	 SCS Correlation Energy    =      -2.2301903522154789 [Eh]
	 SCS Total Energy          =    -502.2681441293258331 [Eh]
	-----------------------------------------------------------

  Dipole Moment: [D]
     X:     1.6503      Y:    -1.2505      Z:     0.8105     Total:     2.2236

*** Psi4 exiting successfully. Buy a developer a beer!
