                               Psi4 1.3.2 release

  ==> Input File <==

--------------------------------------------------------------------------
#psi4
#
memory 32 gb

molecule  {
0 1
  O        1.0716460     0.4753830     0.0137820
  O        2.5311320    -1.1057930    -0.7123110
  C       -2.3693550    -0.0883010     0.2982860
  C       -3.5980660     0.7810210     0.4066790
  C       -1.2795166     0.3530885    -0.2698388
  C        0.0082920    -0.3313460    -0.5624280
  C       -2.5132090    -1.4745150     0.8629900
  C       -4.7090750     0.3554230    -0.5595870
  C        3.3545870     0.8742710     0.4380940
  C        2.3120420    -0.0450080    -0.1482500
  C        4.7580620     0.3036620     0.3135630
  H       -3.3290990     1.8240090     0.2046860
  H       -3.9789780     0.7461160     1.4360390
  H       -1.2730680     1.4248330    -0.6509560
  H        0.2030610    -0.4353830    -1.6357720
  H        0.0124080    -1.3257110    -0.1114179
  H       -2.7951440    -1.4155820     1.9226690
  H       -3.3106690    -2.0257820     0.3507100
  H       -1.6004590    -2.0681310     0.7873000
  H       -5.0436390    -0.6667330    -0.3605950
  H       -4.3535760     0.4008270    -1.5926810
  H       -5.5777020     1.0147490    -0.4669260
  H        3.2685340     1.8407540    -0.0713220
  H        3.0874670     1.0628020     1.4826470
  H        4.8339620    -0.6514900     0.8358700
  H        5.0104170     0.1293290    -0.7342450
  H        5.4905370     0.9935700     0.7404870
units angstrom
no_reorient  #important for SAPT in psi4, default
symmetry c1  #important for SAPT in psi4, default
}

set PROPERTIES_ORIGIN ["COM"]
properties('MP2/aug-cc-pvtz', properties = ['dipole'])
--------------------------------------------------------------------------

    Molecular point group: c1
  Charge       = 0
  Multiplicity = 1
  Basis Set: AUG-CC-PVTZ
    Blend: AUG-CC-PVTZ
  Basis Set: (AUG-CC-PVTZ AUX)
    Blend: AUG-CC-PVTZ-JKFIT

    Orbital Energies [Eh]
    ---------------------

    Doubly Occupied:

       1A    -20.598843     2A    -20.541137     3A    -11.376267
       4A    -11.287650     5A    -11.242627     6A    -11.238048
       7A    -11.228704     8A    -11.225173     9A    -11.221987
      10A    -11.219405    11A    -11.218152    12A     -1.448780
      13A     -1.348079    14A     -1.117905    15A     -1.064233
      16A     -1.023034    17A     -0.977607    18A     -0.922022
      19A     -0.880135    20A     -0.835853    21A     -0.767252
      22A     -0.718829    23A     -0.686615    24A     -0.682086
      25A     -0.660012    26A     -0.638912    27A     -0.624608
      28A     -0.606067    29A     -0.587866    30A     -0.575470
      31A     -0.552943    32A     -0.545624    33A     -0.533902
      34A     -0.521841    35A     -0.517040    36A     -0.515509
      37A     -0.508501    38A     -0.492722    39A     -0.484645
      40A     -0.461534    41A     -0.454565    42A     -0.445159
      43A     -0.355612

  @DF-RHF Final Energy:  -500.03570469315719

   => Energetics <=

    Nuclear Repulsion Energy =            603.5834613801905562
    One-Electron Energy =               -1877.3324230932207684
    Two-Electron Energy =                 773.7132570198730264
    Total Energy =                       -500.0357046931571858
  Basis Set: (AUG-CC-PVTZ AUX)
    Blend: AUG-CC-PVTZ-RI
    Molecular point group: c1

    Geometry (in Angstrom), charge = 0, multiplicity = 1:

       Center              X                  Y                   Z               Mass
    ------------   -----------------  -----------------  -----------------  -----------------
         O            1.073169846178     0.478515268006     0.011640003079    15.994914619570
         O            2.532655846178    -1.102660731994    -0.714452996921    15.994914619570
         C           -2.367831153822    -0.085168731994     0.296144003079    12.000000000000
         C           -3.596542153822     0.784153268006     0.404537003079    12.000000000000
         C           -1.277992753822     0.356220768006    -0.271980796921    12.000000000000
         C            0.009815846178    -0.328213731994    -0.564569996921    12.000000000000
         C           -2.511685153822    -1.471382731994     0.860848003079    12.000000000000
         C           -4.707551153822     0.358555268006    -0.561728996921    12.000000000000
         C            3.356110846178     0.877403268006     0.435952003079    12.000000000000
         C            2.313565846178    -0.041875731994    -0.150391996921    12.000000000000
         C            4.759585846178     0.306794268006     0.311421003079    12.000000000000
         H           -3.327575153822     1.827141268006     0.202544003079     1.007825032230
         H           -3.977454153822     0.749248268006     1.433897003079     1.007825032230
         H           -1.271544153822     1.427965268006    -0.653097996921     1.007825032230
         H            0.204584846178    -0.432250731994    -1.637913996921     1.007825032230
         H            0.013931846178    -1.322578731994    -0.113559896921     1.007825032230
         H           -2.793620153822    -1.412449731994     1.920527003079     1.007825032230
         H           -3.309145153822    -2.022649731994     0.348568003079     1.007825032230
         H           -1.598935153822    -2.064998731994     0.785158003079     1.007825032230
         H           -5.042115153822    -0.663600731994    -0.362736996921     1.007825032230
         H           -4.352052153822     0.403959268006    -1.594822996921     1.007825032230
         H           -5.576178153822     1.017881268006    -0.469067996921     1.007825032230
         H            3.270057846178     1.843886268006    -0.073463996921     1.007825032230
         H            3.088990846178     1.065934268006     1.480505003079     1.007825032230
         H            4.835485846178    -0.648357731994     0.833728003079     1.007825032230
         H            5.011940846178     0.132461268006    -0.736386996921     1.007825032230
         H            5.492060846178     0.996702268006     0.738345003079     1.007825032230

  Basis Set: AUG-CC-PVTZ
    Blend: AUG-CC-PVTZ
  Basis Set: (AUG-CC-PVTZ AUX)
    Blend: AUG-CC-PVTZ-JKFIT
	 Reference Energy          =    -500.0357046931571858 [Eh]
	 Singles Energy            =      -0.0000000000000000 [Eh]
	 Same-Spin Energy          =      -0.5095219559167262 [Eh]
	 Opposite-Spin Energy      =      -1.7162640855665974 [Eh]
	 Correlation Energy        =      -2.2257860414833237 [Eh]
	 Total Energy              =    -502.2614907346405175 [Eh]

	 ================> DF-SCS-MP2 Energies <==================
	-----------------------------------------------------------
	 SCS Same-Spin Scale       =       0.3333333333333333 [-]
	 SCS Opposite-Spin Scale   =       1.2000000000000000 [-]
	 SCS Same-Spin Energy      =      -0.1698406519722421 [Eh]
	 SCS Opposite-Spin Energy  =      -2.0595169026799169 [Eh]
	 SCS Correlation Energy    =      -2.2293575546521591 [Eh]
	 SCS Total Energy          =    -502.2650622478093396 [Eh]
	-----------------------------------------------------------

  Dipole Moment: [D]
     X:    -1.4364      Y:     1.1709      Z:     0.8322     Total:     2.0315

*** Psi4 exiting successfully. Buy a developer a beer!
