                               Psi4 1.3.2 release

  ==> Input File <==

--------------------------------------------------------------------------
#psi4
#
memory 32 gb

molecule  {
0 1
  O        1.0716460     0.4753830     0.0137820
  O        2.5311320    -1.1057930    -0.7123110
  C       -2.3693550    -0.0883010     0.2982860
  C       -3.5980660     0.7810210     0.4066790
  C       -1.2626340     0.3942960    -0.2965320
  C        0.0082920    -0.3313460    -0.5624280
  C       -2.5132090    -1.4745150     0.8629900
  C       -4.7090750     0.3554230    -0.5595870
  C        3.3545870     0.8742710     0.4380940
  C        2.3120420    -0.0450080    -0.1482500
  C        4.7580620     0.3036620     0.3135630
  H       -3.3290990     1.8240090     0.2046860
  H       -3.9789780     0.7461160     1.4360390
  H       -1.2711532     1.2357143    -0.5859140
  H        0.2030610    -0.4353830    -1.6357720
  H        0.0474490    -1.3311670    -0.1253770
  H       -2.7951440    -1.4155820     1.9226690
  H       -3.3106690    -2.0257820     0.3507100
  H       -1.6004590    -2.0681310     0.7873000
  H       -5.0436390    -0.6667330    -0.3605950
  H       -4.3535760     0.4008270    -1.5926810
  H       -5.5777020     1.0147490    -0.4669260
  H        3.2685340     1.8407540    -0.0713220
  H        3.0874670     1.0628020     1.4826470
  H        4.8339620    -0.6514900     0.8358700
  H        5.0104170     0.1293290    -0.7342450
  H        5.4905370     0.9935700     0.7404870
units angstrom
no_reorient  #important for SAPT in psi4, default
symmetry c1  #important for SAPT in psi4, default
}

set PROPERTIES_ORIGIN ["COM"]
properties('MP2/aug-cc-pvtz', properties = ['dipole'])
--------------------------------------------------------------------------

    Molecular point group: c1
  Charge       = 0
  Multiplicity = 1
  Basis Set: AUG-CC-PVTZ
    Blend: AUG-CC-PVTZ
  Basis Set: (AUG-CC-PVTZ AUX)
    Blend: AUG-CC-PVTZ-JKFIT

    Orbital Energies [Eh]
    ---------------------

    Doubly Occupied:

       1A    -20.597047     2A    -20.540526     3A    -11.375297
       4A    -11.284387     5A    -11.243331     6A    -11.242099
       7A    -11.228749     8A    -11.224937     9A    -11.219485
      10A    -11.217780    11A    -11.198927    12A     -1.447855
      13A     -1.347370    14A     -1.116626    15A     -1.063844
      16A     -1.025568    17A     -0.978795    18A     -0.925771
      19A     -0.878865    20A     -0.838541    21A     -0.770152
      22A     -0.742089    23A     -0.691853    24A     -0.679735
      25A     -0.663356    26A     -0.643056    27A     -0.623467
      28A     -0.608732    29A     -0.589911    30A     -0.573897
      31A     -0.552570    32A     -0.544383    33A     -0.535317
      34A     -0.526840    35A     -0.519730    36A     -0.515024
      37A     -0.513705    38A     -0.492385    39A     -0.484035
      40A     -0.468106    41A     -0.457156    42A     -0.444242
      43A     -0.345376

  @DF-RHF Final Energy:  -500.00410880127538

   => Energetics <=

    Nuclear Repulsion Energy =            604.2066765004173021
    One-Electron Energy =               -1878.4597320640195903
    Two-Electron Energy =                 774.2489467623267956
    Total Energy =                       -500.0041088012753789
  Basis Set: (AUG-CC-PVTZ AUX)
    Blend: AUG-CC-PVTZ-RI
    Molecular point group: c1

    Geometry (in Angstrom), charge = 0, multiplicity = 1:

       Center              X                  Y                   Z               Mass
    ------------   -----------------  -----------------  -----------------  -----------------
         O            1.071633567571     0.476603903372     0.013362039548    15.994914619570
         O            2.531119567571    -1.104572096628    -0.712730960452    15.994914619570
         C           -2.369367432429    -0.087080096628     0.297866039548    12.000000000000
         C           -3.598078432429     0.782241903372     0.406259039548    12.000000000000
         C           -1.262646432429     0.395516903372    -0.296951960452    12.000000000000
         C            0.008279567571    -0.330125096628    -0.562847960452    12.000000000000
         C           -2.513221432429    -1.473294096628     0.862570039548    12.000000000000
         C           -4.709087432429     0.356643903372    -0.560006960452    12.000000000000
         C            3.354574567571     0.875491903372     0.437674039548    12.000000000000
         C            2.312029567571    -0.043787096628    -0.148669960452    12.000000000000
         C            4.758049567571     0.304882903372     0.313143039548    12.000000000000
         H           -3.329111432429     1.825229903372     0.204266039548     1.007825032230
         H           -3.978990432429     0.747336903372     1.435619039548     1.007825032230
         H           -1.271165632429     1.236935203372    -0.586333960452     1.007825032230
         H            0.203048567571    -0.434162096628    -1.636191960452     1.007825032230
         H            0.047436567571    -1.329946096628    -0.125796960452     1.007825032230
         H           -2.795156432429    -1.414361096628     1.922249039548     1.007825032230
         H           -3.310681432429    -2.024561096628     0.350290039548     1.007825032230
         H           -1.600471432429    -2.066910096628     0.786880039548     1.007825032230
         H           -5.043651432429    -0.665512096628    -0.361014960452     1.007825032230
         H           -4.353588432429     0.402047903372    -1.593100960452     1.007825032230
         H           -5.577714432429     1.015969903372    -0.467345960452     1.007825032230
         H            3.268521567571     1.841974903372    -0.071741960452     1.007825032230
         H            3.087454567571     1.064022903372     1.482227039548     1.007825032230
         H            4.833949567571    -0.650269096628     0.835450039548     1.007825032230
         H            5.010404567571     0.130549903372    -0.734664960452     1.007825032230
         H            5.490524567571     0.994790903372     0.740067039548     1.007825032230

  Basis Set: AUG-CC-PVTZ
    Blend: AUG-CC-PVTZ
  Basis Set: (AUG-CC-PVTZ AUX)
    Blend: AUG-CC-PVTZ-JKFIT
	 Reference Energy          =    -500.0041088012753789 [Eh]
	 Singles Energy            =      -0.0000000000000000 [Eh]
	 Same-Spin Energy          =      -0.5094890273047448 [Eh]
	 Opposite-Spin Energy      =      -1.7161978135788314 [Eh]
	 Correlation Energy        =      -2.2256868408835762 [Eh]
	 Total Energy              =    -502.2297956421589333 [Eh]

	 ================> DF-SCS-MP2 Energies <==================
	-----------------------------------------------------------
	 SCS Same-Spin Scale       =       0.3333333333333333 [-]
	 SCS Opposite-Spin Scale   =       1.2000000000000000 [-]
	 SCS Same-Spin Energy      =      -0.1698296757682483 [Eh]
	 SCS Opposite-Spin Energy  =      -2.0594373762945977 [Eh]
	 SCS Correlation Energy    =      -2.2292670520628457 [Eh]
	 SCS Total Energy          =    -502.2333758533382024 [Eh]
	-----------------------------------------------------------

  Dipole Moment: [D]
     X:    -1.4744      Y:     1.2389      Z:     0.8128     Total:     2.0903

*** Psi4 exiting successfully. Buy a developer a beer!
