                               Psi4 1.4a3.dev225

  ==> Input File <==

--------------------------------------------------------------------------
#psi4
#
memory 32 gb

molecule  {
0 1
  O       -1.1411000    -0.4541930    -0.0251880
  O       -2.5814580     1.1752260    -0.6867450
  C        2.3134570     0.0186930     0.2462000
  C        3.5222300    -0.8802230     0.3222130
  C        1.1937340    -0.4134970    -0.3651820
  C       -0.0647290     0.3542590    -0.5783780
  C        2.4850690     1.3863280     0.8546590
  C        4.7190700    -0.3405130    -0.4677320
  C       -3.4286640    -0.8122060     0.4327630
  C       -2.3749380     0.0938890    -0.1583950
  C       -4.8282690    -0.2261570     0.3119590
  H        3.2581340    -1.8761120    -0.0507320
  H        3.8122360    -1.0018650     1.3748590
  H        1.1815530    -1.4238220    -0.7735790
  H       -0.2705280     0.5138520    -1.6430550
  H       -0.0711135     1.2881812    -0.1171344
  H        3.0182560     1.3061200     1.8081990
  H        3.0814560     2.0379150     0.2067330
  H        1.5342700     1.8877430     1.0433380
  H        5.0646870     0.6170420    -0.0694620
  H        4.4484560    -0.1949880    -1.5176090
  H        5.5583810    -1.0408350    -0.4253590
  H       -3.3536290    -1.7820470    -0.0715700
  H       -3.1585900    -0.9983310     1.4781360
  H       -4.8922970     0.7333770     0.8287030
  H       -5.0879650    -0.0561110    -0.7346540
  H       -5.5642940    -0.9066400     0.7478690
units angstrom
no_reorient  #important for SAPT in psi4, default
symmetry c1  #important for SAPT in psi4, default
}

set PROPERTIES_ORIGIN ["COM"]
properties('MP2/aug-cc-pvtz', properties = ['dipole'])
--------------------------------------------------------------------------

    Molecular point group: c1
  Charge       = 0
  Multiplicity = 1
  Basis Set: AUG-CC-PVTZ
    Blend: AUG-CC-PVTZ
  Basis Set: (AUG-CC-PVTZ AUX)
    Blend: AUG-CC-PVTZ-JKFIT

    Orbital Energies [Eh]
    ---------------------

    Doubly Occupied:

       1A    -20.596661     2A    -20.540850     3A    -11.375709
       4A    -11.281146     5A    -11.244444     6A    -11.242556
       7A    -11.228587     8A    -11.226453     9A    -11.223259
      10A    -11.219297    11A    -11.218157    12A     -1.446888
      13A     -1.347355    14A     -1.112454    15A     -1.063282
      16A     -1.022904    17A     -0.977851    18A     -0.921009
      19A     -0.880381    20A     -0.834141    21A     -0.769359
      22A     -0.723689    23A     -0.687826    24A     -0.680878
      25A     -0.659831    26A     -0.638292    27A     -0.624104
      28A     -0.605749    29A     -0.589464    30A     -0.571920
      31A     -0.554711    32A     -0.545939    33A     -0.534609
      34A     -0.521955    35A     -0.517688    36A     -0.514111
      37A     -0.513325    38A     -0.492767    39A     -0.484615
      40A     -0.466188    41A     -0.458267    42A     -0.444396
      43A     -0.345979

  @DF-RHF Final Energy:  -500.03787976749157

   => Energetics <=

    Nuclear Repulsion Energy =            602.7483690512015073
    One-Electron Energy =               -1875.6744084190920603
    Two-Electron Energy =                 772.8881596003989216
    Total Energy =                       -500.0378797674916314
  Basis Set: (AUG-CC-PVTZ AUX)
    Blend: AUG-CC-PVTZ-RI
    Molecular point group: c1

    Geometry (in Angstrom), charge = 0, multiplicity = 1:

       Center              X                  Y                   Z               Mass
    ------------   -----------------  -----------------  -----------------  -----------------
         O           -1.086829182251    -0.459293092989    -0.011678549663    15.994914619570
         O           -2.527187182251     1.170125907011    -0.673235549663    15.994914619570
         C            2.367727817749     0.013592907011     0.259709450337    12.000000000000
         C            3.576500817749    -0.885323092989     0.335722450337    12.000000000000
         C            1.248004817749    -0.418597092989    -0.351672549663    12.000000000000
         C           -0.010458182251     0.349158907011    -0.564868549663    12.000000000000
         C            2.539339817749     1.381227907011     0.868168450337    12.000000000000
         C            4.773340817749    -0.345613092989    -0.454222549663    12.000000000000
         C           -3.374393182251    -0.817306092989     0.446272450337    12.000000000000
         C           -2.320667182251     0.088788907011    -0.144885549663    12.000000000000
         C           -4.773998182251    -0.231257092989     0.325468450337    12.000000000000
         H            3.312404817749    -1.881212092989    -0.037222549663     1.007825032230
         H            3.866506817749    -1.006965092989     1.388368450337     1.007825032230
         H            1.235823817749    -1.428922092989    -0.760069549663     1.007825032230
         H           -0.216257182251     0.508751907011    -1.629545549663     1.007825032230
         H           -0.016842682251     1.283081107011    -0.103624949663     1.007825032230
         H            3.072526817749     1.301019907011     1.821708450337     1.007825032230
         H            3.135726817749     2.032814907011     0.220242450337     1.007825032230
         H            1.588540817749     1.882642907011     1.056847450337     1.007825032230
         H            5.118957817749     0.611941907011    -0.055952549663     1.007825032230
         H            4.502726817749    -0.200088092989    -1.504099549663     1.007825032230
         H            5.612651817749    -1.045935092989    -0.411849549663     1.007825032230
         H           -3.299358182251    -1.787147092989    -0.058060549663     1.007825032230
         H           -3.104319182251    -1.003431092989     1.491645450337     1.007825032230
         H           -4.838026182251     0.728276907011     0.842212450337     1.007825032230
         H           -5.033694182251    -0.061211092989    -0.721144549663     1.007825032230
         H           -5.510023182251    -0.911740092989     0.761378450337     1.007825032230

  Basis Set: AUG-CC-PVTZ
    Blend: AUG-CC-PVTZ
  Basis Set: (AUG-CC-PVTZ AUX)
    Blend: AUG-CC-PVTZ-JKFIT
	 Reference Energy          =    -500.0378797674915745 [Eh]
	 Singles Energy            =      -0.0000000000000000 [Eh]
	 Same-Spin Energy          =      -0.5095159687591232 [Eh]
	 Opposite-Spin Energy      =      -1.7164487485905151 [Eh]
	 Correlation Energy        =      -2.2259647173496382 [Eh]
	 Total Energy              =    -502.2638444848412291 [Eh]

	 ================> DF-SCS-MP2 Energies <==================
	-----------------------------------------------------------
	 SCS Same-Spin Scale       =       0.3333333333333333 [-]
	 SCS Opposite-Spin Scale   =       1.2000000000000000 [-]
	 SCS Same-Spin Energy      =      -0.1698386562530411 [Eh]
	 SCS Opposite-Spin Energy  =      -2.0597384983086182 [Eh]
	 SCS Correlation Energy    =      -2.2295771545616594 [Eh]
	 SCS Total Energy          =    -502.2674569220532135 [Eh]
	-----------------------------------------------------------

  Dipole Moment: [D]
     X:     1.4501      Y:    -1.1844      Z:     0.8025     Total:     2.0371

*** Psi4 exiting successfully. Buy a developer a beer!
