                               Psi4 1.3.2 release

  ==> Input File <==

--------------------------------------------------------------------------
#psi4
#
memory 32 gb

molecule  {
0 1
  O        1.0716460     0.4753830     0.0137820
  O        2.5311320    -1.1057930    -0.7123110
  C       -2.3693550    -0.0883010     0.2982860
  C       -3.5577345     0.8388758     0.3710723
  C       -1.2626340     0.3942960    -0.2965320
  C        0.0082920    -0.3313460    -0.5624280
  C       -2.4386306    -1.4885518     0.8420437
  C       -4.7090750     0.3554230    -0.5595870
  C        3.3545870     0.8742710     0.4380940
  C        2.3120420    -0.0450080    -0.1482500
  C        4.7580620     0.3036620     0.3135630
  H       -3.3290990     1.8240090     0.2046860
  H       -3.9789780     0.7461160     1.4360390
  H       -1.2730680     1.4248330    -0.6509560
  H        0.2030610    -0.4353830    -1.6357720
  H        0.0474490    -1.3311670    -0.1253770
  H       -2.7951440    -1.4155820     1.9226690
  H       -3.3106690    -2.0257820     0.3507100
  H       -1.6004590    -2.0681310     0.7873000
  H       -5.0436390    -0.6667330    -0.3605950
  H       -4.3535760     0.4008270    -1.5926810
  H       -5.5777020     1.0147490    -0.4669260
  H        3.2685340     1.8407540    -0.0713220
  H        3.0874670     1.0628020     1.4826470
  H        4.8339620    -0.6514900     0.8358700
  H        5.0104170     0.1293290    -0.7342450
  H        5.4905370     0.9935700     0.7404870
units angstrom
no_reorient  #important for SAPT in psi4, default
symmetry c1  #important for SAPT in psi4, default
}

set PROPERTIES_ORIGIN ["COM"]
properties('MP2/aug-cc-pvtz', properties = ['dipole'])
--------------------------------------------------------------------------

    Molecular point group: c1
  Charge       = 0
  Multiplicity = 1
  Basis Set: AUG-CC-PVTZ
    Blend: AUG-CC-PVTZ
  Basis Set: (AUG-CC-PVTZ AUX)
    Blend: AUG-CC-PVTZ-JKFIT

    Orbital Energies [Eh]
    ---------------------

    Doubly Occupied:

       1A    -20.596978     2A    -20.540624     3A    -11.375329
       4A    -11.285789     5A    -11.245148     6A    -11.242093
       7A    -11.230832     8A    -11.229872     9A    -11.220772
      10A    -11.220327    11A    -11.217811    12A     -1.447865
      13A     -1.347405    14A     -1.113013    15A     -1.063509
      16A     -1.019737    17A     -0.978171    18A     -0.920633
      19A     -0.880371    20A     -0.833731    21A     -0.767106
      22A     -0.725921    23A     -0.689941    24A     -0.682837
      25A     -0.660276    26A     -0.643176    27A     -0.620275
      28A     -0.604709    29A     -0.583881    30A     -0.573654
      31A     -0.553891    32A     -0.544385    33A     -0.536364
      34A     -0.521489    35A     -0.519140    36A     -0.515276
      37A     -0.505907    38A     -0.492315    39A     -0.483613
      40A     -0.468873    41A     -0.457386    42A     -0.444178
      43A     -0.341983

  @DF-RHF Final Energy:  -500.02352091407556

   => Energetics <=

    Nuclear Repulsion Energy =            603.3507974821441167
    One-Electron Energy =               -1876.8554629229495276
    Two-Electron Energy =                 773.4811445267298495
    Total Energy =                       -500.0235209140755614
  Basis Set: (AUG-CC-PVTZ AUX)
    Blend: AUG-CC-PVTZ-RI
    Molecular point group: c1

    Geometry (in Angstrom), charge = 0, multiplicity = 1:

       Center              X                  Y                   Z               Mass
    ------------   -----------------  -----------------  -----------------  -----------------
         O            1.062813218763     0.472014886152     0.018128953771    15.994914619570
         O            2.522299218763    -1.109161113848    -0.707964046229    15.994914619570
         C           -2.378187781237    -0.091669113848     0.302632953771    12.000000000000
         C           -3.566567281237     0.835507686152     0.375419253771    12.000000000000
         C           -1.271466781237     0.390927886152    -0.292185046229    12.000000000000
         C           -0.000540781237    -0.334714113848    -0.558081046229    12.000000000000
         C           -2.447463381237    -1.491919913848     0.846390653771    12.000000000000
         C           -4.717907781237     0.352054886152    -0.555240046229    12.000000000000
         C            3.345754218763     0.870902886152     0.442440953771    12.000000000000
         C            2.303209218763    -0.048376113848    -0.143903046229    12.000000000000
         C            4.749229218763     0.300293886152     0.317909953771    12.000000000000
         H           -3.337931781237     1.820640886152     0.209032953771     1.007825032230
         H           -3.987810781237     0.742747886152     1.440385953771     1.007825032230
         H           -1.281900781237     1.421464886152    -0.646609046229     1.007825032230
         H            0.194228218763    -0.438751113848    -1.631425046229     1.007825032230
         H            0.038616218763    -1.334535113848    -0.121030046229     1.007825032230
         H           -2.803976781237    -1.418950113848     1.927015953771     1.007825032230
         H           -3.319501781237    -2.029150113848     0.355056953771     1.007825032230
         H           -1.609291781237    -2.071499113848     0.791646953771     1.007825032230
         H           -5.052471781237    -0.670101113848    -0.356248046229     1.007825032230
         H           -4.362408781237     0.397458886152    -1.588334046229     1.007825032230
         H           -5.586534781237     1.011380886152    -0.462579046229     1.007825032230
         H            3.259701218763     1.837385886152    -0.066975046229     1.007825032230
         H            3.078634218763     1.059433886152     1.486993953771     1.007825032230
         H            4.825129218763    -0.654858113848     0.840216953771     1.007825032230
         H            5.001584218763     0.125960886152    -0.729898046229     1.007825032230
         H            5.481704218763     0.990201886152     0.744833953771     1.007825032230

  Basis Set: AUG-CC-PVTZ
    Blend: AUG-CC-PVTZ
  Basis Set: (AUG-CC-PVTZ AUX)
    Blend: AUG-CC-PVTZ-JKFIT
	 Reference Energy          =    -500.0235209140755614 [Eh]
	 Singles Energy            =      -0.0000000000000000 [Eh]
	 Same-Spin Energy          =      -0.5098982766827779 [Eh]
	 Opposite-Spin Energy      =      -1.7172414682832164 [Eh]
	 Correlation Energy        =      -2.2271397449659944 [Eh]
	 Total Energy              =    -502.2506606590415572 [Eh]

	 ================> DF-SCS-MP2 Energies <==================
	-----------------------------------------------------------
	 SCS Same-Spin Scale       =       0.3333333333333333 [-]
	 SCS Opposite-Spin Scale   =       1.2000000000000000 [-]
	 SCS Same-Spin Energy      =      -0.1699660922275926 [Eh]
	 SCS Opposite-Spin Energy  =      -2.0606897619398596 [Eh]
	 SCS Correlation Energy    =      -2.2306558541674524 [Eh]
	 SCS Total Energy          =    -502.2541767682430418 [Eh]
	-----------------------------------------------------------

  Dipole Moment: [D]
     X:    -1.4613      Y:     1.1978      Z:     0.8099     Total:     2.0558

*** Psi4 exiting successfully. Buy a developer a beer!
