                               Psi4 1.3.2 release

  ==> Input File <==

--------------------------------------------------------------------------
#psi4
#
memory 32 gb

molecule  {
0 1
  O        1.0716460     0.4753830     0.0137820
  O        2.5311320    -1.1057930    -0.7123110
  C       -2.3411282    -0.0453650     0.2867031
  C       -3.5980660     0.7810210     0.4066790
  C       -1.2626340     0.3942960    -0.2965320
  C        0.0082920    -0.3313460    -0.5624280
  C       -2.5132090    -1.4745150     0.8629900
  C       -4.7090750     0.3554230    -0.5595870
  C        3.3545870     0.8742710     0.4380940
  C        2.3120420    -0.0450080    -0.1482500
  C        4.7580620     0.3036620     0.3135630
  H       -3.2928701     1.8129382     0.1993852
  H       -3.9789780     0.7461160     1.4360390
  H       -1.2730680     1.4248330    -0.6509560
  H        0.2030610    -0.4353830    -1.6357720
  H        0.0474490    -1.3311670    -0.1253770
  H       -2.7951440    -1.4155820     1.9226690
  H       -3.3106690    -2.0257820     0.3507100
  H       -1.6004590    -2.0681310     0.7873000
  H       -5.0436390    -0.6667330    -0.3605950
  H       -4.3535760     0.4008270    -1.5926810
  H       -5.5777020     1.0147490    -0.4669260
  H        3.2685340     1.8407540    -0.0713220
  H        3.0874670     1.0628020     1.4826470
  H        4.8339620    -0.6514900     0.8358700
  H        5.0104170     0.1293290    -0.7342450
  H        5.4905370     0.9935700     0.7404870
units angstrom
no_reorient  #important for SAPT in psi4, default
symmetry c1  #important for SAPT in psi4, default
}

set PROPERTIES_ORIGIN ["COM"]
properties('MP2/aug-cc-pvtz', properties = ['dipole'])
--------------------------------------------------------------------------

    Molecular point group: c1
  Charge       = 0
  Multiplicity = 1
  Basis Set: AUG-CC-PVTZ
    Blend: AUG-CC-PVTZ
  Basis Set: (AUG-CC-PVTZ AUX)
    Blend: AUG-CC-PVTZ-JKFIT

    Orbital Energies [Eh]
    ---------------------

    Doubly Occupied:

       1A    -20.598170     2A    -20.541306     3A    -11.376110
       4A    -11.287756     5A    -11.242590     6A    -11.239475
       7A    -11.228236     8A    -11.226422     9A    -11.219878
      10A    -11.218406    11A    -11.218157    12A     -1.448840
      13A     -1.348231    14A     -1.114723    15A     -1.064039
      16A     -1.023357    17A     -0.971558    18A     -0.923557
      19A     -0.880119    20A     -0.837434    21A     -0.768148
      22A     -0.721084    23A     -0.687831    24A     -0.678706
      25A     -0.660907    26A     -0.637336    27A     -0.625531
      28A     -0.604591    29A     -0.588098    30A     -0.572906
      31A     -0.549331    32A     -0.545389    33A     -0.533144
      34A     -0.522639    35A     -0.517984    36A     -0.516459
      37A     -0.512368    38A     -0.492651    39A     -0.486974
      40A     -0.458745    41A     -0.453372    42A     -0.445203
      43A     -0.357981

  @DF-RHF Final Energy:  -500.03662247577040

   => Energetics <=

    Nuclear Repulsion Energy =            603.3818801346262717
    One-Electron Energy =               -1876.9455191575138997
    Two-Electron Energy =                 773.5270165471172277
    Total Energy =                       -500.0366224757704003
  Basis Set: (AUG-CC-PVTZ AUX)
    Blend: AUG-CC-PVTZ-RI
    Molecular point group: c1

    Geometry (in Angstrom), charge = 0, multiplicity = 1:

       Center              X                  Y                   Z               Mass
    ------------   -----------------  -----------------  -----------------  -----------------
         O            1.069242355082     0.472154151598     0.014706484314    15.994914619570
         O            2.528728355082    -1.109021848402    -0.711386515686    15.994914619570
         C           -2.343531844918    -0.048593848402     0.287627584314    12.000000000000
         C           -3.600469644918     0.777792151598     0.407603484314    12.000000000000
         C           -1.265037644918     0.391067151598    -0.295607515686    12.000000000000
         C            0.005888355082    -0.334574848402    -0.561503515686    12.000000000000
         C           -2.515612644918    -1.477743848402     0.863914484314    12.000000000000
         C           -4.711478644918     0.352194151598    -0.558662515686    12.000000000000
         C            3.352183355082     0.871042151598     0.439018484314    12.000000000000
         C            2.309638355082    -0.048236848402    -0.147325515686    12.000000000000
         C            4.755658355082     0.300433151598     0.314487484314    12.000000000000
         H           -3.295273744918     1.809709351598     0.200309684314     1.007825032230
         H           -3.981381644918     0.742887151598     1.436963484314     1.007825032230
         H           -1.275471644918     1.421604151598    -0.650031515686     1.007825032230
         H            0.200657355082    -0.438611848402    -1.634847515686     1.007825032230
         H            0.045045355082    -1.334395848402    -0.124452515686     1.007825032230
         H           -2.797547644918    -1.418810848402     1.923593484314     1.007825032230
         H           -3.313072644918    -2.029010848402     0.351634484314     1.007825032230
         H           -1.602862644918    -2.071359848402     0.788224484314     1.007825032230
         H           -5.046042644918    -0.669961848402    -0.359670515686     1.007825032230
         H           -4.355979644918     0.397598151598    -1.591756515686     1.007825032230
         H           -5.580105644918     1.011520151598    -0.466001515686     1.007825032230
         H            3.266130355082     1.837525151598    -0.070397515686     1.007825032230
         H            3.085063355082     1.059573151598     1.483571484314     1.007825032230
         H            4.831558355082    -0.654718848402     0.836794484314     1.007825032230
         H            5.008013355082     0.126100151598    -0.733320515686     1.007825032230
         H            5.488133355082     0.990341151598     0.741411484314     1.007825032230

  Basis Set: AUG-CC-PVTZ
    Blend: AUG-CC-PVTZ
  Basis Set: (AUG-CC-PVTZ AUX)
    Blend: AUG-CC-PVTZ-JKFIT
	 Reference Energy          =    -500.0366224757704003 [Eh]
	 Singles Energy            =      -0.0000000000000000 [Eh]
	 Same-Spin Energy          =      -0.5090984341350107 [Eh]
	 Opposite-Spin Energy      =      -1.7157988948066039 [Eh]
	 Correlation Energy        =      -2.2248973289416147 [Eh]
	 Total Energy              =    -502.2615198047120089 [Eh]

	 ================> DF-SCS-MP2 Energies <==================
	-----------------------------------------------------------
	 SCS Same-Spin Scale       =       0.3333333333333333 [-]
	 SCS Opposite-Spin Scale   =       1.2000000000000000 [-]
	 SCS Same-Spin Energy      =      -0.1696994780450035 [Eh]
	 SCS Opposite-Spin Energy  =      -2.0589586737679246 [Eh]
	 SCS Correlation Energy    =      -2.2286581518129283 [Eh]
	 SCS Total Energy          =    -502.2652806275833086 [Eh]
	-----------------------------------------------------------

  Dipole Moment: [D]
     X:    -1.4047      Y:     1.2116      Z:     0.7867     Total:     2.0149

*** Psi4 exiting successfully. Buy a developer a beer!
