                               Psi4 1.4a3.dev225

  ==> Input File <==

--------------------------------------------------------------------------
#psi4
#
memory 32 gb

molecule  {
0 1
  O       -1.1411000    -0.4541930    -0.0251880
  O       -2.5814580     1.1752260    -0.6867450
  C        2.3134570     0.0186930     0.2462000
  C        3.5222300    -0.8802230     0.3222130
  C        1.1937340    -0.4134970    -0.3651820
  C       -0.0647290     0.3542590    -0.5783780
  C        2.4850690     1.3863280     0.8546590
  C        4.7190700    -0.3405130    -0.4677320
  C       -3.4286640    -0.8122060     0.4327630
  C       -2.3749380     0.0938890    -0.1583950
  C       -4.8742436    -0.2069063     0.3079908
  H        3.2581340    -1.8761120    -0.0507320
  H        3.8122360    -1.0018650     1.3748590
  H        1.1815530    -1.4238220    -0.7735790
  H       -0.2705280     0.5138520    -1.6430550
  H       -0.0714200     1.3330110    -0.0949940
  H        3.0182560     1.3061200     1.8081990
  H        3.0814560     2.0379150     0.2067330
  H        1.5342700     1.8877430     1.0433380
  H        5.0646870     0.6170420    -0.0694620
  H        4.4484560    -0.1949880    -1.5176090
  H        5.5583810    -1.0408350    -0.4253590
  H       -3.3536290    -1.7820470    -0.0715700
  H       -3.1585900    -0.9983310     1.4781360
  H       -4.8922970     0.7333770     0.8287030
  H       -5.0879650    -0.0561110    -0.7346540
  H       -5.5642940    -0.9066400     0.7478690
units angstrom
no_reorient  #important for SAPT in psi4, default
symmetry c1  #important for SAPT in psi4, default
}

set PROPERTIES_ORIGIN ["COM"]
properties('MP2/aug-cc-pvtz', properties = ['dipole'])
--------------------------------------------------------------------------

    Molecular point group: c1
  Charge       = 0
  Multiplicity = 1
  Basis Set: AUG-CC-PVTZ
    Blend: AUG-CC-PVTZ
  Basis Set: (AUG-CC-PVTZ AUX)
    Blend: AUG-CC-PVTZ-JKFIT

    Orbital Energies [Eh]
    ---------------------

    Doubly Occupied:

       1A    -20.596975     2A    -20.540398     3A    -11.375501
       4A    -11.286688     5A    -11.244443     6A    -11.243959
       7A    -11.228552     8A    -11.226100     9A    -11.223403
      10A    -11.219247    11A    -11.217146    12A     -1.446674
      13A     -1.347009    14A     -1.112005    15A     -1.056739
      16A     -1.020443    17A     -0.976639    18A     -0.920979
      19A     -0.882425    20A     -0.833118    21A     -0.766651
      22A     -0.721927    23A     -0.686594    24A     -0.678887
      25A     -0.658622    26A     -0.637344    27A     -0.623822
      28A     -0.604523    29A     -0.589572    30A     -0.571769
      31A     -0.554619    32A     -0.547135    33A     -0.535422
      34A     -0.523676    35A     -0.516632    36A     -0.513386
      37A     -0.504305    38A     -0.496783    39A     -0.484479
      40A     -0.465713    41A     -0.457049    42A     -0.444104
      43A     -0.345934

  @DF-RHF Final Energy:  -500.03679723377479

   => Energetics <=

    Nuclear Repulsion Energy =            601.7574315032625236
    One-Electron Energy =               -1873.7336812857311088
    Two-Electron Energy =                 771.9394525486937937
    Total Energy =                       -500.0367972337747915
  Basis Set: (AUG-CC-PVTZ AUX)
    Blend: AUG-CC-PVTZ-RI
    Molecular point group: c1

    Geometry (in Angstrom), charge = 0, multiplicity = 1:

       Center              X                  Y                   Z               Mass
    ------------   -----------------  -----------------  -----------------  -----------------
         O           -1.083293301694    -0.461062230753    -0.011516459244    15.994914619570
         O           -2.523651301694     1.168356769247    -0.673073459244    15.994914619570
         C            2.371263698306     0.011823769247     0.259871540756    12.000000000000
         C            3.580036698306    -0.887092230753     0.335884540756    12.000000000000
         C            1.251540698306    -0.420366230753    -0.351510459244    12.000000000000
         C           -0.006922301694     0.347389769247    -0.564706459244    12.000000000000
         C            2.542875698306     1.379458769247     0.868330540756    12.000000000000
         C            4.776876698306    -0.347382230753    -0.454060459244    12.000000000000
         C           -3.370857301694    -0.819075230753     0.446434540756    12.000000000000
         C           -2.317131301694     0.087019769247    -0.144723459244    12.000000000000
         C           -4.816436901694    -0.213775530753     0.321662340756    12.000000000000
         H            3.315940698306    -1.882981230753    -0.037060459244     1.007825032230
         H            3.870042698306    -1.008734230753     1.388530540756     1.007825032230
         H            1.239359698306    -1.430691230753    -0.759907459244     1.007825032230
         H           -0.212721301694     0.506982769247    -1.629383459244     1.007825032230
         H           -0.013613301694     1.326141769247    -0.081322459244     1.007825032230
         H            3.076062698306     1.299250769247     1.821870540756     1.007825032230
         H            3.139262698306     2.031045769247     0.220404540756     1.007825032230
         H            1.592076698306     1.880873769247     1.057009540756     1.007825032230
         H            5.122493698306     0.610172769247    -0.055790459244     1.007825032230
         H            4.506262698306    -0.201857230753    -1.503937459244     1.007825032230
         H            5.616187698306    -1.047704230753    -0.411687459244     1.007825032230
         H           -3.295822301694    -1.788916230753    -0.057898459244     1.007825032230
         H           -3.100783301694    -1.005200230753     1.491807540756     1.007825032230
         H           -4.834490301694     0.726507769247     0.842374540756     1.007825032230
         H           -5.030158301694    -0.062980230753    -0.720982459244     1.007825032230
         H           -5.506487301694    -0.913509230753     0.761540540756     1.007825032230

  Basis Set: AUG-CC-PVTZ
    Blend: AUG-CC-PVTZ
  Basis Set: (AUG-CC-PVTZ AUX)
    Blend: AUG-CC-PVTZ-JKFIT
	 Reference Energy          =    -500.0367972337747915 [Eh]
	 Singles Energy            =      -0.0000000000000000 [Eh]
	 Same-Spin Energy          =      -0.5094499698824890 [Eh]
	 Opposite-Spin Energy      =      -1.7167713986160957 [Eh]
	 Correlation Energy        =      -2.2262213684985848 [Eh]
	 Total Energy              =    -502.2630186022733483 [Eh]

	 ================> DF-SCS-MP2 Energies <==================
	-----------------------------------------------------------
	 SCS Same-Spin Scale       =       0.3333333333333333 [-]
	 SCS Opposite-Spin Scale   =       1.2000000000000000 [-]
	 SCS Same-Spin Energy      =      -0.1698166566274963 [Eh]
	 SCS Opposite-Spin Energy  =      -2.0601256783393147 [Eh]
	 SCS Correlation Energy    =      -2.2299423349668110 [Eh]
	 SCS Total Energy          =    -502.2667395687416274 [Eh]
	-----------------------------------------------------------

  Dipole Moment: [D]
     X:     1.4321      Y:    -1.2021      Z:     0.8007     Total:     2.0340

*** Psi4 exiting successfully. Buy a developer a beer!
