                               Psi4 1.3.2 release

  ==> Input File <==

--------------------------------------------------------------------------
#psi4
#
memory 32 gb

molecule  {
0 1
  O        1.0716460     0.4753830     0.0137820
  O        2.5311320    -1.1057930    -0.7123110
  C       -2.3550523    -0.0669621     0.2924771
  C       -3.5980660     0.7810210     0.4066790
  C       -1.2626340     0.3942960    -0.2965320
  C        0.0082920    -0.3313460    -0.5624280
  C       -2.5132090    -1.4745150     0.8629900
  C       -4.7090750     0.3554230    -0.5595870
  C        3.3545870     0.8742710     0.4380940
  C        2.3120420    -0.0450080    -0.1482500
  C        4.7580620     0.3036620     0.3135630
  H       -3.3109408     1.8186316     0.2020044
  H       -3.9789780     0.7461160     1.4360390
  H       -1.2730680     1.4248330    -0.6509560
  H        0.2030610    -0.4353830    -1.6357720
  H        0.0474490    -1.3311670    -0.1253770
  H       -2.7951440    -1.4155820     1.9226690
  H       -3.3106690    -2.0257820     0.3507100
  H       -1.6004590    -2.0681310     0.7873000
  H       -5.0436390    -0.6667330    -0.3605950
  H       -4.3535760     0.4008270    -1.5926810
  H       -5.5777020     1.0147490    -0.4669260
  H        3.2685340     1.8407540    -0.0713220
  H        3.0874670     1.0628020     1.4826470
  H        4.8339620    -0.6514900     0.8358700
  H        5.0104170     0.1293290    -0.7342450
  H        5.4905370     0.9935700     0.7404870
units angstrom
no_reorient  #important for SAPT in psi4, default
symmetry c1  #important for SAPT in psi4, default
}

set PROPERTIES_ORIGIN ["COM"]
properties('MP2/aug-cc-pvtz', properties = ['dipole'])
--------------------------------------------------------------------------

    Molecular point group: c1
  Charge       = 0
  Multiplicity = 1
  Basis Set: AUG-CC-PVTZ
    Blend: AUG-CC-PVTZ
  Basis Set: (AUG-CC-PVTZ AUX)
    Blend: AUG-CC-PVTZ-JKFIT

    Orbital Energies [Eh]
    ---------------------

    Doubly Occupied:

       1A    -20.597736     2A    -20.541032     3A    -11.375812
       4A    -11.287120     5A    -11.242391     6A    -11.241817
       7A    -11.228272     8A    -11.226457     9A    -11.220867
      10A    -11.219526    11A    -11.218011    12A     -1.448478
      13A     -1.347914    14A     -1.113376    15A     -1.063965
      16A     -1.022563    17A     -0.974626    18A     -0.921702
      19A     -0.879625    20A     -0.835479    21A     -0.767788
      22A     -0.721840    23A     -0.687785    24A     -0.679419
      25A     -0.660545    26A     -0.637987    27A     -0.624598
      28A     -0.604830    29A     -0.587912    30A     -0.573750
      31A     -0.550825    32A     -0.545068    33A     -0.533451
      34A     -0.522403    35A     -0.517693    36A     -0.515497
      37A     -0.512239    38A     -0.492452    39A     -0.485283
      40A     -0.461005    41A     -0.457197    42A     -0.444827
      43A     -0.352018

  @DF-RHF Final Energy:  -500.03857661886377

   => Energetics <=

    Nuclear Repulsion Energy =            603.2273720193804820
    One-Electron Energy =               -1876.6455355752545984
    Two-Electron Energy =                 773.3795869370103446
    Total Energy =                       -500.0385766188637717
  Basis Set: (AUG-CC-PVTZ AUX)
    Blend: AUG-CC-PVTZ-RI
    Molecular point group: c1

    Geometry (in Angstrom), charge = 0, multiplicity = 1:

       Center              X                  Y                   Z               Mass
    ------------   -----------------  -----------------  -----------------  -----------------
         O            1.070429308728     0.473777488245     0.014245749077    15.994914619570
         O            2.529915308728    -1.107398511755    -0.711847250923    15.994914619570
         C           -2.356268991272    -0.068567611755     0.292940849077    12.000000000000
         C           -3.599282691272     0.779415488245     0.407142749077    12.000000000000
         C           -1.263850691272     0.392690488245    -0.296068250923    12.000000000000
         C            0.007075308728    -0.332951511755    -0.561964250923    12.000000000000
         C           -2.514425691272    -1.476120511755     0.863453749077    12.000000000000
         C           -4.710291691272     0.353817488245    -0.559123250923    12.000000000000
         C            3.353370308728     0.872665488245     0.438557749077    12.000000000000
         C            2.310825308728    -0.046613511755    -0.147786250923    12.000000000000
         C            4.756845308728     0.302056488245     0.314026749077    12.000000000000
         H           -3.312157491272     1.817026088245     0.202468149077     1.007825032230
         H           -3.980194691272     0.744510488245     1.436502749077     1.007825032230
         H           -1.274284691272     1.423227488245    -0.650492250923     1.007825032230
         H            0.201844308728    -0.436988511755    -1.635308250923     1.007825032230
         H            0.046232308728    -1.332772511755    -0.124913250923     1.007825032230
         H           -2.796360691272    -1.417187511755     1.923132749077     1.007825032230
         H           -3.311885691272    -2.027387511755     0.351173749077     1.007825032230
         H           -1.601675691272    -2.069736511755     0.787763749077     1.007825032230
         H           -5.044855691272    -0.668338511755    -0.360131250923     1.007825032230
         H           -4.354792691272     0.399221488245    -1.592217250923     1.007825032230
         H           -5.578918691272     1.013143488245    -0.466462250923     1.007825032230
         H            3.267317308728     1.839148488245    -0.070858250923     1.007825032230
         H            3.086250308728     1.061196488245     1.483110749077     1.007825032230
         H            4.832745308728    -0.653095511755     0.836333749077     1.007825032230
         H            5.009200308728     0.127723488245    -0.733781250923     1.007825032230
         H            5.489320308728     0.991964488245     0.740950749077     1.007825032230

  Basis Set: AUG-CC-PVTZ
    Blend: AUG-CC-PVTZ
  Basis Set: (AUG-CC-PVTZ AUX)
    Blend: AUG-CC-PVTZ-JKFIT
	 Reference Energy          =    -500.0385766188637717 [Eh]
	 Singles Energy            =      -0.0000000000000000 [Eh]
	 Same-Spin Energy          =      -0.5093848894080841 [Eh]
	 Opposite-Spin Energy      =      -1.7162398294827941 [Eh]
	 Correlation Energy        =      -2.2256247188908782 [Eh]
	 Total Energy              =    -502.2642013377546277 [Eh]

	 ================> DF-SCS-MP2 Energies <==================
	-----------------------------------------------------------
	 SCS Same-Spin Scale       =       0.3333333333333333 [-]
	 SCS Opposite-Spin Scale   =       1.2000000000000000 [-]
	 SCS Same-Spin Energy      =      -0.1697949631360280 [Eh]
	 SCS Opposite-Spin Energy  =      -2.0594877953793529 [Eh]
	 SCS Correlation Energy    =      -2.2292827585153807 [Eh]
	 SCS Total Energy          =    -502.2678593773791249 [Eh]
	-----------------------------------------------------------

  Dipole Moment: [D]
     X:    -1.4260      Y:     1.1965      Z:     0.8095     Total:     2.0299

*** Psi4 exiting successfully. Buy a developer a beer!
