                               Psi4 1.3.2 release

  ==> Input File <==

--------------------------------------------------------------------------
#psi4
#
memory 32 gb

molecule  {
0 1
  O        1.1012772     0.5310841     0.0461972
  O        2.5311320    -1.1057930    -0.7123110
  C       -2.3693550    -0.0883010     0.2982860
  C       -3.5980660     0.7810210     0.4066790
  C       -1.2626340     0.3942960    -0.2965320
  C        0.0082920    -0.3313460    -0.5624280
  C       -2.5132090    -1.4745150     0.8629900
  C       -4.7090750     0.3554230    -0.5595870
  C        3.2964587     0.9235142     0.4589252
  C        2.3120420    -0.0450080    -0.1482500
  C        4.7580620     0.3036620     0.3135630
  H       -3.3290990     1.8240090     0.2046860
  H       -3.9789780     0.7461160     1.4360390
  H       -1.2730680     1.4248330    -0.6509560
  H        0.2030610    -0.4353830    -1.6357720
  H        0.0474490    -1.3311670    -0.1253770
  H       -2.7951440    -1.4155820     1.9226690
  H       -3.3106690    -2.0257820     0.3507100
  H       -1.6004590    -2.0681310     0.7873000
  H       -5.0436390    -0.6667330    -0.3605950
  H       -4.3535760     0.4008270    -1.5926810
  H       -5.5777020     1.0147490    -0.4669260
  H        3.2685340     1.8407540    -0.0713220
  H        3.0874670     1.0628020     1.4826470
  H        4.8339620    -0.6514900     0.8358700
  H        5.0104170     0.1293290    -0.7342450
  H        5.4905370     0.9935700     0.7404870
units angstrom
no_reorient  #important for SAPT in psi4, default
symmetry c1  #important for SAPT in psi4, default
}

set PROPERTIES_ORIGIN ["COM"]
properties('MP2/aug-cc-pvtz', properties = ['dipole'])
--------------------------------------------------------------------------

    Molecular point group: c1
  Charge       = 0
  Multiplicity = 1
  Basis Set: AUG-CC-PVTZ
    Blend: AUG-CC-PVTZ
  Basis Set: (AUG-CC-PVTZ AUX)
    Blend: AUG-CC-PVTZ-JKFIT

    Orbital Energies [Eh]
    ---------------------

    Doubly Occupied:

       1A    -20.598537     2A    -20.544046     3A    -11.374560
       4A    -11.292751     5A    -11.246062     6A    -11.234314
       7A    -11.229575     8A    -11.228006     9A    -11.225210
      10A    -11.220216    11A    -11.216905    12A     -1.439464
      13A     -1.345081    14A     -1.114132    15A     -1.054675
      16A     -1.019608    17A     -0.976923    18A     -0.916261
      19A     -0.878778    20A     -0.833836    21A     -0.766172
      22A     -0.722495    23A     -0.681866    24A     -0.676927
      25A     -0.659644    26A     -0.642029    27A     -0.623460
      28A     -0.603358    29A     -0.586332    30A     -0.572464
      31A     -0.554048    32A     -0.546989    33A     -0.535291
      34A     -0.519393    35A     -0.517584    36A     -0.514555
      37A     -0.504305    38A     -0.490187    39A     -0.483842
      40A     -0.467335    41A     -0.462062    42A     -0.444311
      43A     -0.347086

  @DF-RHF Final Energy:  -500.02453251842780

   => Energetics <=

    Nuclear Repulsion Energy =            601.7192094977951911
    One-Electron Energy =               -1873.6661365222873883
    Two-Electron Energy =                 771.9223945060643928
    Total Energy =                       -500.0245325184278045
  Basis Set: (AUG-CC-PVTZ AUX)
    Blend: AUG-CC-PVTZ-RI
    Molecular point group: c1

    Geometry (in Angstrom), charge = 0, multiplicity = 1:

       Center              X                  Y                   Z               Mass
    ------------   -----------------  -----------------  -----------------  -----------------
         O            1.102709348978     0.521592061119     0.041274778756    15.994914619570
         O            2.532564148978    -1.115285038881    -0.717233421244    15.994914619570
         C           -2.367922851022    -0.097793038881     0.293363578756    12.000000000000
         C           -3.596633851022     0.771528961119     0.401756578756    12.000000000000
         C           -1.261201851022     0.384803961119    -0.301454421244    12.000000000000
         C            0.009724148978    -0.340838038881    -0.567350421244    12.000000000000
         C           -2.511776851022    -1.484007038881     0.858067578756    12.000000000000
         C           -4.707642851022     0.345930961119    -0.564509421244    12.000000000000
         C            3.297890848978     0.914022161119     0.454002778756    12.000000000000
         C            2.313474148978    -0.054500038881    -0.153172421244    12.000000000000
         C            4.759494148978     0.294169961119     0.308640578756    12.000000000000
         H           -3.327666851022     1.814516961119     0.199763578756     1.007825032230
         H           -3.977545851022     0.736623961119     1.431116578756     1.007825032230
         H           -1.271635851022     1.415340961119    -0.655878421244     1.007825032230
         H            0.204493148978    -0.444875038881    -1.640694421244     1.007825032230
         H            0.048881148978    -1.340659038881    -0.130299421244     1.007825032230
         H           -2.793711851022    -1.425074038881     1.917746578756     1.007825032230
         H           -3.309236851022    -2.035274038881     0.345787578756     1.007825032230
         H           -1.599026851022    -2.077623038881     0.782377578756     1.007825032230
         H           -5.042206851022    -0.676225038881    -0.365517421244     1.007825032230
         H           -4.352143851022     0.391334961119    -1.597603421244     1.007825032230
         H           -5.576269851022     1.005256961119    -0.471848421244     1.007825032230
         H            3.269966148978     1.831261961119    -0.076244421244     1.007825032230
         H            3.088899148978     1.053309961119     1.477724578756     1.007825032230
         H            4.835394148978    -0.660982038881     0.830947578756     1.007825032230
         H            5.011849148978     0.119836961119    -0.739167421244     1.007825032230
         H            5.491969148978     0.984077961119     0.735564578756     1.007825032230

  Basis Set: AUG-CC-PVTZ
    Blend: AUG-CC-PVTZ
  Basis Set: (AUG-CC-PVTZ AUX)
    Blend: AUG-CC-PVTZ-JKFIT
	 Reference Energy          =    -500.0245325184278045 [Eh]
	 Singles Energy            =      -0.0000000000000000 [Eh]
	 Same-Spin Energy          =      -0.5104837917098046 [Eh]
	 Opposite-Spin Energy      =      -1.7196815228385840 [Eh]
	 Correlation Energy        =      -2.2301653145483886 [Eh]
	 Total Energy              =    -502.2546978329762055 [Eh]

	 ================> DF-SCS-MP2 Energies <==================
	-----------------------------------------------------------
	 SCS Same-Spin Scale       =       0.3333333333333333 [-]
	 SCS Opposite-Spin Scale   =       1.2000000000000000 [-]
	 SCS Same-Spin Energy      =      -0.1701612639032682 [Eh]
	 SCS Opposite-Spin Energy  =      -2.0636178274063006 [Eh]
	 SCS Correlation Energy    =      -2.2337790913095690 [Eh]
	 SCS Total Energy          =    -502.2583116097373477 [Eh]
	-----------------------------------------------------------

  Dipole Moment: [D]
     X:    -1.7452      Y:     1.0428      Z:     0.7351     Total:     2.1618

*** Psi4 exiting successfully. Buy a developer a beer!
