                               Psi4 1.3.2 release

  ==> Input File <==

--------------------------------------------------------------------------
#psi4
#
memory 32 gb

molecule  {
0 1
  O        1.0716460     0.4753830     0.0137820
  O        2.5311320    -1.1057930    -0.7123110
  C       -2.3693550    -0.0883010     0.2982860
  C       -3.5980660     0.7810210     0.4066790
  C       -1.2626340     0.3942960    -0.2965320
  C        0.0082920    -0.3313460    -0.5624280
  C       -2.5132090    -1.4745150     0.8629900
  C       -4.7090750     0.3554230    -0.5595870
  C        3.3545870     0.8742710     0.4380940
  C        2.4951453    -0.1218265    -0.1721686
  C        4.7580620     0.3036620     0.3135630
  H       -3.3290990     1.8240090     0.2046860
  H       -3.9789780     0.7461160     1.4360390
  H       -1.2730680     1.4248330    -0.6509560
  H        0.2030610    -0.4353830    -1.6357720
  H        0.0474490    -1.3311670    -0.1253770
  H       -2.7951440    -1.4155820     1.9226690
  H       -3.3106690    -2.0257820     0.3507100
  H       -1.6004590    -2.0681310     0.7873000
  H       -5.0436390    -0.6667330    -0.3605950
  H       -4.3535760     0.4008270    -1.5926810
  H       -5.5777020     1.0147490    -0.4669260
  H        3.2685340     1.8407540    -0.0713220
  H        3.0874670     1.0628020     1.4826470
  H        4.8339620    -0.6514900     0.8358700
  H        5.0104170     0.1293290    -0.7342450
  H        5.4905370     0.9935700     0.7404870
units angstrom
no_reorient  #important for SAPT in psi4, default
symmetry c1  #important for SAPT in psi4, default
}

set PROPERTIES_ORIGIN ["COM"]
properties('MP2/aug-cc-pvtz', properties = ['dipole'])
--------------------------------------------------------------------------

    Molecular point group: c1
  Charge       = 0
  Multiplicity = 1
  Basis Set: AUG-CC-PVTZ
    Blend: AUG-CC-PVTZ
  Basis Set: (AUG-CC-PVTZ AUX)
    Blend: AUG-CC-PVTZ-JKFIT

    Orbital Energies [Eh]
    ---------------------

    Doubly Occupied:

       1A    -20.579682     2A    -20.543439     3A    -11.381396
       4A    -11.263095     5A    -11.254717     6A    -11.230307
       7A    -11.229823     8A    -11.219199     9A    -11.216726
      10A    -11.211696    11A    -11.210828    12A     -1.487904
      13A     -1.312955    14A     -1.100332    15A     -1.088196
      16A     -1.005636    17A     -0.960279    18A     -0.912354
      19A     -0.878425    20A     -0.819651    21A     -0.758224
      22A     -0.721823    23A     -0.692945    24A     -0.678001
      25A     -0.671932    26A     -0.640509    27A     -0.617272
      28A     -0.595713    29A     -0.581680    30A     -0.567129
      31A     -0.559638    32A     -0.548612    33A     -0.538643
      34A     -0.535031    35A     -0.514438    36A     -0.513167
      37A     -0.506083    38A     -0.502896    39A     -0.476948
      40A     -0.460662    41A     -0.431495    42A     -0.426295
      43A     -0.331208

  @DF-RHF Final Energy:  -499.99965816329916

   => Energetics <=

    Nuclear Repulsion Energy =            602.2085717526704229
    One-Electron Energy =               -1874.8624875632112889
    Two-Electron Energy =                 772.6542576472417068
    Total Energy =                       -499.9996581632991592
  Basis Set: (AUG-CC-PVTZ AUX)
    Blend: AUG-CC-PVTZ-RI
    Molecular point group: c1

    Geometry (in Angstrom), charge = 0, multiplicity = 1:

       Center              X                  Y                   Z               Mass
    ------------   -----------------  -----------------  -----------------  -----------------
         O            1.057571437743     0.481287779365     0.015620464995    15.994914619570
         O            2.517057437743    -1.099888220635    -0.710472535005    15.994914619570
         C           -2.383429562257    -0.082396220635     0.300124464995    12.000000000000
         C           -3.612140562257     0.786925779365     0.408517464995    12.000000000000
         C           -1.276708562257     0.400200779365    -0.294693535005    12.000000000000
         C           -0.005782562257    -0.325441220635    -0.560589535005    12.000000000000
         C           -2.527283562257    -1.468610220635     0.864828464995    12.000000000000
         C           -4.723149562257     0.361327779365    -0.557748535005    12.000000000000
         C            3.340512437743     0.880175779365     0.439932464995    12.000000000000
         C            2.481070737743    -0.115921720635    -0.170330135005    12.000000000000
         C            4.743987437743     0.309566779365     0.315401464995    12.000000000000
         H           -3.343173562257     1.829913779365     0.206524464995     1.007825032230
         H           -3.993052562257     0.752020779365     1.437877464995     1.007825032230
         H           -1.287142562257     1.430737779365    -0.649117535005     1.007825032230
         H            0.188986437743    -0.429478220635    -1.633933535005     1.007825032230
         H            0.033374437743    -1.325262220635    -0.123538535005     1.007825032230
         H           -2.809218562257    -1.409677220635     1.924507464995     1.007825032230
         H           -3.324743562257    -2.019877220635     0.352548464995     1.007825032230
         H           -1.614533562257    -2.062226220635     0.789138464995     1.007825032230
         H           -5.057713562257    -0.660828220635    -0.358756535005     1.007825032230
         H           -4.367650562257     0.406731779365    -1.590842535005     1.007825032230
         H           -5.591776562257     1.020653779365    -0.465087535005     1.007825032230
         H            3.254459437743     1.846658779365    -0.069483535005     1.007825032230
         H            3.073392437743     1.068706779365     1.484485464995     1.007825032230
         H            4.819887437743    -0.645585220635     0.837708464995     1.007825032230
         H            4.996342437743     0.135233779365    -0.732406535005     1.007825032230
         H            5.476462437743     0.999474779365     0.742325464995     1.007825032230

  Basis Set: AUG-CC-PVTZ
    Blend: AUG-CC-PVTZ
  Basis Set: (AUG-CC-PVTZ AUX)
    Blend: AUG-CC-PVTZ-JKFIT
	 Reference Energy          =    -499.9996581632991592 [Eh]
	 Singles Energy            =      -0.0000000000000000 [Eh]
	 Same-Spin Energy          =      -0.5109452403025306 [Eh]
	 Opposite-Spin Energy      =      -1.7192922420901491 [Eh]
	 Correlation Energy        =      -2.2302374823926798 [Eh]
	 Total Energy              =    -502.2298956456918404 [Eh]

	 ================> DF-SCS-MP2 Energies <==================
	-----------------------------------------------------------
	 SCS Same-Spin Scale       =       0.3333333333333333 [-]
	 SCS Opposite-Spin Scale   =       1.2000000000000000 [-]
	 SCS Same-Spin Energy      =      -0.1703150801008435 [Eh]
	 SCS Opposite-Spin Energy  =      -2.0631506905081789 [Eh]
	 SCS Correlation Energy    =      -2.2334657706090226 [Eh]
	 SCS Total Energy          =    -502.2331239339081890 [Eh]
	-----------------------------------------------------------

  Dipole Moment: [D]
     X:     0.7691      Y:     0.7140      Z:     0.6813     Total:     1.2512

*** Psi4 exiting successfully. Buy a developer a beer!
