                               Psi4 1.3.2 release

  ==> Input File <==

--------------------------------------------------------------------------
#psi4
#
memory 32 gb

molecule  {
0 1
  O        1.0716460     0.4753830     0.0137820
  O        2.5311320    -1.1057930    -0.7123110
  C       -2.3693550    -0.0883010     0.2982860
  C       -3.5718982     0.8194902     0.3819851
  C       -1.2853308     0.4347262    -0.3041041
  C        0.0082920    -0.3313460    -0.5624280
  C       -2.5132090    -1.4745150     0.8629900
  C       -4.7090750     0.3554230    -0.5595870
  C        3.3545870     0.8742710     0.4380940
  C        2.3120420    -0.0450080    -0.1482500
  C        4.7580620     0.3036620     0.3135630
  H       -3.3290990     1.8240090     0.2046860
  H       -3.9789780     0.7461160     1.4360390
  H       -1.2730680     1.4248330    -0.6509560
  H        0.2030610    -0.4353830    -1.6357720
  H        0.0474490    -1.3311670    -0.1253770
  H       -2.7951440    -1.4155820     1.9226690
  H       -3.3106690    -2.0257820     0.3507100
  H       -1.6004590    -2.0681310     0.7873000
  H       -5.0436390    -0.6667330    -0.3605950
  H       -4.3535760     0.4008270    -1.5926810
  H       -5.5777020     1.0147490    -0.4669260
  H        3.2685340     1.8407540    -0.0713220
  H        3.0874670     1.0628020     1.4826470
  H        4.8339620    -0.6514900     0.8358700
  H        5.0104170     0.1293290    -0.7342450
  H        5.4905370     0.9935700     0.7404870
units angstrom
no_reorient  #important for SAPT in psi4, default
symmetry c1  #important for SAPT in psi4, default
}

set PROPERTIES_ORIGIN ["COM"]
properties('MP2/aug-cc-pvtz', properties = ['dipole'])
--------------------------------------------------------------------------

    Molecular point group: c1
  Charge       = 0
  Multiplicity = 1
  Basis Set: AUG-CC-PVTZ
    Blend: AUG-CC-PVTZ
  Basis Set: (AUG-CC-PVTZ AUX)
    Blend: AUG-CC-PVTZ-JKFIT

    Orbital Energies [Eh]
    ---------------------

    Doubly Occupied:

       1A    -20.596462     2A    -20.540314     3A    -11.374921
       4A    -11.286781     5A    -11.244136     6A    -11.241888
       7A    -11.229023     8A    -11.227027     9A    -11.221600
      10A    -11.219045    11A    -11.217656    12A     -1.447243
      13A     -1.346837    14A     -1.111508    15A     -1.062989
      16A     -1.015988    17A     -0.976488    18A     -0.922427
      19A     -0.878072    20A     -0.832707    21A     -0.766571
      22A     -0.727221    23A     -0.688920    24A     -0.679203
      25A     -0.659616    26A     -0.641034    27A     -0.619038
      28A     -0.606259    29A     -0.586461    30A     -0.572219
      31A     -0.553753    32A     -0.544317    33A     -0.533394
      34A     -0.524488    35A     -0.519347    36A     -0.514487
      37A     -0.512009    38A     -0.492294    39A     -0.485380
      40A     -0.461250    41A     -0.456728    42A     -0.443483
      43A     -0.345382

  @DF-RHF Final Energy:  -500.03324965952561

   => Energetics <=

    Nuclear Repulsion Energy =            602.6446168595747395
    One-Electron Energy =               -1875.5037997268127583
    Two-Electron Energy =                 772.8259332077122963
    Total Energy =                       -500.0332496595256089
  Basis Set: (AUG-CC-PVTZ AUX)
    Blend: AUG-CC-PVTZ-RI
    Molecular point group: c1

    Geometry (in Angstrom), charge = 0, multiplicity = 1:

       Center              X                  Y                   Z               Mass
    ------------   -----------------  -----------------  -----------------  -----------------
         O            1.071379125596     0.469318305299     0.016262099565    15.994914619570
         O            2.530865125596    -1.111857694701    -0.709830900435    15.994914619570
         C           -2.369621874404    -0.094365694701     0.300766099565    12.000000000000
         C           -3.572165074404     0.813425505299     0.384465199565    12.000000000000
         C           -1.285597674404     0.428661505299    -0.301624000435    12.000000000000
         C            0.008025125596    -0.337410694701    -0.559947900435    12.000000000000
         C           -2.513475874404    -1.480579694701     0.865470099565    12.000000000000
         C           -4.709341874404     0.349358305299    -0.557106900435    12.000000000000
         C            3.354320125596     0.868206305299     0.440574099565    12.000000000000
         C            2.311775125596    -0.051072694701    -0.145769900435    12.000000000000
         C            4.757795125596     0.297597305299     0.316043099565    12.000000000000
         H           -3.329365874404     1.817944305299     0.207166099565     1.007825032230
         H           -3.979244874404     0.740051305299     1.438519099565     1.007825032230
         H           -1.273334874404     1.418768305299    -0.648475900435     1.007825032230
         H            0.202794125596    -0.441447694701    -1.633291900435     1.007825032230
         H            0.047182125596    -1.337231694701    -0.122896900435     1.007825032230
         H           -2.795410874404    -1.421646694701     1.925149099565     1.007825032230
         H           -3.310935874404    -2.031846694701     0.353190099565     1.007825032230
         H           -1.600725874404    -2.074195694701     0.789780099565     1.007825032230
         H           -5.043905874404    -0.672797694701    -0.358114900435     1.007825032230
         H           -4.353842874404     0.394762305299    -1.590200900435     1.007825032230
         H           -5.577968874404     1.008684305299    -0.464445900435     1.007825032230
         H            3.268267125596     1.834689305299    -0.068841900435     1.007825032230
         H            3.087200125596     1.056737305299     1.485127099565     1.007825032230
         H            4.833695125596    -0.657554694701     0.838350099565     1.007825032230
         H            5.010150125596     0.123264305299    -0.731764900435     1.007825032230
         H            5.490270125596     0.987505305299     0.742967099565     1.007825032230

  Basis Set: AUG-CC-PVTZ
    Blend: AUG-CC-PVTZ
  Basis Set: (AUG-CC-PVTZ AUX)
    Blend: AUG-CC-PVTZ-JKFIT
	 Reference Energy          =    -500.0332496595256089 [Eh]
	 Singles Energy            =      -0.0000000000000000 [Eh]
	 Same-Spin Energy          =      -0.5094134780600656 [Eh]
	 Opposite-Spin Energy      =      -1.7166385932479389 [Eh]
	 Correlation Energy        =      -2.2260520713080045 [Eh]
	 Total Energy              =    -502.2593017308336130 [Eh]

	 ================> DF-SCS-MP2 Energies <==================
	-----------------------------------------------------------
	 SCS Same-Spin Scale       =       0.3333333333333333 [-]
	 SCS Opposite-Spin Scale   =       1.2000000000000000 [-]
	 SCS Same-Spin Energy      =      -0.1698044926866885 [Eh]
	 SCS Opposite-Spin Energy  =      -2.0599663118975267 [Eh]
	 SCS Correlation Energy    =      -2.2297708045842151 [Eh]
	 SCS Total Energy          =    -502.2630204641098430 [Eh]
	-----------------------------------------------------------

  Dipole Moment: [D]
     X:    -1.4439      Y:     1.1863      Z:     0.8297     Total:     2.0446

*** Psi4 exiting successfully. Buy a developer a beer!
