                               Psi4 1.3.2 release

  ==> Input File <==

--------------------------------------------------------------------------
#psi4
#
memory 32 gb

molecule  {
0 1
  O        1.0716460     0.4753830     0.0137820
  O        2.5311320    -1.1057930    -0.7123110
  C       -2.3578020    -0.0739164     0.3170815
  C       -3.5980660     0.7810210     0.4066790
  C       -1.2626340     0.3942960    -0.2965320
  C        0.0082920    -0.3313460    -0.5624280
  C       -2.5132090    -1.4745150     0.8629900
  C       -4.7244168     0.3752824    -0.5503239
  C        3.3545870     0.8742710     0.4380940
  C        2.3120420    -0.0450080    -0.1482500
  C        4.7580620     0.3036620     0.3135630
  H       -3.3290990     1.8240090     0.2046860
  H       -3.9789780     0.7461160     1.4360390
  H       -1.2730680     1.4248330    -0.6509560
  H        0.2030610    -0.4353830    -1.6357720
  H        0.0474490    -1.3311670    -0.1253770
  H       -2.7951440    -1.4155820     1.9226690
  H       -3.3106690    -2.0257820     0.3507100
  H       -1.6004590    -2.0681310     0.7873000
  H       -5.0436390    -0.6667330    -0.3605950
  H       -4.3535760     0.4008270    -1.5926810
  H       -5.5777020     1.0147490    -0.4669260
  H        3.2685340     1.8407540    -0.0713220
  H        3.0874670     1.0628020     1.4826470
  H        4.8339620    -0.6514900     0.8358700
  H        5.0104170     0.1293290    -0.7342450
  H        5.4905370     0.9935700     0.7404870
units angstrom
no_reorient  #important for SAPT in psi4, default
symmetry c1  #important for SAPT in psi4, default
}

set PROPERTIES_ORIGIN ["COM"]
properties('MP2/aug-cc-pvtz', properties = ['dipole'])
--------------------------------------------------------------------------

    Molecular point group: c1
  Charge       = 0
  Multiplicity = 1
  Basis Set: AUG-CC-PVTZ
    Blend: AUG-CC-PVTZ
  Basis Set: (AUG-CC-PVTZ AUX)
    Blend: AUG-CC-PVTZ-JKFIT

    Orbital Energies [Eh]
    ---------------------

    Doubly Occupied:

       1A    -20.597546     2A    -20.540932     3A    -11.375687
       4A    -11.286953     5A    -11.244109     6A    -11.242302
       7A    -11.228251     8A    -11.226445     9A    -11.223170
      10A    -11.219682    11A    -11.217948    12A     -1.448342
      13A     -1.347799    14A     -1.112412    15A     -1.063939
      16A     -1.022064    17A     -0.977284    18A     -0.920387
      19A     -0.879578    20A     -0.834299    21A     -0.767647
      22A     -0.722371    23A     -0.687903    24A     -0.679856
      25A     -0.660332    26A     -0.638582    27A     -0.622868
      28A     -0.605979    29A     -0.588861    30A     -0.573054
      31A     -0.553113    32A     -0.546941    33A     -0.533810
      34A     -0.522373    35A     -0.517612    36A     -0.514877
      37A     -0.510266    38A     -0.492353    39A     -0.480364
      40A     -0.466270    41A     -0.457506    42A     -0.444731
      43A     -0.348252

  @DF-RHF Final Energy:  -500.03753189092538

   => Energetics <=

    Nuclear Repulsion Energy =            602.9250570120264001
    One-Electron Energy =               -1876.0350763433914381
    Two-Electron Energy =                 773.0724874404396587
    Total Energy =                       -500.0375318909253792
  Basis Set: (AUG-CC-PVTZ AUX)
    Blend: AUG-CC-PVTZ-RI
    Molecular point group: c1

    Geometry (in Angstrom), charge = 0, multiplicity = 1:

       Center              X                  Y                   Z               Mass
    ------------   -----------------  -----------------  -----------------  -----------------
         O            1.071937160271     0.472750805045     0.011625164856    15.994914619570
         O            2.531423160271    -1.108425194955    -0.714467835144    15.994914619570
         C           -2.357510839729    -0.076548594955     0.314924664856    12.000000000000
         C           -3.597774839729     0.778388805045     0.404522164856    12.000000000000
         C           -1.262342839729     0.391663805045    -0.298688835144    12.000000000000
         C            0.008583160271    -0.333978194955    -0.564584835144    12.000000000000
         C           -2.512917839729    -1.477147194955     0.860833164856    12.000000000000
         C           -4.724125639729     0.372650205045    -0.552480735144    12.000000000000
         C            3.354878160271     0.871638805045     0.435937164856    12.000000000000
         C            2.312333160271    -0.047640194955    -0.150406835144    12.000000000000
         C            4.758353160271     0.301029805045     0.311406164856    12.000000000000
         H           -3.328807839729     1.821376805045     0.202529164856     1.007825032230
         H           -3.978686839729     0.743483805045     1.433882164856     1.007825032230
         H           -1.272776839729     1.422200805045    -0.653112835144     1.007825032230
         H            0.203352160271    -0.438015194955    -1.637928835144     1.007825032230
         H            0.047740160271    -1.333799194955    -0.127533835144     1.007825032230
         H           -2.794852839729    -1.418214194955     1.920512164856     1.007825032230
         H           -3.310377839729    -2.028414194955     0.348553164856     1.007825032230
         H           -1.600167839729    -2.070763194955     0.785143164856     1.007825032230
         H           -5.043347839729    -0.669365194955    -0.362751835144     1.007825032230
         H           -4.353284839729     0.398194805045    -1.594837835144     1.007825032230
         H           -5.577410839729     1.012116805045    -0.469082835144     1.007825032230
         H            3.268825160271     1.838121805045    -0.073478835144     1.007825032230
         H            3.087758160271     1.060169805045     1.480490164856     1.007825032230
         H            4.834253160271    -0.654122194955     0.833713164856     1.007825032230
         H            5.010708160271     0.126696805045    -0.736401835144     1.007825032230
         H            5.490828160271     0.990937805045     0.738330164856     1.007825032230

  Basis Set: AUG-CC-PVTZ
    Blend: AUG-CC-PVTZ
  Basis Set: (AUG-CC-PVTZ AUX)
    Blend: AUG-CC-PVTZ-JKFIT
	 Reference Energy          =    -500.0375318909253792 [Eh]
	 Singles Energy            =      -0.0000000000000000 [Eh]
	 Same-Spin Energy          =      -0.5096279598801137 [Eh]
	 Opposite-Spin Energy      =      -1.7166596217192058 [Eh]
	 Correlation Energy        =      -2.2262875815993195 [Eh]
	 Total Energy              =    -502.2638194725246876 [Eh]

	 ================> DF-SCS-MP2 Energies <==================
	-----------------------------------------------------------
	 SCS Same-Spin Scale       =       0.3333333333333333 [-]
	 SCS Opposite-Spin Scale   =       1.2000000000000000 [-]
	 SCS Same-Spin Energy      =      -0.1698759866267046 [Eh]
	 SCS Opposite-Spin Energy  =      -2.0599915460630469 [Eh]
	 SCS Correlation Energy    =      -2.2298675326897515 [Eh]
	 SCS Total Energy          =    -502.2673994236151316 [Eh]
	-----------------------------------------------------------

  Dipole Moment: [D]
     X:    -1.4386      Y:     1.1866      Z:     0.8069     Total:     2.0319

*** Psi4 exiting successfully. Buy a developer a beer!
