                               Psi4 1.3.2 release

  ==> Input File <==

--------------------------------------------------------------------------
#psi4
#
memory 32 gb

molecule  {
0 1
  O        1.0716460     0.4753830     0.0137820
  O        2.5311320    -1.1057930    -0.7123110
  C       -2.3812823    -0.1024208     0.2795235
  C       -3.5980660     0.7810210     0.4066790
  C       -1.2626340     0.3942960    -0.2965320
  C        0.0082920    -0.3313460    -0.5624280
  C       -2.5132090    -1.4745150     0.8629900
  C       -4.6933947     0.3356933    -0.5685557
  C        3.3545870     0.8742710     0.4380940
  C        2.3120420    -0.0450080    -0.1482500
  C        4.7580620     0.3036620     0.3135630
  H       -3.3290990     1.8240090     0.2046860
  H       -3.9789780     0.7461160     1.4360390
  H       -1.2730680     1.4248330    -0.6509560
  H        0.2030610    -0.4353830    -1.6357720
  H        0.0474490    -1.3311670    -0.1253770
  H       -2.7951440    -1.4155820     1.9226690
  H       -3.3106690    -2.0257820     0.3507100
  H       -1.6004590    -2.0681310     0.7873000
  H       -5.0436390    -0.6667330    -0.3605950
  H       -4.3535760     0.4008270    -1.5926810
  H       -5.5777020     1.0147490    -0.4669260
  H        3.2685340     1.8407540    -0.0713220
  H        3.0874670     1.0628020     1.4826470
  H        4.8339620    -0.6514900     0.8358700
  H        5.0104170     0.1293290    -0.7342450
  H        5.4905370     0.9935700     0.7404870
units angstrom
no_reorient  #important for SAPT in psi4, default
symmetry c1  #important for SAPT in psi4, default
}

set PROPERTIES_ORIGIN ["COM"]
properties('MP2/aug-cc-pvtz', properties = ['dipole'])
--------------------------------------------------------------------------

    Molecular point group: c1
  Charge       = 0
  Multiplicity = 1
  Basis Set: AUG-CC-PVTZ
    Blend: AUG-CC-PVTZ
  Basis Set: (AUG-CC-PVTZ AUX)
    Blend: AUG-CC-PVTZ-JKFIT

    Orbital Energies [Eh]
    ---------------------

    Doubly Occupied:

       1A    -20.597126     2A    -20.540625     3A    -11.375388
       4A    -11.286134     5A    -11.244627     6A    -11.242114
       7A    -11.228715     8A    -11.226407     9A    -11.223658
      10A    -11.219018    11A    -11.217806    12A     -1.447944
      13A     -1.347443    14A     -1.112661    15A     -1.063914
      16A     -1.021615    17A     -0.978686    18A     -0.918888
      19A     -0.878765    20A     -0.832925    21A     -0.767256
      22A     -0.723090    23A     -0.687826    24A     -0.680207
      25A     -0.660024    26A     -0.638768    27A     -0.624828
      28A     -0.604619    29A     -0.587761    30A     -0.575831
      31A     -0.553331    32A     -0.541579    33A     -0.533599
      34A     -0.522048    35A     -0.517475    36A     -0.516363
      37A     -0.511567    38A     -0.492207    39A     -0.487148
      40A     -0.463953    41A     -0.457131    42A     -0.444158
      43A     -0.343812

  @DF-RHF Final Energy:  -500.03673475239930

   => Energetics <=

    Nuclear Repulsion Energy =            603.2244302634042015
    One-Electron Energy =               -1876.6442526464791172
    Two-Electron Energy =                 773.3830876306756181
    Total Energy =                       -500.0367347523992976
  Basis Set: (AUG-CC-PVTZ AUX)
    Blend: AUG-CC-PVTZ-RI
    Molecular point group: c1

    Geometry (in Angstrom), charge = 0, multiplicity = 1:

       Center              X                  Y                   Z               Mass
    ------------   -----------------  -----------------  -----------------  -----------------
         O            1.071357449271     0.477984907113     0.015913525823    15.994914619570
         O            2.530843449271    -1.103191092887    -0.710179474177    15.994914619570
         C           -2.381570850729    -0.099818892887     0.281655025823    12.000000000000
         C           -3.598354550729     0.783622907113     0.408810525823    12.000000000000
         C           -1.262922550729     0.396897907113    -0.294400474177    12.000000000000
         C            0.008003449271    -0.328744092887    -0.560296474177    12.000000000000
         C           -2.513497550729    -1.471913092887     0.865121525823    12.000000000000
         C           -4.693683250729     0.338295207113    -0.566424174177    12.000000000000
         C            3.354298449271     0.876872907113     0.440225525823    12.000000000000
         C            2.311753449271    -0.042406092887    -0.146118474177    12.000000000000
         C            4.757773449271     0.306263907113     0.315694525823    12.000000000000
         H           -3.329387550729     1.826610907113     0.206817525823     1.007825032230
         H           -3.979266550729     0.748717907113     1.438170525823     1.007825032230
         H           -1.273356550729     1.427434907113    -0.648824474177     1.007825032230
         H            0.202772449271    -0.432781092887    -1.633640474177     1.007825032230
         H            0.047160449271    -1.328565092887    -0.123245474177     1.007825032230
         H           -2.795432550729    -1.412980092887     1.924800525823     1.007825032230
         H           -3.310957550729    -2.023180092887     0.352841525823     1.007825032230
         H           -1.600747550729    -2.065529092887     0.789431525823     1.007825032230
         H           -5.043927550729    -0.664131092887    -0.358463474177     1.007825032230
         H           -4.353864550729     0.403428907113    -1.590549474177     1.007825032230
         H           -5.577990550729     1.017350907113    -0.464794474177     1.007825032230
         H            3.268245449271     1.843355907113    -0.069190474177     1.007825032230
         H            3.087178449271     1.065403907113     1.484778525823     1.007825032230
         H            4.833673449271    -0.648888092887     0.838001525823     1.007825032230
         H            5.010128449271     0.131930907113    -0.732113474177     1.007825032230
         H            5.490248449271     0.996171907113     0.742618525823     1.007825032230

  Basis Set: AUG-CC-PVTZ
    Blend: AUG-CC-PVTZ
  Basis Set: (AUG-CC-PVTZ AUX)
    Blend: AUG-CC-PVTZ-JKFIT
	 Reference Energy          =    -500.0367347523992976 [Eh]
	 Singles Energy            =      -0.0000000000000000 [Eh]
	 Same-Spin Energy          =      -0.5099574755989289 [Eh]
	 Opposite-Spin Energy      =      -1.7171814637826319 [Eh]
	 Correlation Energy        =      -2.2271389393815610 [Eh]
	 Total Energy              =    -502.2638736917808728 [Eh]

	 ================> DF-SCS-MP2 Energies <==================
	-----------------------------------------------------------
	 SCS Same-Spin Scale       =       0.3333333333333333 [-]
	 SCS Opposite-Spin Scale   =       1.2000000000000000 [-]
	 SCS Same-Spin Energy      =      -0.1699858251996429 [Eh]
	 SCS Opposite-Spin Energy  =      -2.0606177565391581 [Eh]
	 SCS Correlation Energy    =      -2.2306035817388010 [Eh]
	 SCS Total Energy          =    -502.2673383341381168 [Eh]
	-----------------------------------------------------------

  Dipole Moment: [D]
     X:    -1.4482      Y:     1.1778      Z:     0.8570     Total:     2.0540

*** Psi4 exiting successfully. Buy a developer a beer!
