                               Psi4 1.3.2 release

  ==> Input File <==

--------------------------------------------------------------------------
#psi4
#
memory 32 gb

molecule  {
0 1
  O        1.0716460     0.4753830     0.0137820
  O        2.5311320    -1.1057930    -0.7123110
  C       -2.3693550    -0.0883010     0.2982860
  C       -3.5980660     0.7810210     0.4066790
  C       -1.2626340     0.3942960    -0.2965320
  C        0.0082920    -0.3313460    -0.5624280
  C       -2.5132090    -1.4745150     0.8629900
  C       -4.7090750     0.3554230    -0.5595870
  C        3.3545870     0.8742710     0.4380940
  C        2.1738254    -0.1668825    -0.2259852
  C        4.7580620     0.3036620     0.3135630
  H       -3.3290990     1.8240090     0.2046860
  H       -3.9789780     0.7461160     1.4360390
  H       -1.2730680     1.4248330    -0.6509560
  H        0.2030610    -0.4353830    -1.6357720
  H        0.0474490    -1.3311670    -0.1253770
  H       -2.7951440    -1.4155820     1.9226690
  H       -3.3106690    -2.0257820     0.3507100
  H       -1.6004590    -2.0681310     0.7873000
  H       -5.0436390    -0.6667330    -0.3605950
  H       -4.3535760     0.4008270    -1.5926810
  H       -5.5777020     1.0147490    -0.4669260
  H        3.2685340     1.8407540    -0.0713220
  H        3.0874670     1.0628020     1.4826470
  H        4.8339620    -0.6514900     0.8358700
  H        5.0104170     0.1293290    -0.7342450
  H        5.4905370     0.9935700     0.7404870
units angstrom
no_reorient  #important for SAPT in psi4, default
symmetry c1  #important for SAPT in psi4, default
}

set PROPERTIES_ORIGIN ["COM"]
properties('MP2/aug-cc-pvtz', properties = ['dipole'])
--------------------------------------------------------------------------

    Molecular point group: c1
  Charge       = 0
  Multiplicity = 1
  Basis Set: AUG-CC-PVTZ
    Blend: AUG-CC-PVTZ
  Basis Set: (AUG-CC-PVTZ AUX)
    Blend: AUG-CC-PVTZ-JKFIT

    Orbital Energies [Eh]
    ---------------------

    Doubly Occupied:

       1A    -20.613870     2A    -20.553964     3A    -11.367732
       4A    -11.295404     5A    -11.249467     6A    -11.231921
       7A    -11.231002     8A    -11.228537     9A    -11.222308
      10A    -11.219995    11A    -11.203244    12A     -1.500182
      13A     -1.420622    14A     -1.117526    15A     -1.039432
      16A     -1.012897    17A     -0.982431    18A     -0.920009
      19A     -0.857355    20A     -0.828877    21A     -0.789457
      22A     -0.726918    23A     -0.704381    24A     -0.699838
      25A     -0.677139    26A     -0.641449    27A     -0.625360
      28A     -0.596392    29A     -0.593473    30A     -0.578615
      31A     -0.565844    32A     -0.561304    33A     -0.546442
      34A     -0.525398    35A     -0.523542    36A     -0.517591
      37A     -0.500245    38A     -0.490124    39A     -0.487415
      40A     -0.474638    41A     -0.470586    42A     -0.396538
      43A     -0.348512

  @DF-RHF Final Energy:  -499.99769676141659

   => Energetics <=

    Nuclear Repulsion Energy =            604.9228060099264894
    One-Electron Energy =               -1879.5650479897551577
    Two-Electron Energy =                 774.6445452184120768
    Total Energy =                       -499.9976967614165915
  Basis Set: (AUG-CC-PVTZ AUX)
    Blend: AUG-CC-PVTZ-RI
    Molecular point group: c1

    Geometry (in Angstrom), charge = 0, multiplicity = 1:

       Center              X                  Y                   Z               Mass
    ------------   -----------------  -----------------  -----------------  -----------------
         O            1.082270141039     0.484751071791     0.019757153185    15.994914619570
         O            2.541756141039    -1.096424928209    -0.706335846815    15.994914619570
         C           -2.358730858961    -0.078932928209     0.304261153185    12.000000000000
         C           -3.587441858961     0.790389071791     0.412654153185    12.000000000000
         C           -1.252009858961     0.403664071791    -0.290556846815    12.000000000000
         C            0.018916141039    -0.321977928209    -0.556452846815    12.000000000000
         C           -2.502584858961    -1.465146928209     0.868965153185    12.000000000000
         C           -4.698450858961     0.364791071791    -0.553611846815    12.000000000000
         C            3.365211141039     0.883639071791     0.444069153185    12.000000000000
         C            2.184449541039    -0.157514428209    -0.220010046815    12.000000000000
         C            4.768686141039     0.313030071791     0.319538153185    12.000000000000
         H           -3.318474858961     1.833377071791     0.210661153185     1.007825032230
         H           -3.968353858961     0.755484071791     1.442014153185     1.007825032230
         H           -1.262443858961     1.434201071791    -0.644980846815     1.007825032230
         H            0.213685141039    -0.426014928209    -1.629796846815     1.007825032230
         H            0.058073141039    -1.321798928209    -0.119401846815     1.007825032230
         H           -2.784519858961    -1.406213928209     1.928644153185     1.007825032230
         H           -3.300044858961    -2.016413928209     0.356685153185     1.007825032230
         H           -1.589834858961    -2.058762928209     0.793275153185     1.007825032230
         H           -5.033014858961    -0.657364928209    -0.354619846815     1.007825032230
         H           -4.342951858961     0.410195071791    -1.586705846815     1.007825032230
         H           -5.567077858961     1.024117071791    -0.460950846815     1.007825032230
         H            3.279158141039     1.850122071791    -0.065346846815     1.007825032230
         H            3.098091141039     1.072170071791     1.488622153185     1.007825032230
         H            4.844586141039    -0.642121928209     0.841845153185     1.007825032230
         H            5.021041141039     0.138697071791    -0.728269846815     1.007825032230
         H            5.501161141039     1.002938071791     0.746462153185     1.007825032230

  Basis Set: AUG-CC-PVTZ
    Blend: AUG-CC-PVTZ
  Basis Set: (AUG-CC-PVTZ AUX)
    Blend: AUG-CC-PVTZ-JKFIT
	 Reference Energy          =    -499.9976967614165915 [Eh]
	 Singles Energy            =      -0.0000000000000000 [Eh]
	 Same-Spin Energy          =      -0.5083951464920925 [Eh]
	 Opposite-Spin Energy      =      -1.7142290447608579 [Eh]
	 Correlation Energy        =      -2.2226241912529505 [Eh]
	 Total Energy              =    -502.2203209526695673 [Eh]

	 ================> DF-SCS-MP2 Energies <==================
	-----------------------------------------------------------
	 SCS Same-Spin Scale       =       0.3333333333333333 [-]
	 SCS Opposite-Spin Scale   =       1.2000000000000000 [-]
	 SCS Same-Spin Energy      =      -0.1694650488306975 [Eh]
	 SCS Opposite-Spin Energy  =      -2.0570748537130292 [Eh]
	 SCS Correlation Energy    =      -2.2265399025437267 [Eh]
	 SCS Total Energy          =    -502.2242366639603119 [Eh]
	-----------------------------------------------------------

  Dipole Moment: [D]
     X:    -2.5731      Y:     0.4243      Z:     0.3418     Total:     2.6302

*** Psi4 exiting successfully. Buy a developer a beer!
