                               Psi4 1.3.2 release

  ==> Input File <==

--------------------------------------------------------------------------
#psi4
#
memory 32 gb

molecule  {
0 1
  O        1.0454147     0.4182555    -0.0190774
  O        2.5311320    -1.1057930    -0.7123110
  C       -2.3693550    -0.0883010     0.2982860
  C       -3.5980660     0.7810210     0.4066790
  C       -1.2626340     0.3942960    -0.2965320
  C        0.0082920    -0.3313460    -0.5624280
  C       -2.5132090    -1.4745150     0.8629900
  C       -4.7090750     0.3554230    -0.5595870
  C        3.4098578     0.8225081     0.4156557
  C        2.3120420    -0.0450080    -0.1482500
  C        4.7580620     0.3036620     0.3135630
  H       -3.3290990     1.8240090     0.2046860
  H       -3.9789780     0.7461160     1.4360390
  H       -1.2730680     1.4248330    -0.6509560
  H        0.2030610    -0.4353830    -1.6357720
  H        0.0474490    -1.3311670    -0.1253770
  H       -2.7951440    -1.4155820     1.9226690
  H       -3.3106690    -2.0257820     0.3507100
  H       -1.6004590    -2.0681310     0.7873000
  H       -5.0436390    -0.6667330    -0.3605950
  H       -4.3535760     0.4008270    -1.5926810
  H       -5.5777020     1.0147490    -0.4669260
  H        3.2685340     1.8407540    -0.0713220
  H        3.0874670     1.0628020     1.4826470
  H        4.8339620    -0.6514900     0.8358700
  H        5.0104170     0.1293290    -0.7342450
  H        5.4905370     0.9935700     0.7404870
units angstrom
no_reorient  #important for SAPT in psi4, default
symmetry c1  #important for SAPT in psi4, default
}

set PROPERTIES_ORIGIN ["COM"]
properties('MP2/aug-cc-pvtz', properties = ['dipole'])
--------------------------------------------------------------------------

    Molecular point group: c1
  Charge       = 0
  Multiplicity = 1
  Basis Set: AUG-CC-PVTZ
    Blend: AUG-CC-PVTZ
  Basis Set: (AUG-CC-PVTZ AUX)
    Blend: AUG-CC-PVTZ-JKFIT

    Orbital Energies [Eh]
    ---------------------

    Doubly Occupied:

       1A    -20.595374     2A    -20.537577     3A    -11.377736
       4A    -11.280611     5A    -11.252137     6A    -11.242577
       7A    -11.227337     8A    -11.224834     9A    -11.221475
      10A    -11.218256    11A    -11.218252    12A     -1.459443
      13A     -1.351112    14A     -1.111015    15A     -1.076244
      16A     -1.024174    17A     -0.979663    18A     -0.923509
      19A     -0.879162    20A     -0.834145    21A     -0.769481
      22A     -0.723850    23A     -0.693355    24A     -0.685425
      25A     -0.661616    26A     -0.636974    27A     -0.624486
      28A     -0.608278    29A     -0.591086    30A     -0.575725
      31A     -0.557424    32A     -0.549027    33A     -0.537896
      34A     -0.531501    35A     -0.514916    36A     -0.514561
      37A     -0.508862    38A     -0.482685    39A     -0.477306
      40A     -0.463220    41A     -0.451272    42A     -0.442232
      43A     -0.344844

  @DF-RHF Final Energy:  -500.02983202177631

   => Energetics <=

    Nuclear Repulsion Energy =            604.5875349525146021
    One-Electron Energy =               -1879.2734198841433226
    Two-Electron Energy =                 774.6560529098522920
    Total Energy =                       -500.0298320217763148
  Basis Set: (AUG-CC-PVTZ AUX)
    Blend: AUG-CC-PVTZ-RI
    Molecular point group: c1

    Geometry (in Angstrom), charge = 0, multiplicity = 1:

       Center              X                  Y                   Z               Mass
    ------------   -----------------  -----------------  -----------------  -----------------
         O            1.043853714475     0.428087398272    -0.013986079094    15.994914619570
         O            2.529571014475    -1.095961101728    -0.707219679094    15.994914619570
         C           -2.370915985525    -0.078469101728     0.303377320906    12.000000000000
         C           -3.599626985525     0.790852898272     0.411770320906    12.000000000000
         C           -1.264194985525     0.404127898272    -0.291440679094    12.000000000000
         C            0.006731014475    -0.321514101728    -0.557336679094    12.000000000000
         C           -2.514769985525    -1.464683101728     0.868081320906    12.000000000000
         C           -4.710635985525     0.365254898272    -0.554495679094    12.000000000000
         C            3.408296814475     0.832339998272     0.420747020906    12.000000000000
         C            2.310481014475    -0.035176101728    -0.143158679094    12.000000000000
         C            4.756501014475     0.313493898272     0.318654320906    12.000000000000
         H           -3.330659985525     1.833840898272     0.209777320906     1.007825032230
         H           -3.980538985525     0.755947898272     1.441130320906     1.007825032230
         H           -1.274628985525     1.434664898272    -0.645864679094     1.007825032230
         H            0.201500014475    -0.425551101728    -1.630680679094     1.007825032230
         H            0.045888014475    -1.321335101728    -0.120285679094     1.007825032230
         H           -2.796704985525    -1.405750101728     1.927760320906     1.007825032230
         H           -3.312229985525    -2.015950101728     0.355801320906     1.007825032230
         H           -1.602019985525    -2.058299101728     0.792391320906     1.007825032230
         H           -5.045199985525    -0.656901101728    -0.355503679094     1.007825032230
         H           -4.355136985525     0.410658898272    -1.587589679094     1.007825032230
         H           -5.579262985525     1.024580898272    -0.461834679094     1.007825032230
         H            3.266973014475     1.850585898272    -0.066230679094     1.007825032230
         H            3.085906014475     1.072633898272     1.487738320906     1.007825032230
         H            4.832401014475    -0.641658101728     0.840961320906     1.007825032230
         H            5.008856014475     0.139160898272    -0.729153679094     1.007825032230
         H            5.488976014475     1.003401898272     0.745578320906     1.007825032230

  Basis Set: AUG-CC-PVTZ
    Blend: AUG-CC-PVTZ
  Basis Set: (AUG-CC-PVTZ AUX)
    Blend: AUG-CC-PVTZ-JKFIT
	 Reference Energy          =    -500.0298320217763148 [Eh]
	 Singles Energy            =      -0.0000000000000000 [Eh]
	 Same-Spin Energy          =      -0.5098823027509255 [Eh]
	 Opposite-Spin Energy      =      -1.7155908464536807 [Eh]
	 Correlation Energy        =      -2.2254731492046060 [Eh]
	 Total Energy              =    -502.2553051709809324 [Eh]

	 ================> DF-SCS-MP2 Energies <==================
	-----------------------------------------------------------
	 SCS Same-Spin Scale       =       0.3333333333333333 [-]
	 SCS Opposite-Spin Scale   =       1.2000000000000000 [-]
	 SCS Same-Spin Energy      =      -0.1699607675836418 [Eh]
	 SCS Opposite-Spin Energy  =      -2.0587090157444168 [Eh]
	 SCS Correlation Energy    =      -2.2286697833280584 [Eh]
	 SCS Total Energy          =    -502.2585018051044017 [Eh]
	-----------------------------------------------------------

  Dipole Moment: [D]
     X:    -1.1317      Y:     1.3284      Z:     0.9347     Total:     1.9796

*** Psi4 exiting successfully. Buy a developer a beer!
