                               Psi4 1.3.2 release

  ==> Input File <==

--------------------------------------------------------------------------
#psi4
#
memory 32 gb

molecule  {
0 1
  O        1.0716460     0.4753830     0.0137820
  O        2.5311320    -1.1057930    -0.7123110
  C       -2.3693550    -0.0883010     0.2982860
  C       -3.5980660     0.7810210     0.4066790
  C       -1.2626340     0.3942960    -0.2965320
  C       -0.0119540    -0.3733293    -0.5395565
  C       -2.5132090    -1.4745150     0.8629900
  C       -4.7090750     0.3554230    -0.5595870
  C        3.3545870     0.8742710     0.4380940
  C        2.3120420    -0.0450080    -0.1482500
  C        4.7580620     0.3036620     0.3135630
  H       -3.3290990     1.8240090     0.2046860
  H       -3.9789780     0.7461160     1.4360390
  H       -1.3085514     1.4283312    -0.6376986
  H        0.2030610    -0.4353830    -1.6357720
  H        0.0474490    -1.3311670    -0.1253770
  H       -2.7951440    -1.4155820     1.9226690
  H       -3.3106690    -2.0257820     0.3507100
  H       -1.6004590    -2.0681310     0.7873000
  H       -5.0436390    -0.6667330    -0.3605950
  H       -4.3535760     0.4008270    -1.5926810
  H       -5.5777020     1.0147490    -0.4669260
  H        3.2685340     1.8407540    -0.0713220
  H        3.0874670     1.0628020     1.4826470
  H        4.8339620    -0.6514900     0.8358700
  H        5.0104170     0.1293290    -0.7342450
  H        5.4905370     0.9935700     0.7404870
units angstrom
no_reorient  #important for SAPT in psi4, default
symmetry c1  #important for SAPT in psi4, default
}

set PROPERTIES_ORIGIN ["COM"]
properties('MP2/aug-cc-pvtz', properties = ['dipole'])
--------------------------------------------------------------------------

    Molecular point group: c1
  Charge       = 0
  Multiplicity = 1
  Basis Set: AUG-CC-PVTZ
    Blend: AUG-CC-PVTZ
  Basis Set: (AUG-CC-PVTZ AUX)
    Blend: AUG-CC-PVTZ-JKFIT

    Orbital Energies [Eh]
    ---------------------

    Doubly Occupied:

       1A    -20.594254     2A    -20.538833     3A    -11.373400
       4A    -11.288099     5A    -11.243755     6A    -11.240875
       7A    -11.228836     8A    -11.227174     9A    -11.224296
      10A    -11.219669    11A    -11.216948    12A     -1.441879
      13A     -1.343009    14A     -1.113965    15A     -1.062244
      16A     -1.022696    17A     -0.977743    18A     -0.919769
      19A     -0.879265    20A     -0.834689    21A     -0.765423
      22A     -0.721746    23A     -0.685210    24A     -0.678468
      25A     -0.657196    26A     -0.637440    27A     -0.624339
      28A     -0.604809    29A     -0.588416    30A     -0.573868
      31A     -0.555331    32A     -0.544366    33A     -0.533391
      34A     -0.521229    35A     -0.517984    36A     -0.514392
      37A     -0.512788    38A     -0.492069    39A     -0.484285
      40A     -0.468240    41A     -0.457206    42A     -0.442810
      43A     -0.345904

  @DF-RHF Final Energy:  -500.03474955466919

   => Energetics <=

    Nuclear Repulsion Energy =            602.8282182909307494
    One-Electron Energy =               -1875.8893229343370876
    Two-Electron Energy =                 773.0263550887372048
    Total Energy =                       -500.0347495546692471
  Basis Set: (AUG-CC-PVTZ AUX)
    Blend: AUG-CC-PVTZ-RI
    Molecular point group: c1

    Geometry (in Angstrom), charge = 0, multiplicity = 1:

       Center              X                  Y                   Z               Mass
    ------------   -----------------  -----------------  -----------------  -----------------
         O            1.073431234603     0.478587539842     0.011938293326    15.994914619570
         O            2.532917234603    -1.102588460158    -0.714154706674    15.994914619570
         C           -2.367569765397    -0.085096460158     0.296442293326    12.000000000000
         C           -3.596280765397     0.784225539842     0.404835293326    12.000000000000
         C           -1.260848765397     0.397500539842    -0.298375706674    12.000000000000
         C           -0.010168765397    -0.370124760158    -0.541400206674    12.000000000000
         C           -2.511423765397    -1.471310460158     0.861146293326    12.000000000000
         C           -4.707289765397     0.358627539842    -0.561430706674    12.000000000000
         C            3.356372234603     0.877475539842     0.436250293326    12.000000000000
         C            2.313827234603    -0.041803460158    -0.150093706674    12.000000000000
         C            4.759847234603     0.306866539842     0.311719293326    12.000000000000
         H           -3.327313765397     1.827213539842     0.202842293326     1.007825032230
         H           -3.977192765397     0.749320539842     1.434195293326     1.007825032230
         H           -1.306766165397     1.431535739842    -0.639542306674     1.007825032230
         H            0.204846234603    -0.432178460158    -1.637615706674     1.007825032230
         H            0.049234234603    -1.327962460158    -0.127220706674     1.007825032230
         H           -2.793358765397    -1.412377460158     1.920825293326     1.007825032230
         H           -3.308883765397    -2.022577460158     0.348866293326     1.007825032230
         H           -1.598673765397    -2.064926460158     0.785456293326     1.007825032230
         H           -5.041853765397    -0.663528460158    -0.362438706674     1.007825032230
         H           -4.351790765397     0.404031539842    -1.594524706674     1.007825032230
         H           -5.575916765397     1.017953539842    -0.468769706674     1.007825032230
         H            3.270319234603     1.843958539842    -0.073165706674     1.007825032230
         H            3.089252234603     1.066006539842     1.480803293326     1.007825032230
         H            4.835747234603    -0.648285460158     0.834026293326     1.007825032230
         H            5.012202234603     0.132533539842    -0.736088706674     1.007825032230
         H            5.492322234603     0.996774539842     0.738643293326     1.007825032230

  Basis Set: AUG-CC-PVTZ
    Blend: AUG-CC-PVTZ
  Basis Set: (AUG-CC-PVTZ AUX)
    Blend: AUG-CC-PVTZ-JKFIT
	 Reference Energy          =    -500.0347495546691903 [Eh]
	 Singles Energy            =      -0.0000000000000000 [Eh]
	 Same-Spin Energy          =      -0.5099115529066121 [Eh]
	 Opposite-Spin Energy      =      -1.7173053258633253 [Eh]
	 Correlation Energy        =      -2.2272168787699371 [Eh]
	 Total Energy              =    -502.2619664334391132 [Eh]

	 ================> DF-SCS-MP2 Energies <==================
	-----------------------------------------------------------
	 SCS Same-Spin Scale       =       0.3333333333333333 [-]
	 SCS Opposite-Spin Scale   =       1.2000000000000000 [-]
	 SCS Same-Spin Energy      =      -0.1699705176355373 [Eh]
	 SCS Opposite-Spin Energy  =      -2.0607663910359904 [Eh]
	 SCS Correlation Energy    =      -2.2307369086715276 [Eh]
	 SCS Total Energy          =    -502.2654864633407215 [Eh]
	-----------------------------------------------------------

  Dipole Moment: [D]
     X:    -1.5729      Y:     1.1324      Z:     0.8526     Total:     2.1174

*** Psi4 exiting successfully. Buy a developer a beer!
