                               Psi4 1.3.2 release

  ==> Input File <==

--------------------------------------------------------------------------
#psi4
#
memory 32 gb

molecule  {
0 1
  O        1.0716460     0.4753830     0.0137820
  O        2.5311320    -1.1057930    -0.7123110
  C       -2.3693550    -0.0883010     0.2982860
  C       -3.5851673     0.8003909     0.3943467
  C       -1.2738156     0.4145877    -0.3004093
  C        0.0082920    -0.3313460    -0.5624280
  C       -2.5132090    -1.4745150     0.8629900
  C       -4.7090750     0.3554230    -0.5595870
  C        3.3545870     0.8742710     0.4380940
  C        2.3120420    -0.0450080    -0.1482500
  C        4.7580620     0.3036620     0.3135630
  H       -3.3290990     1.8240090     0.2046860
  H       -3.9789780     0.7461160     1.4360390
  H       -1.2730680     1.4248330    -0.6509560
  H        0.2030610    -0.4353830    -1.6357720
  H        0.0474490    -1.3311670    -0.1253770
  H       -2.7951440    -1.4155820     1.9226690
  H       -3.3106690    -2.0257820     0.3507100
  H       -1.6004590    -2.0681310     0.7873000
  H       -5.0436390    -0.6667330    -0.3605950
  H       -4.3535760     0.4008270    -1.5926810
  H       -5.5777020     1.0147490    -0.4669260
  H        3.2685340     1.8407540    -0.0713220
  H        3.0874670     1.0628020     1.4826470
  H        4.8339620    -0.6514900     0.8358700
  H        5.0104170     0.1293290    -0.7342450
  H        5.4905370     0.9935700     0.7404870
units angstrom
no_reorient  #important for SAPT in psi4, default
symmetry c1  #important for SAPT in psi4, default
}

set PROPERTIES_ORIGIN ["COM"]
properties('MP2/aug-cc-pvtz', properties = ['dipole'])
--------------------------------------------------------------------------

    Molecular point group: c1
  Charge       = 0
  Multiplicity = 1
  Basis Set: AUG-CC-PVTZ
    Blend: AUG-CC-PVTZ
  Basis Set: (AUG-CC-PVTZ AUX)
    Blend: AUG-CC-PVTZ-JKFIT

    Orbital Energies [Eh]
    ---------------------

    Doubly Occupied:

       1A    -20.596889     2A    -20.540543     3A    -11.375226
       4A    -11.286671     5A    -11.244075     6A    -11.242045
       7A    -11.227672     8A    -11.227582     9A    -11.222363
      10A    -11.219059    11A    -11.217764    12A     -1.447687
      13A     -1.347224    14A     -1.111888    15A     -1.063427
      16A     -1.018857    17A     -0.977131    18A     -0.921034
      19A     -0.878590    20A     -0.832969    21A     -0.766985
      22A     -0.724575    23A     -0.688404    24A     -0.679513
      25A     -0.659949    26A     -0.639692    27A     -0.621508
      28A     -0.605640    29A     -0.587233    30A     -0.573285
      31A     -0.553230    32A     -0.544144    33A     -0.533577
      34A     -0.523009    35A     -0.518557    36A     -0.514258
      37A     -0.511797    38A     -0.492324    39A     -0.484990
      40A     -0.464546    41A     -0.457083    42A     -0.444042
      43A     -0.345734

  @DF-RHF Final Energy:  -500.03737202119089

   => Energetics <=

    Nuclear Repulsion Energy =            602.8588866438151399
    One-Electron Energy =               -1875.9269713278984000
    Two-Electron Energy =                 773.0307126628923697
    Total Energy =                       -500.0373720211908903
  Basis Set: (AUG-CC-PVTZ AUX)
    Blend: AUG-CC-PVTZ-RI
    Molecular point group: c1

    Geometry (in Angstrom), charge = 0, multiplicity = 1:

       Center              X                  Y                   Z               Mass
    ------------   -----------------  -----------------  -----------------  -----------------
         O            1.071513941571     0.472334373648     0.015027901933    15.994914619570
         O            2.530999941571    -1.108841626352    -0.711065098067    15.994914619570
         C           -2.369487058429    -0.091349626352     0.299531901933    12.000000000000
         C           -3.585299358429     0.797342273648     0.395592601933    12.000000000000
         C           -1.273947658429     0.411539073648    -0.299163398067    12.000000000000
         C            0.008159941571    -0.334394626352    -0.561182098067    12.000000000000
         C           -2.513341058429    -1.477563626352     0.864235901933    12.000000000000
         C           -4.709207058429     0.352374373648    -0.558341098067    12.000000000000
         C            3.354454941571     0.871222373648     0.439339901933    12.000000000000
         C            2.311909941571    -0.048056626352    -0.147004098067    12.000000000000
         C            4.757929941571     0.300613373648     0.314808901933    12.000000000000
         H           -3.329231058429     1.820960373648     0.205931901933     1.007825032230
         H           -3.979110058429     0.743067373648     1.437284901933     1.007825032230
         H           -1.273200058429     1.421784373648    -0.649710098067     1.007825032230
         H            0.202928941571    -0.438431626352    -1.634526098067     1.007825032230
         H            0.047316941571    -1.334215626352    -0.124131098067     1.007825032230
         H           -2.795276058429    -1.418630626352     1.923914901933     1.007825032230
         H           -3.310801058429    -2.028830626352     0.351955901933     1.007825032230
         H           -1.600591058429    -2.071179626352     0.788545901933     1.007825032230
         H           -5.043771058429    -0.669781626352    -0.359349098067     1.007825032230
         H           -4.353708058429     0.397778373648    -1.591435098067     1.007825032230
         H           -5.577834058429     1.011700373648    -0.465680098067     1.007825032230
         H            3.268401941571     1.837705373648    -0.070076098067     1.007825032230
         H            3.087334941571     1.059753373648     1.483892901933     1.007825032230
         H            4.833829941571    -0.654538626352     0.837115901933     1.007825032230
         H            5.010284941571     0.126280373648    -0.732999098067     1.007825032230
         H            5.490404941571     0.990521373648     0.741732901933     1.007825032230

  Basis Set: AUG-CC-PVTZ
    Blend: AUG-CC-PVTZ
  Basis Set: (AUG-CC-PVTZ AUX)
    Blend: AUG-CC-PVTZ-JKFIT
	 Reference Energy          =    -500.0373720211908903 [Eh]
	 Singles Energy            =      -0.0000000000000000 [Eh]
	 Same-Spin Energy          =      -0.5095472064999830 [Eh]
	 Opposite-Spin Energy      =      -1.7166380328302386 [Eh]
	 Correlation Energy        =      -2.2261852393302215 [Eh]
	 Total Energy              =    -502.2635572605211109 [Eh]

	 ================> DF-SCS-MP2 Energies <==================
	-----------------------------------------------------------
	 SCS Same-Spin Scale       =       0.3333333333333333 [-]
	 SCS Opposite-Spin Scale   =       1.2000000000000000 [-]
	 SCS Same-Spin Energy      =      -0.1698490688333276 [Eh]
	 SCS Opposite-Spin Energy  =      -2.0599656393962862 [Eh]
	 SCS Correlation Energy    =      -2.2298147082296138 [Eh]
	 SCS Total Energy          =    -502.2671867294205299 [Eh]
	-----------------------------------------------------------

  Dipole Moment: [D]
     X:    -1.4445      Y:     1.1861      Z:     0.8310     Total:     2.0455

*** Psi4 exiting successfully. Buy a developer a beer!
