                               Psi4 1.4a3.dev225

  ==> Input File <==

--------------------------------------------------------------------------
#psi4
#
memory 32 gb

molecule  {
0 1
  O       -1.1411000    -0.4541930    -0.0251880
  O       -2.5814580     1.1752260    -0.6867450
  C        2.3134570     0.0186930     0.2462000
  C        3.5222300    -0.8802230     0.3222130
  C        1.1937340    -0.4134970    -0.3651820
  C       -0.0647290     0.3542590    -0.5783780
  C        2.4850690     1.3863280     0.8546590
  C        4.7190700    -0.3405130    -0.4677320
  C       -3.4286640    -0.8122060     0.4327630
  C       -2.3749380     0.0938890    -0.1583950
  C       -4.8282690    -0.2261570     0.3119590
  H        3.2581340    -1.8761120    -0.0507320
  H        3.8122360    -1.0018650     1.3748590
  H        1.1815530    -1.4238220    -0.7735790
  H       -0.2705280     0.5138520    -1.6430550
  H       -0.0715426     1.3509429    -0.0861378
  H        3.0182560     1.3061200     1.8081990
  H        3.0814560     2.0379150     0.2067330
  H        1.5342700     1.8877430     1.0433380
  H        5.0646870     0.6170420    -0.0694620
  H        4.4484560    -0.1949880    -1.5176090
  H        5.5583810    -1.0408350    -0.4253590
  H       -3.3536290    -1.7820470    -0.0715700
  H       -3.1585900    -0.9983310     1.4781360
  H       -4.8922970     0.7333770     0.8287030
  H       -5.0879650    -0.0561110    -0.7346540
  H       -5.5642940    -0.9066400     0.7478690
units angstrom
no_reorient  #important for SAPT in psi4, default
symmetry c1  #important for SAPT in psi4, default
}

set PROPERTIES_ORIGIN ["COM"]
properties('MP2/aug-cc-pvtz', properties = ['dipole'])
--------------------------------------------------------------------------

    Molecular point group: c1
  Charge       = 0
  Multiplicity = 1
  Basis Set: AUG-CC-PVTZ
    Blend: AUG-CC-PVTZ
  Basis Set: (AUG-CC-PVTZ AUX)
    Blend: AUG-CC-PVTZ-JKFIT

    Orbital Energies [Eh]
    ---------------------

    Doubly Occupied:

       1A    -20.597449     2A    -20.540863     3A    -11.375754
       4A    -11.289101     5A    -11.244607     6A    -11.242649
       7A    -11.228650     8A    -11.226066     9A    -11.223618
      10A    -11.219318    11A    -11.218212    12A     -1.447065
      13A     -1.347435    14A     -1.112066    15A     -1.062965
      16A     -1.021582    17A     -0.976726    18A     -0.920134
      19A     -0.879390    20A     -0.832283    21A     -0.765958
      22A     -0.722046    23A     -0.687804    24A     -0.678722
      25A     -0.659626    26A     -0.638182    27A     -0.624043
      28A     -0.604182    29A     -0.589360    30A     -0.571804
      31A     -0.553495    32A     -0.545594    33A     -0.532912
      34A     -0.522047    35A     -0.517514    36A     -0.513384
      37A     -0.512054    38A     -0.492033    39A     -0.484640
      40A     -0.465776    41A     -0.456599    42A     -0.444224
      43A     -0.346102

  @DF-RHF Final Energy:  -500.03780775841250

   => Energetics <=

    Nuclear Repulsion Energy =            602.4131394636235655
    One-Electron Energy =               -1875.0338247730430794
    Two-Electron Energy =                 772.5828775510069590
    Total Energy =                       -500.0378077584125549
  Basis Set: (AUG-CC-PVTZ AUX)
    Blend: AUG-CC-PVTZ-RI
    Molecular point group: c1

    Geometry (in Angstrom), charge = 0, multiplicity = 1:

       Center              X                  Y                   Z               Mass
    ------------   -----------------  -----------------  -----------------  -----------------
         O           -1.086826412129    -0.459698260976    -0.011878653070    15.994914619570
         O           -2.527184412129     1.169720739024    -0.673435653070    15.994914619570
         C            2.367730587871     0.013187739024     0.259509346930    12.000000000000
         C            3.576503587871    -0.885728260976     0.335522346930    12.000000000000
         C            1.248007587871    -0.419002260976    -0.351872653070    12.000000000000
         C           -0.010455412129     0.348753739024    -0.565068653070    12.000000000000
         C            2.539342587871     1.380822739024     0.867968346930    12.000000000000
         C            4.773343587871    -0.346018260976    -0.454422653070    12.000000000000
         C           -3.374390412129    -0.817711260976     0.446072346930    12.000000000000
         C           -2.320664412129     0.088383739024    -0.145085653070    12.000000000000
         C           -4.773995412129    -0.231662260976     0.325268346930    12.000000000000
         H            3.312407587871    -1.881617260976    -0.037422653070     1.007825032230
         H            3.866509587871    -1.007370260976     1.388168346930     1.007825032230
         H            1.235826587871    -1.429327260976    -0.760269653070     1.007825032230
         H           -0.216254412129     0.508346739024    -1.629745653070     1.007825032230
         H           -0.017269012129     1.345437639024    -0.072828453070     1.007825032230
         H            3.072529587871     1.300614739024     1.821508346930     1.007825032230
         H            3.135729587871     2.032409739024     0.220042346930     1.007825032230
         H            1.588543587871     1.882237739024     1.056647346930     1.007825032230
         H            5.118960587871     0.611536739024    -0.056152653070     1.007825032230
         H            4.502729587871    -0.200493260976    -1.504299653070     1.007825032230
         H            5.612654587871    -1.046340260976    -0.412049653070     1.007825032230
         H           -3.299355412129    -1.787552260976    -0.058260653070     1.007825032230
         H           -3.104316412129    -1.003836260976     1.491445346930     1.007825032230
         H           -4.838023412129     0.727871739024     0.842012346930     1.007825032230
         H           -5.033691412129    -0.061616260976    -0.721344653070     1.007825032230
         H           -5.510020412129    -0.912145260976     0.761178346930     1.007825032230

  Basis Set: AUG-CC-PVTZ
    Blend: AUG-CC-PVTZ
  Basis Set: (AUG-CC-PVTZ AUX)
    Blend: AUG-CC-PVTZ-JKFIT
	 Reference Energy          =    -500.0378077584124981 [Eh]
	 Singles Energy            =      -0.0000000000000000 [Eh]
	 Same-Spin Energy          =      -0.5097733499639077 [Eh]
	 Opposite-Spin Energy      =      -1.7171483869084703 [Eh]
	 Correlation Energy        =      -2.2269217368723782 [Eh]
	 Total Energy              =    -502.2647294952848824 [Eh]

	 ================> DF-SCS-MP2 Energies <==================
	-----------------------------------------------------------
	 SCS Same-Spin Scale       =       0.3333333333333333 [-]
	 SCS Opposite-Spin Scale   =       1.2000000000000000 [-]
	 SCS Same-Spin Energy      =      -0.1699244499879692 [Eh]
	 SCS Opposite-Spin Energy  =      -2.0605780642901643 [Eh]
	 SCS Correlation Energy    =      -2.2305025142781334 [Eh]
	 SCS Total Energy          =    -502.2683102726906554 [Eh]
	-----------------------------------------------------------

  Dipole Moment: [D]
     X:     1.4401      Y:    -1.2060      Z:     0.7962     Total:     2.0402

*** Psi4 exiting successfully. Buy a developer a beer!
