                               Psi4 1.3.2 release

  ==> Input File <==

--------------------------------------------------------------------------
#psi4
#
memory 32 gb

molecule  {
0 1
  O        1.0716460     0.4753830     0.0137820
  O        2.5311320    -1.1057930    -0.7123110
  C       -2.3990788    -0.1301779     0.3100010
  C       -3.5980660     0.7810210     0.4066790
  C       -1.2626340     0.3942960    -0.2965320
  C        0.0082920    -0.3313460    -0.5624280
  C       -2.5132090    -1.4745150     0.8629900
  C       -4.7090750     0.3554230    -0.5595870
  C        3.3545870     0.8742710     0.4380940
  C        2.3120420    -0.0450080    -0.1482500
  C        4.7580620     0.3036620     0.3135630
  H       -3.3656556     1.8338091     0.2102329
  H       -3.9789780     0.7461160     1.4360390
  H       -1.2730680     1.4248330    -0.6509560
  H        0.2030610    -0.4353830    -1.6357720
  H        0.0474490    -1.3311670    -0.1253770
  H       -2.7951440    -1.4155820     1.9226690
  H       -3.3106690    -2.0257820     0.3507100
  H       -1.6004590    -2.0681310     0.7873000
  H       -5.0436390    -0.6667330    -0.3605950
  H       -4.3535760     0.4008270    -1.5926810
  H       -5.5777020     1.0147490    -0.4669260
  H        3.2685340     1.8407540    -0.0713220
  H        3.0874670     1.0628020     1.4826470
  H        4.8339620    -0.6514900     0.8358700
  H        5.0104170     0.1293290    -0.7342450
  H        5.4905370     0.9935700     0.7404870
units angstrom
no_reorient  #important for SAPT in psi4, default
symmetry c1  #important for SAPT in psi4, default
}

set PROPERTIES_ORIGIN ["COM"]
properties('MP2/aug-cc-pvtz', properties = ['dipole'])
--------------------------------------------------------------------------

    Molecular point group: c1
  Charge       = 0
  Multiplicity = 1
  Basis Set: AUG-CC-PVTZ
    Blend: AUG-CC-PVTZ
  Basis Set: (AUG-CC-PVTZ AUX)
    Blend: AUG-CC-PVTZ-JKFIT

    Orbital Energies [Eh]
    ---------------------

    Doubly Occupied:

       1A    -20.596436     2A    -20.540200     3A    -11.374914
       4A    -11.285329     5A    -11.249408     6A    -11.241785
       7A    -11.229067     8A    -11.227913     9A    -11.226131
      10A    -11.218702    11A    -11.217566    12A     -1.447386
      13A     -1.346955    14A     -1.112291    15A     -1.063809
      16A     -1.020404    17A     -0.985126    18A     -0.915285
      19A     -0.878130    20A     -0.829668    21A     -0.766684
      22A     -0.724681    23A     -0.688190    24A     -0.680876
      25A     -0.659304    26A     -0.639844    27A     -0.622328
      28A     -0.606324    29A     -0.589409    30A     -0.575252
      31A     -0.558126    32A     -0.543383    33A     -0.534113
      34A     -0.521769    35A     -0.517244    36A     -0.512939
      37A     -0.511487    38A     -0.491917    39A     -0.485271
      40A     -0.468685    41A     -0.456746    42A     -0.443590
      43A     -0.334419

  @DF-RHF Final Energy:  -500.03159222465069

   => Energetics <=

    Nuclear Repulsion Energy =            602.8025839692295449
    One-Electron Energy =               -1875.7901783127790623
    Two-Electron Energy =                 772.9560021188988230
    Total Energy =                       -500.0315922246506943
  Basis Set: (AUG-CC-PVTZ AUX)
    Blend: AUG-CC-PVTZ-RI
    Molecular point group: c1

    Geometry (in Angstrom), charge = 0, multiplicity = 1:

       Center              X                  Y                   Z               Mass
    ------------   -----------------  -----------------  -----------------  -----------------
         O            1.074166687160     0.478538678355     0.012845629635    15.994914619570
         O            2.533652687160    -1.102637321645    -0.713247370365    15.994914619570
         C           -2.396558112840    -0.127022221645     0.309064629635    12.000000000000
         C           -3.595545312840     0.784176678355     0.405742629635    12.000000000000
         C           -1.260113312840     0.397451678355    -0.297468370365    12.000000000000
         C            0.010812687160    -0.328190321645    -0.563364370365    12.000000000000
         C           -2.510688312840    -1.471359321645     0.862053629635    12.000000000000
         C           -4.706554312840     0.358578678355    -0.560523370365    12.000000000000
         C            3.357107687160     0.877426678355     0.437157629635    12.000000000000
         C            2.314562687160    -0.041852321645    -0.149186370365    12.000000000000
         C            4.760582687160     0.306817678355     0.312626629635    12.000000000000
         H           -3.363134912840     1.836964778355     0.209296529635     1.007825032230
         H           -3.976457312840     0.749271678355     1.435102629635     1.007825032230
         H           -1.270547312840     1.427988678355    -0.651892370365     1.007825032230
         H            0.205581687160    -0.432227321645    -1.636708370365     1.007825032230
         H            0.049969687160    -1.328011321645    -0.126313370365     1.007825032230
         H           -2.792623312840    -1.412426321645     1.921732629635     1.007825032230
         H           -3.308148312840    -2.022626321645     0.349773629635     1.007825032230
         H           -1.597938312840    -2.064975321645     0.786363629635     1.007825032230
         H           -5.041118312840    -0.663577321645    -0.361531370365     1.007825032230
         H           -4.351055312840     0.403982678355    -1.593617370365     1.007825032230
         H           -5.575181312840     1.017904678355    -0.467862370365     1.007825032230
         H            3.271054687160     1.843909678355    -0.072258370365     1.007825032230
         H            3.089987687160     1.065957678355     1.481710629635     1.007825032230
         H            4.836482687160    -0.648334321645     0.834933629635     1.007825032230
         H            5.012937687160     0.132484678355    -0.735181370365     1.007825032230
         H            5.493057687160     0.996725678355     0.739550629635     1.007825032230

  Basis Set: AUG-CC-PVTZ
    Blend: AUG-CC-PVTZ
  Basis Set: (AUG-CC-PVTZ AUX)
    Blend: AUG-CC-PVTZ-JKFIT
	 Reference Energy          =    -500.0315922246506943 [Eh]
	 Singles Energy            =      -0.0000000000000000 [Eh]
	 Same-Spin Energy          =      -0.5107516610214482 [Eh]
	 Opposite-Spin Energy      =      -1.7184251845557661 [Eh]
	 Correlation Energy        =      -2.2291768455772143 [Eh]
	 Total Energy              =    -502.2607690702279228 [Eh]

	 ================> DF-SCS-MP2 Energies <==================
	-----------------------------------------------------------
	 SCS Same-Spin Scale       =       0.3333333333333333 [-]
	 SCS Opposite-Spin Scale   =       1.2000000000000000 [-]
	 SCS Same-Spin Energy      =      -0.1702505536738161 [Eh]
	 SCS Opposite-Spin Energy  =      -2.0621102214669191 [Eh]
	 SCS Correlation Energy    =      -2.2323607751407351 [Eh]
	 SCS Total Energy          =    -502.2639529997914565 [Eh]
	-----------------------------------------------------------

  Dipole Moment: [D]
     X:    -1.4894      Y:     1.1533      Z:     0.8766     Total:     2.0776

*** Psi4 exiting successfully. Buy a developer a beer!
