                               Psi4 1.4a3.dev225

  ==> Input File <==

--------------------------------------------------------------------------
#psi4
#
memory 32 gb

molecule  {
0 1
  O       -1.1411000    -0.4541930    -0.0251880
  O       -2.5814580     1.1752260    -0.6867450
  C        2.3134570     0.0186930     0.2462000
  C        3.5623008    -0.9100220     0.3247328
  C        1.1937340    -0.4134970    -0.3651820
  C       -0.0647290     0.3542590    -0.5783780
  C        2.4850690     1.3863280     0.8546590
  C        4.7190700    -0.3405130    -0.4677320
  C       -3.4286640    -0.8122060     0.4327630
  C       -2.3749380     0.0938890    -0.1583950
  C       -4.8282690    -0.2261570     0.3119590
  H        3.2581340    -1.8761120    -0.0507320
  H        3.8122360    -1.0018650     1.3748590
  H        1.1815530    -1.4238220    -0.7735790
  H       -0.2705280     0.5138520    -1.6430550
  H       -0.0714200     1.3330110    -0.0949940
  H        3.0182560     1.3061200     1.8081990
  H        3.0814560     2.0379150     0.2067330
  H        1.5342700     1.8877430     1.0433380
  H        5.0646870     0.6170420    -0.0694620
  H        4.4484560    -0.1949880    -1.5176090
  H        5.5583810    -1.0408350    -0.4253590
  H       -3.3536290    -1.7820470    -0.0715700
  H       -3.1585900    -0.9983310     1.4781360
  H       -4.8922970     0.7333770     0.8287030
  H       -5.0879650    -0.0561110    -0.7346540
  H       -5.5642940    -0.9066400     0.7478690
units angstrom
no_reorient  #important for SAPT in psi4, default
symmetry c1  #important for SAPT in psi4, default
}

set PROPERTIES_ORIGIN ["COM"]
properties('MP2/aug-cc-pvtz', properties = ['dipole'])
--------------------------------------------------------------------------

    Molecular point group: c1
  Charge       = 0
  Multiplicity = 1
  Basis Set: AUG-CC-PVTZ
    Blend: AUG-CC-PVTZ
  Basis Set: (AUG-CC-PVTZ AUX)
    Blend: AUG-CC-PVTZ-JKFIT

    Orbital Energies [Eh]
    ---------------------

    Doubly Occupied:

       1A    -20.596934     2A    -20.540658     3A    -11.375534
       4A    -11.286574     5A    -11.246089     6A    -11.242477
       7A    -11.228298     8A    -11.226046     9A    -11.222781
      10A    -11.218455    11A    -11.218084    12A     -1.446757
      13A     -1.347181    14A     -1.107663    15A     -1.062690
      16A     -1.023859    17A     -0.977918    18A     -0.918829
      19A     -0.877983    20A     -0.833134    21A     -0.766578
      22A     -0.721598    23A     -0.687308    24A     -0.678081
      25A     -0.659356    26A     -0.637485    27A     -0.625620
      28A     -0.603780    29A     -0.588940    30A     -0.572174
      31A     -0.554191    32A     -0.545278    33A     -0.533271
      34A     -0.522005    35A     -0.520549    36A     -0.517016
      37A     -0.511425    38A     -0.492165    39A     -0.490487
      40A     -0.457530    41A     -0.453893    42A     -0.443878
      43A     -0.346716

  @DF-RHF Final Energy:  -500.03672788044406

   => Energetics <=

    Nuclear Repulsion Energy =            601.8514205138975512
    One-Electron Energy =               -1873.9217608545789062
    Two-Electron Energy =                 772.0336124602374639
    Total Energy =                       -500.0367278804440048
  Basis Set: (AUG-CC-PVTZ AUX)
    Blend: AUG-CC-PVTZ-RI
    Molecular point group: c1

    Geometry (in Angstrom), charge = 0, multiplicity = 1:

       Center              X                  Y                   Z               Mass
    ------------   -----------------  -----------------  -----------------  -----------------
         O           -1.089907301650    -0.457291956994    -0.012015168433    15.994914619570
         O           -2.530265301650     1.172127043006    -0.673572168433    15.994914619570
         C            2.364649698350     0.015594043006     0.259372831567    12.000000000000
         C            3.613493498350    -0.913120956994     0.337905631567    12.000000000000
         C            1.244926698350    -0.416595956994    -0.352009168433    12.000000000000
         C           -0.013536301650     0.351160043006    -0.565205168433    12.000000000000
         C            2.536261698350     1.383229043006     0.867831831567    12.000000000000
         C            4.770262698350    -0.343611956994    -0.454559168433    12.000000000000
         C           -3.377471301650    -0.815304956994     0.445935831567    12.000000000000
         C           -2.323745301650     0.090790043006    -0.145222168433    12.000000000000
         C           -4.777076301650    -0.229255956994     0.325131831567    12.000000000000
         H            3.309326698350    -1.879210956994    -0.037559168433     1.007825032230
         H            3.863428698350    -1.004963956994     1.388031831567     1.007825032230
         H            1.232745698350    -1.426920956994    -0.760406168433     1.007825032230
         H           -0.219335301650     0.510753043006    -1.629882168433     1.007825032230
         H           -0.020227301650     1.329912043006    -0.081821168433     1.007825032230
         H            3.069448698350     1.303021043006     1.821371831567     1.007825032230
         H            3.132648698350     2.034816043006     0.219905831567     1.007825032230
         H            1.585462698350     1.884644043006     1.056510831567     1.007825032230
         H            5.115879698350     0.613943043006    -0.056289168433     1.007825032230
         H            4.499648698350    -0.198086956994    -1.504436168433     1.007825032230
         H            5.609573698350    -1.043933956994    -0.412186168433     1.007825032230
         H           -3.302436301650    -1.785145956994    -0.058397168433     1.007825032230
         H           -3.107397301650    -1.001429956994     1.491308831567     1.007825032230
         H           -4.841104301650     0.730278043006     0.841875831567     1.007825032230
         H           -5.036772301650    -0.059209956994    -0.721481168433     1.007825032230
         H           -5.513101301650    -0.909738956994     0.761041831567     1.007825032230

  Basis Set: AUG-CC-PVTZ
    Blend: AUG-CC-PVTZ
  Basis Set: (AUG-CC-PVTZ AUX)
    Blend: AUG-CC-PVTZ-JKFIT
	 Reference Energy          =    -500.0367278804440616 [Eh]
	 Singles Energy            =      -0.0000000000000000 [Eh]
	 Same-Spin Energy          =      -0.5094807354209341 [Eh]
	 Opposite-Spin Energy      =      -1.7167929801210937 [Eh]
	 Correlation Energy        =      -2.2262737155420278 [Eh]
	 Total Energy              =    -502.2630015959861112 [Eh]

	 ================> DF-SCS-MP2 Energies <==================
	-----------------------------------------------------------
	 SCS Same-Spin Scale       =       0.3333333333333333 [-]
	 SCS Opposite-Spin Scale   =       1.2000000000000000 [-]
	 SCS Same-Spin Energy      =      -0.1698269118069780 [Eh]
	 SCS Opposite-Spin Energy  =      -2.0601515761453122 [Eh]
	 SCS Correlation Energy    =      -2.2299784879522901 [Eh]
	 SCS Total Energy          =    -502.2667063683963420 [Eh]
	-----------------------------------------------------------

  Dipole Moment: [D]
     X:     1.4579      Y:    -1.1995      Z:     0.7999     Total:     2.0504

*** Psi4 exiting successfully. Buy a developer a beer!
