                               Psi4 1.3.2 release

  ==> Input File <==

--------------------------------------------------------------------------
#psi4
#
memory 32 gb

molecule  {
0 1
  O        1.0716460     0.4753830     0.0137820
  O        2.5728238    -1.0998206    -0.7057383
  C       -2.3693550    -0.0883010     0.2982860
  C       -3.5980660     0.7810210     0.4066790
  C       -1.2626340     0.3942960    -0.2965320
  C        0.0082920    -0.3313460    -0.5624280
  C       -2.5132090    -1.4745150     0.8629900
  C       -4.7090750     0.3554230    -0.5595870
  C        3.3918298     0.8404646     0.4225125
  C        2.3120420    -0.0450080    -0.1482500
  C        4.7580620     0.3036620     0.3135630
  H       -3.3290990     1.8240090     0.2046860
  H       -3.9789780     0.7461160     1.4360390
  H       -1.2730680     1.4248330    -0.6509560
  H        0.2030610    -0.4353830    -1.6357720
  H        0.0474490    -1.3311670    -0.1253770
  H       -2.7951440    -1.4155820     1.9226690
  H       -3.3106690    -2.0257820     0.3507100
  H       -1.6004590    -2.0681310     0.7873000
  H       -5.0436390    -0.6667330    -0.3605950
  H       -4.3535760     0.4008270    -1.5926810
  H       -5.5777020     1.0147490    -0.4669260
  H        3.2685340     1.8407540    -0.0713220
  H        3.0874670     1.0628020     1.4826470
  H        4.8339620    -0.6514900     0.8358700
  H        5.0104170     0.1293290    -0.7342450
  H        5.4905370     0.9935700     0.7404870
units angstrom
no_reorient  #important for SAPT in psi4, default
symmetry c1  #important for SAPT in psi4, default
}

set PROPERTIES_ORIGIN ["COM"]
properties('MP2/aug-cc-pvtz', properties = ['dipole'])
--------------------------------------------------------------------------

    Molecular point group: c1
  Charge       = 0
  Multiplicity = 1
  Basis Set: AUG-CC-PVTZ
    Blend: AUG-CC-PVTZ
  Basis Set: (AUG-CC-PVTZ AUX)
    Blend: AUG-CC-PVTZ-JKFIT

    Orbital Energies [Eh]
    ---------------------

    Doubly Occupied:

       1A    -20.600810     2A    -20.539579     3A    -11.375252
       4A    -11.288703     5A    -11.245463     6A    -11.242732
       7A    -11.229161     8A    -11.227234     9A    -11.224413
      10A    -11.219825    11A    -11.214466    12A     -1.447830
      13A     -1.350085    14A     -1.113464    15A     -1.067254
      16A     -1.024103    17A     -0.979443    18A     -0.920763
      19A     -0.878358    20A     -0.833752    21A     -0.767281
      22A     -0.722131    23A     -0.688374    24A     -0.680549
      25A     -0.659852    26A     -0.637356    27A     -0.624394
      28A     -0.604635    29A     -0.589378    30A     -0.576004
      31A     -0.554831    32A     -0.547103    33A     -0.536059
      34A     -0.531920    35A     -0.516543    36A     -0.514167
      37A     -0.512073    38A     -0.484748    39A     -0.479961
      40A     -0.466781    41A     -0.458567    42A     -0.440932
      43A     -0.347268

  @DF-RHF Final Energy:  -500.03442842576487

   => Energetics <=

    Nuclear Repulsion Energy =            603.0389948367981106
    One-Electron Energy =               -1876.2196468768984232
    Two-Electron Energy =                 773.1462236143354403
    Total Energy =                       -500.0344284257648724
  Basis Set: (AUG-CC-PVTZ AUX)
    Blend: AUG-CC-PVTZ-RI
    Molecular point group: c1

    Geometry (in Angstrom), charge = 0, multiplicity = 1:

       Center              X                  Y                   Z               Mass
    ------------   -----------------  -----------------  -----------------  -----------------
         O            1.064511635752     0.477369686219     0.014306209886    15.994914619570
         O            2.565689435752    -1.097833913781    -0.705214090114    15.994914619570
         C           -2.376489364248    -0.086314313781     0.298810209886    12.000000000000
         C           -3.605200364248     0.783007686219     0.407203209886    12.000000000000
         C           -1.269768364248     0.396282686219    -0.296007790114    12.000000000000
         C            0.001157635752    -0.329359313781    -0.561903790114    12.000000000000
         C           -2.520343364248    -1.472528313781     0.863514209886    12.000000000000
         C           -4.716209364248     0.357409686219    -0.559062790114    12.000000000000
         C            3.384695435752     0.842451286219     0.423036709886    12.000000000000
         C            2.304907635752    -0.043021313781    -0.147725790114    12.000000000000
         C            4.750927635752     0.305648686219     0.314087209886    12.000000000000
         H           -3.336233364248     1.825995686219     0.205210209886     1.007825032230
         H           -3.986112364248     0.748102686219     1.436563209886     1.007825032230
         H           -1.280202364248     1.426819686219    -0.650431790114     1.007825032230
         H            0.195926635752    -0.433396313781    -1.635247790114     1.007825032230
         H            0.040314635752    -1.329180313781    -0.124852790114     1.007825032230
         H           -2.802278364248    -1.413595313781     1.923193209886     1.007825032230
         H           -3.317803364248    -2.023795313781     0.351234209886     1.007825032230
         H           -1.607593364248    -2.066144313781     0.787824209886     1.007825032230
         H           -5.050773364248    -0.664746313781    -0.360070790114     1.007825032230
         H           -4.360710364248     0.402813686219    -1.592156790114     1.007825032230
         H           -5.584836364248     1.016735686219    -0.466401790114     1.007825032230
         H            3.261399635752     1.842740686219    -0.070797790114     1.007825032230
         H            3.080332635752     1.064788686219     1.483171209886     1.007825032230
         H            4.826827635752    -0.649503313781     0.836394209886     1.007825032230
         H            5.003282635752     0.131315686219    -0.733720790114     1.007825032230
         H            5.483402635752     0.995556686219     0.741011209886     1.007825032230

  Basis Set: AUG-CC-PVTZ
    Blend: AUG-CC-PVTZ
  Basis Set: (AUG-CC-PVTZ AUX)
    Blend: AUG-CC-PVTZ-JKFIT
	 Reference Energy          =    -500.0344284257648724 [Eh]
	 Singles Energy            =      -0.0000000000000000 [Eh]
	 Same-Spin Energy          =      -0.5100856790395414 [Eh]
	 Opposite-Spin Energy      =      -1.7171514054610273 [Eh]
	 Correlation Energy        =      -2.2272370845005689 [Eh]
	 Total Energy              =    -502.2616655102654590 [Eh]

	 ================> DF-SCS-MP2 Energies <==================
	-----------------------------------------------------------
	 SCS Same-Spin Scale       =       0.3333333333333333 [-]
	 SCS Opposite-Spin Scale   =       1.2000000000000000 [-]
	 SCS Same-Spin Energy      =      -0.1700285596798471 [Eh]
	 SCS Opposite-Spin Energy  =      -2.0605816865532325 [Eh]
	 SCS Correlation Energy    =      -2.2306102462330797 [Eh]
	 SCS Total Energy          =    -502.2650386719979565 [Eh]
	-----------------------------------------------------------

  Dipole Moment: [D]
     X:    -1.5820      Y:     1.1483      Z:     0.8100     Total:     2.1160

*** Psi4 exiting successfully. Buy a developer a beer!
