                               Psi4 1.3.2 release

  ==> Input File <==

--------------------------------------------------------------------------
#psi4
#
memory 32 gb

molecule  {
0 1
  O        1.0716460     0.4753830     0.0137820
  O        2.5311320    -1.1057930    -0.7123110
  C       -2.3693550    -0.0883010     0.2982860
  C       -3.5980660     0.7810210     0.4066790
  C       -1.2626340     0.3942960    -0.2965320
  C        0.0082920    -0.3313460    -0.5624280
  C       -2.5132090    -1.4745150     0.8629900
  C       -4.7090750     0.3554230    -0.5595870
  C        3.3545870     0.8742710     0.4380940
  C        2.3479219    -0.2187304    -0.2406250
  C        4.7580620     0.3036620     0.3135630
  H       -3.3290990     1.8240090     0.2046860
  H       -3.9789780     0.7461160     1.4360390
  H       -1.2730680     1.4248330    -0.6509560
  H        0.2030610    -0.4353830    -1.6357720
  H        0.0474490    -1.3311670    -0.1253770
  H       -2.7951440    -1.4155820     1.9226690
  H       -3.3106690    -2.0257820     0.3507100
  H       -1.6004590    -2.0681310     0.7873000
  H       -5.0436390    -0.6667330    -0.3605950
  H       -4.3535760     0.4008270    -1.5926810
  H       -5.5777020     1.0147490    -0.4669260
  H        3.2685340     1.8407540    -0.0713220
  H        3.0874670     1.0628020     1.4826470
  H        4.8339620    -0.6514900     0.8358700
  H        5.0104170     0.1293290    -0.7342450
  H        5.4905370     0.9935700     0.7404870
units angstrom
no_reorient  #important for SAPT in psi4, default
symmetry c1  #important for SAPT in psi4, default
}

set PROPERTIES_ORIGIN ["COM"]
properties('MP2/aug-cc-pvtz', properties = ['dipole'])
--------------------------------------------------------------------------

    Molecular point group: c1
  Charge       = 0
  Multiplicity = 1
  Basis Set: AUG-CC-PVTZ
    Blend: AUG-CC-PVTZ
  Basis Set: (AUG-CC-PVTZ AUX)
    Blend: AUG-CC-PVTZ-JKFIT

    Orbital Energies [Eh]
    ---------------------

    Doubly Occupied:

       1A    -20.580742     2A    -20.563649     3A    -11.359513
       4A    -11.273103     5A    -11.236832     6A    -11.235830
       7A    -11.223183     8A    -11.221683     9A    -11.216545
      10A    -11.215239    11A    -11.215160    12A     -1.566761
      13A     -1.351513    14A     -1.104214    15A     -1.043015
      16A     -1.011210    17A     -0.966369    18A     -0.903449
      19A     -0.860759    20A     -0.823512    21A     -0.767516
      22A     -0.742930    23A     -0.702305    24A     -0.692427
      25A     -0.690373    26A     -0.644189    27A     -0.621380
      28A     -0.600598    29A     -0.585401    30A     -0.583663
      31A     -0.566897    32A     -0.556769    33A     -0.540963
      34A     -0.527782    35A     -0.514439    36A     -0.509749
      37A     -0.506503    38A     -0.497022    39A     -0.479985
      40A     -0.462594    41A     -0.449192    42A     -0.412778
      43A     -0.336164

  @DF-RHF Final Energy:  -499.95642337055239

   => Energetics <=

    Nuclear Repulsion Energy =            604.2367753403269717
    One-Electron Energy =               -1878.4586012604097505
    Two-Electron Energy =                 774.2654025495302221
    Total Energy =                       -499.9564233705524430
  Basis Set: (AUG-CC-PVTZ AUX)
    Blend: AUG-CC-PVTZ-RI
    Molecular point group: c1

    Geometry (in Angstrom), charge = 0, multiplicity = 1:

       Center              X                  Y                   Z               Mass
    ------------   -----------------  -----------------  -----------------  -----------------
         O            1.068887970192     0.488736433104     0.020882461878    15.994914619570
         O            2.528373970192    -1.092439566896    -0.705210538122    15.994914619570
         C           -2.372113029808    -0.074947566896     0.305386461878    12.000000000000
         C           -3.600824029808     0.794374433104     0.413779461878    12.000000000000
         C           -1.265392029808     0.407649433104    -0.289431538122    12.000000000000
         C            0.005533970192    -0.317992566896    -0.555327538122    12.000000000000
         C           -2.515967029808    -1.461161566896     0.870090461878    12.000000000000
         C           -4.711833029808     0.368776433104    -0.552486538122    12.000000000000
         C            3.351828970192     0.887624433104     0.445194461878    12.000000000000
         C            2.345163870192    -0.205376966896    -0.233524538122    12.000000000000
         C            4.755303970192     0.317015433104     0.320663461878    12.000000000000
         H           -3.331857029808     1.837362433104     0.211786461878     1.007825032230
         H           -3.981736029808     0.759469433104     1.443139461878     1.007825032230
         H           -1.275826029808     1.438186433104    -0.643855538122     1.007825032230
         H            0.200302970192    -0.422029566896    -1.628671538122     1.007825032230
         H            0.044690970192    -1.317813566896    -0.118276538122     1.007825032230
         H           -2.797902029808    -1.402228566896     1.929769461878     1.007825032230
         H           -3.313427029808    -2.012428566896     0.357810461878     1.007825032230
         H           -1.603217029808    -2.054777566896     0.794400461878     1.007825032230
         H           -5.046397029808    -0.653379566896    -0.353494538122     1.007825032230
         H           -4.356334029808     0.414180433104    -1.585580538122     1.007825032230
         H           -5.580460029808     1.028102433104    -0.459825538122     1.007825032230
         H            3.265775970192     1.854107433104    -0.064221538122     1.007825032230
         H            3.084708970192     1.076155433104     1.489747461878     1.007825032230
         H            4.831203970192    -0.638136566896     0.842970461878     1.007825032230
         H            5.007658970192     0.142682433104    -0.727144538122     1.007825032230
         H            5.487778970192     1.006923433104     0.747587461878     1.007825032230

  Basis Set: AUG-CC-PVTZ
    Blend: AUG-CC-PVTZ
  Basis Set: (AUG-CC-PVTZ AUX)
    Blend: AUG-CC-PVTZ-JKFIT
	 Reference Energy          =    -499.9564233705523861 [Eh]
	 Singles Energy            =      -0.0000000000000000 [Eh]
	 Same-Spin Energy          =      -0.5072450863178573 [Eh]
	 Opposite-Spin Energy      =      -1.7124803586556872 [Eh]
	 Correlation Energy        =      -2.2197254449735446 [Eh]
	 Total Energy              =    -502.1761488155259485 [Eh]

	 ================> DF-SCS-MP2 Energies <==================
	-----------------------------------------------------------
	 SCS Same-Spin Scale       =       0.3333333333333333 [-]
	 SCS Opposite-Spin Scale   =       1.2000000000000000 [-]
	 SCS Same-Spin Energy      =      -0.1690816954392858 [Eh]
	 SCS Opposite-Spin Energy  =      -2.0549764303868243 [Eh]
	 SCS Correlation Energy    =      -2.2240581258261098 [Eh]
	 SCS Total Energy          =    -502.1804814963784906 [Eh]
	-----------------------------------------------------------

  Dipole Moment: [D]
     X:    -0.4615      Y:     0.0880      Z:     0.2559     Total:     0.5350

*** Psi4 exiting successfully. Buy a developer a beer!
