                               Psi4 1.3.2 release

  ==> Input File <==

--------------------------------------------------------------------------
#psi4
#
memory 32 gb

molecule  {
0 1
  O        1.0716460     0.4753830     0.0137820
  O        2.5311320    -1.1057930    -0.7123110
  C       -2.3693550    -0.0883010     0.2982860
  C       -3.5980660     0.7810210     0.4066790
  C       -1.4270879     0.3225842    -0.2081446
  C        0.0082920    -0.3313460    -0.5624280
  C       -2.5132090    -1.4745150     0.8629900
  C       -4.7090750     0.3554230    -0.5595870
  C        3.3545870     0.8742710     0.4380940
  C        2.3120420    -0.0450080    -0.1482500
  C        4.7580620     0.3036620     0.3135630
  H       -3.3290990     1.8240090     0.2046860
  H       -3.9789780     0.7461160     1.4360390
  H       -1.2730680     1.4248330    -0.6509560
  H        0.2030610    -0.4353830    -1.6357720
  H        0.0474490    -1.3311670    -0.1253770
  H       -2.7951440    -1.4155820     1.9226690
  H       -3.3106690    -2.0257820     0.3507100
  H       -1.6004590    -2.0681310     0.7873000
  H       -5.0436390    -0.6667330    -0.3605950
  H       -4.3535760     0.4008270    -1.5926810
  H       -5.5777020     1.0147490    -0.4669260
  H        3.2685340     1.8407540    -0.0713220
  H        3.0874670     1.0628020     1.4826470
  H        4.8339620    -0.6514900     0.8358700
  H        5.0104170     0.1293290    -0.7342450
  H        5.4905370     0.9935700     0.7404870
units angstrom
no_reorient  #important for SAPT in psi4, default
symmetry c1  #important for SAPT in psi4, default
}

set PROPERTIES_ORIGIN ["COM"]
properties('MP2/aug-cc-pvtz', properties = ['dipole'])
--------------------------------------------------------------------------

    Molecular point group: c1
  Charge       = 0
  Multiplicity = 1
  Basis Set: AUG-CC-PVTZ
    Blend: AUG-CC-PVTZ
  Basis Set: (AUG-CC-PVTZ AUX)
    Blend: AUG-CC-PVTZ-JKFIT

    Orbital Energies [Eh]
    ---------------------

    Doubly Occupied:

       1A    -20.600360     2A    -20.541569     3A    -11.377297
       4A    -11.292880     5A    -11.243197     6A    -11.226212
       7A    -11.225074     8A    -11.218544     9A    -11.218262
      10A    -11.214820    11A    -11.206914    12A     -1.448740
      13A     -1.347878    14A     -1.144504    15A     -1.063404
      16A     -1.017906    17A     -0.968184    18A     -0.938792
      19A     -0.877376    20A     -0.842322    21A     -0.765092
      22A     -0.709959    23A     -0.683646    24A     -0.679020
      25A     -0.658516    26A     -0.640299    27A     -0.623616
      28A     -0.609947    29A     -0.589708    30A     -0.577550
      31A     -0.553065    32A     -0.546720    33A     -0.531108
      34A     -0.521752    35A     -0.520226    36A     -0.516582
      37A     -0.508453    38A     -0.493136    39A     -0.483372
      40A     -0.458452    41A     -0.445934    42A     -0.417374
      43A     -0.398415

  @DF-RHF Final Energy:  -499.96808042089401

   => Energetics <=

    Nuclear Repulsion Energy =            604.5084798410050553
    One-Electron Energy =               -1879.0607732963867420
    Two-Electron Energy =                 774.5842130344876750
    Total Energy =                       -499.9680804208940117
  Basis Set: (AUG-CC-PVTZ AUX)
    Blend: AUG-CC-PVTZ-RI
    Molecular point group: c1

    Geometry (in Angstrom), charge = 0, multiplicity = 1:

       Center              X                  Y                   Z               Mass
    ------------   -----------------  -----------------  -----------------  -----------------
         O            1.084286907781     0.480895245731     0.006987907309    15.994914619570
         O            2.543772907781    -1.100280754269    -0.719105092691    15.994914619570
         C           -2.356714092219    -0.082788754269     0.291491907309    12.000000000000
         C           -3.585425092219     0.786533245731     0.399884907309    12.000000000000
         C           -1.414446992219     0.328096445731    -0.214938692691    12.000000000000
         C            0.020932907781    -0.325833754269    -0.569222092691    12.000000000000
         C           -2.500568092219    -1.469002754269     0.856195907309    12.000000000000
         C           -4.696434092219     0.360935245731    -0.566381092691    12.000000000000
         C            3.367227907781     0.879783245731     0.431299907309    12.000000000000
         C            2.324682907781    -0.039495754269    -0.155044092691    12.000000000000
         C            4.770702907781     0.309174245731     0.306768907309    12.000000000000
         H           -3.316458092219     1.829521245731     0.197891907309     1.007825032230
         H           -3.966337092219     0.751628245731     1.429244907309     1.007825032230
         H           -1.260427092219     1.430345245731    -0.657750092691     1.007825032230
         H            0.215701907781    -0.429870754269    -1.642566092691     1.007825032230
         H            0.060089907781    -1.325654754269    -0.132171092691     1.007825032230
         H           -2.782503092219    -1.410069754269     1.915874907309     1.007825032230
         H           -3.298028092219    -2.020269754269     0.343915907309     1.007825032230
         H           -1.587818092219    -2.062618754269     0.780505907309     1.007825032230
         H           -5.030998092219    -0.661220754269    -0.367389092691     1.007825032230
         H           -4.340935092219     0.406339245731    -1.599475092691     1.007825032230
         H           -5.565061092219     1.020261245731    -0.473720092691     1.007825032230
         H            3.281174907781     1.846266245731    -0.078116092691     1.007825032230
         H            3.100107907781     1.068314245731     1.475852907309     1.007825032230
         H            4.846602907781    -0.645977754269     0.829075907309     1.007825032230
         H            5.023057907781     0.134841245731    -0.741039092691     1.007825032230
         H            5.503177907781     0.999082245731     0.733692907309     1.007825032230

  Basis Set: AUG-CC-PVTZ
    Blend: AUG-CC-PVTZ
  Basis Set: (AUG-CC-PVTZ AUX)
    Blend: AUG-CC-PVTZ-JKFIT
	 Reference Energy          =    -499.9680804208940117 [Eh]
	 Singles Energy            =      -0.0000000000000000 [Eh]
	 Same-Spin Energy          =      -0.5087189013413249 [Eh]
	 Opposite-Spin Energy      =      -1.7146433260829113 [Eh]
	 Correlation Energy        =      -2.2233622274242362 [Eh]
	 Total Energy              =    -502.1914426483182297 [Eh]

	 ================> DF-SCS-MP2 Energies <==================
	-----------------------------------------------------------
	 SCS Same-Spin Scale       =       0.3333333333333333 [-]
	 SCS Opposite-Spin Scale   =       1.2000000000000000 [-]
	 SCS Same-Spin Energy      =      -0.1695729671137750 [Eh]
	 SCS Opposite-Spin Energy  =      -2.0575719912994934 [Eh]
	 SCS Correlation Energy    =      -2.2271449584132683 [Eh]
	 SCS Total Energy          =    -502.1952253793072600 [Eh]
	-----------------------------------------------------------

  Dipole Moment: [D]
     X:    -1.3742      Y:     1.1333      Z:     0.8538     Total:     1.9753

*** Psi4 exiting successfully. Buy a developer a beer!
