                               Psi4 1.3.2 release

  ==> Input File <==

--------------------------------------------------------------------------
#psi4
#
memory 32 gb

molecule  {
0 1
  O        1.0716460     0.4753830     0.0137820
  O        2.5311320    -1.1057930    -0.7123110
  C       -2.3746524    -0.0779350     0.2967241
  C       -3.5980660     0.7810210     0.4066790
  C       -1.2626340     0.3942960    -0.2965320
  C        0.0082920    -0.3313460    -0.5624280
  C       -2.5132090    -1.4745150     0.8629900
  C       -4.7090750     0.3554230    -0.5595870
  C        3.3545870     0.8742710     0.4380940
  C        2.3120420    -0.0450080    -0.1482500
  C        4.7580620     0.3036620     0.3135630
  H       -3.3290990     1.8240090     0.2046860
  H       -3.9789780     0.7461160     1.4360390
  H       -1.2820029     1.4257718    -0.6478356
  H        0.2030610    -0.4353830    -1.6357720
  H        0.0474490    -1.3311670    -0.1253770
  H       -2.7951440    -1.4155820     1.9226690
  H       -3.3106690    -2.0257820     0.3507100
  H       -1.6004590    -2.0681310     0.7873000
  H       -5.0436390    -0.6667330    -0.3605950
  H       -4.3535760     0.4008270    -1.5926810
  H       -5.5777020     1.0147490    -0.4669260
  H        3.2685340     1.8407540    -0.0713220
  H        3.0874670     1.0628020     1.4826470
  H        4.8339620    -0.6514900     0.8358700
  H        5.0104170     0.1293290    -0.7342450
  H        5.4905370     0.9935700     0.7404870
units angstrom
no_reorient  #important for SAPT in psi4, default
symmetry c1  #important for SAPT in psi4, default
}

set PROPERTIES_ORIGIN ["COM"]
properties('MP2/aug-cc-pvtz', properties = ['dipole'])
--------------------------------------------------------------------------

    Molecular point group: c1
  Charge       = 0
  Multiplicity = 1
  Basis Set: AUG-CC-PVTZ
    Blend: AUG-CC-PVTZ
  Basis Set: (AUG-CC-PVTZ AUX)
    Blend: AUG-CC-PVTZ-JKFIT

    Orbital Energies [Eh]
    ---------------------

    Doubly Occupied:

       1A    -20.597450     2A    -20.540850     3A    -11.375614
       4A    -11.287054     5A    -11.244164     6A    -11.242243
       7A    -11.228139     8A    -11.226444     9A    -11.223180
      10A    -11.219474    11A    -11.217903    12A     -1.448238
      13A     -1.347702    14A     -1.112808    15A     -1.064049
      16A     -1.022142    17A     -0.976672    18A     -0.919845
      19A     -0.879719    20A     -0.834411    21A     -0.767488
      22A     -0.722168    23A     -0.687874    24A     -0.680149
      25A     -0.660357    26A     -0.638431    27A     -0.624434
      28A     -0.605119    29A     -0.588078    30A     -0.573982
      31A     -0.552366    32A     -0.544679    33A     -0.533412
      34A     -0.521892    35A     -0.517261    36A     -0.514646
      37A     -0.512140    38A     -0.492333    39A     -0.483924
      40A     -0.467010    41A     -0.457419    42A     -0.444540
      43A     -0.346041

  @DF-RHF Final Energy:  -500.03824547831402

   => Energetics <=

    Nuclear Repulsion Energy =            603.0656556963923549
    One-Electron Energy =               -1876.3201145235141212
    Two-Electron Energy =                 773.2162133488076279
    Total Energy =                       -500.0382454783140247
  Basis Set: (AUG-CC-PVTZ AUX)
    Blend: AUG-CC-PVTZ-RI
    Molecular point group: c1

    Geometry (in Angstrom), charge = 0, multiplicity = 1:

       Center              X                  Y                   Z               Mass
    ------------   -----------------  -----------------  -----------------  -----------------
         O            1.072110801566     0.474580160325     0.013881841765    15.994914619570
         O            2.531596801566    -1.106595839675    -0.712211158235    15.994914619570
         C           -2.374187598434    -0.078737839675     0.296823941765    12.000000000000
         C           -3.597601198434     0.780218160325     0.406778841765    12.000000000000
         C           -1.262169198434     0.393493160325    -0.296432158235    12.000000000000
         C            0.008756801566    -0.332148839675    -0.562328158235    12.000000000000
         C           -2.512744198434    -1.475317839675     0.863089841765    12.000000000000
         C           -4.708610198434     0.354620160325    -0.559487158235    12.000000000000
         C            3.355051801566     0.873468160325     0.438193841765    12.000000000000
         C            2.312506801566    -0.045810839675    -0.148150158235    12.000000000000
         C            4.758526801566     0.302859160325     0.313662841765    12.000000000000
         H           -3.328634198434     1.823206160325     0.204785841765     1.007825032230
         H           -3.978513198434     0.745313160325     1.436138841765     1.007825032230
         H           -1.281538098434     1.424968960325    -0.647735758235     1.007825032230
         H            0.203525801566    -0.436185839675    -1.635672158235     1.007825032230
         H            0.047913801566    -1.331969839675    -0.125277158235     1.007825032230
         H           -2.794679198434    -1.416384839675     1.922768841765     1.007825032230
         H           -3.310204198434    -2.026584839675     0.350809841765     1.007825032230
         H           -1.599994198434    -2.068933839675     0.787399841765     1.007825032230
         H           -5.043174198434    -0.667535839675    -0.360495158235     1.007825032230
         H           -4.353111198434     0.400024160325    -1.592581158235     1.007825032230
         H           -5.577237198434     1.013946160325    -0.466826158235     1.007825032230
         H            3.268998801566     1.839951160325    -0.071222158235     1.007825032230
         H            3.087931801566     1.061999160325     1.482746841765     1.007825032230
         H            4.834426801566    -0.652292839675     0.835969841765     1.007825032230
         H            5.010881801566     0.128526160325    -0.734145158235     1.007825032230
         H            5.491001801566     0.992767160325     0.740586841765     1.007825032230

  Basis Set: AUG-CC-PVTZ
    Blend: AUG-CC-PVTZ
  Basis Set: (AUG-CC-PVTZ AUX)
    Blend: AUG-CC-PVTZ-JKFIT
	 Reference Energy          =    -500.0382454783140247 [Eh]
	 Singles Energy            =      -0.0000000000000000 [Eh]
	 Same-Spin Energy          =      -0.5097750222647736 [Eh]
	 Opposite-Spin Energy      =      -1.7168522426346806 [Eh]
	 Correlation Energy        =      -2.2266272648994541 [Eh]
	 Total Energy              =    -502.2648727432134592 [Eh]

	 ================> DF-SCS-MP2 Energies <==================
	-----------------------------------------------------------
	 SCS Same-Spin Scale       =       0.3333333333333333 [-]
	 SCS Opposite-Spin Scale   =       1.2000000000000000 [-]
	 SCS Same-Spin Energy      =      -0.1699250074215912 [Eh]
	 SCS Opposite-Spin Energy  =      -2.0602226911616168 [Eh]
	 SCS Correlation Energy    =      -2.2301476985832078 [Eh]
	 SCS Total Energy          =    -502.2683931768972343 [Eh]
	-----------------------------------------------------------

  Dipole Moment: [D]
     X:    -1.4495      Y:     1.1916      Z:     0.8277     Total:     2.0508

*** Psi4 exiting successfully. Buy a developer a beer!
