                               Psi4 1.3.2 release

  ==> Input File <==

--------------------------------------------------------------------------
#psi4
#
memory 32 gb

molecule  {
0 1
  O        1.0716460     0.4753830     0.0137820
  O        2.5311320    -1.1057930    -0.7123110
  C       -2.3693550    -0.0883010     0.2982860
  C       -3.5980660     0.7810210     0.4066790
  C       -1.2626340     0.3942960    -0.2965320
  C        0.0357506    -0.2667297    -0.5961192
  C       -2.5132090    -1.4745150     0.8629900
  C       -4.7090750     0.3554230    -0.5595870
  C        3.3545870     0.8742710     0.4380940
  C        2.3120420    -0.0450080    -0.1482500
  C        4.7580620     0.3036620     0.3135630
  H       -3.3290990     1.8240090     0.2046860
  H       -3.9789780     0.7461160     1.4360390
  H       -1.2198326     1.4172334    -0.6700276
  H        0.2030610    -0.4353830    -1.6357720
  H        0.0474490    -1.3311670    -0.1253770
  H       -2.7951440    -1.4155820     1.9226690
  H       -3.3106690    -2.0257820     0.3507100
  H       -1.6004590    -2.0681310     0.7873000
  H       -5.0436390    -0.6667330    -0.3605950
  H       -4.3535760     0.4008270    -1.5926810
  H       -5.5777020     1.0147490    -0.4669260
  H        3.2685340     1.8407540    -0.0713220
  H        3.0874670     1.0628020     1.4826470
  H        4.8339620    -0.6514900     0.8358700
  H        5.0104170     0.1293290    -0.7342450
  H        5.4905370     0.9935700     0.7404870
units angstrom
no_reorient  #important for SAPT in psi4, default
symmetry c1  #important for SAPT in psi4, default
}

set PROPERTIES_ORIGIN ["COM"]
properties('MP2/aug-cc-pvtz', properties = ['dipole'])
--------------------------------------------------------------------------

    Molecular point group: c1
  Charge       = 0
  Multiplicity = 1
  Basis Set: AUG-CC-PVTZ
    Blend: AUG-CC-PVTZ
  Basis Set: (AUG-CC-PVTZ AUX)
    Blend: AUG-CC-PVTZ-JKFIT

    Orbital Energies [Eh]
    ---------------------

    Doubly Occupied:

       1A    -20.601714     2A    -20.543579     3A    -11.378581
       4A    -11.285952     5A    -11.245420     6A    -11.244116
       7A    -11.227995     8A    -11.225300     9A    -11.222648
      10A    -11.219179    11A    -11.218682    12A     -1.458028
      13A     -1.354076    14A     -1.110873    15A     -1.066462
      16A     -1.021129    17A     -0.978721    18A     -0.920316
      19A     -0.879186    20A     -0.832969    21A     -0.772512
      22A     -0.725348    23A     -0.692122    24A     -0.682398
      25A     -0.663657    26A     -0.639912    27A     -0.624389
      28A     -0.606058    29A     -0.588128    30A     -0.575181
      31A     -0.550473    32A     -0.546918    33A     -0.533245
      34A     -0.524230    35A     -0.519861    36A     -0.514557
      37A     -0.506483    38A     -0.491480    39A     -0.483180
      40A     -0.464542    41A     -0.450282    42A     -0.444229
      43A     -0.346433

  @DF-RHF Final Energy:  -500.03137746023469

   => Energetics <=

    Nuclear Repulsion Energy =            603.4407362042472869
    One-Electron Energy =               -1876.9831429885457510
    Two-Electron Energy =                 773.5110293240637702
    Total Energy =                       -500.0313774602346939
  Basis Set: (AUG-CC-PVTZ AUX)
    Blend: AUG-CC-PVTZ-RI
    Molecular point group: c1

    Geometry (in Angstrom), charge = 0, multiplicity = 1:

       Center              X                  Y                   Z               Mass
    ------------   -----------------  -----------------  -----------------  -----------------
         O            1.069191615724     0.470465256156     0.016494769257    15.994914619570
         O            2.528677615724    -1.110710743844    -0.709598230743    15.994914619570
         C           -2.371809384276    -0.093218743844     0.300998769257    12.000000000000
         C           -3.600520384276     0.776103256156     0.409391769257    12.000000000000
         C           -1.265088384276     0.389378256156    -0.293819230743    12.000000000000
         C            0.033296215724    -0.271647443844    -0.593406430743    12.000000000000
         C           -2.515663384276    -1.479432743844     0.865702769257    12.000000000000
         C           -4.711529384276     0.350505256156    -0.556874230743    12.000000000000
         C            3.352132615724     0.869353256156     0.440806769257    12.000000000000
         C            2.309587615724    -0.049925743844    -0.145537230743    12.000000000000
         C            4.755607615724     0.298744256156     0.316275769257    12.000000000000
         H           -3.331553384276     1.819091256156     0.207398769257     1.007825032230
         H           -3.981432384276     0.741198256156     1.438751769257     1.007825032230
         H           -1.222286984276     1.412315656156    -0.667314830743     1.007825032230
         H            0.200606615724    -0.440300743844    -1.633059230743     1.007825032230
         H            0.044994615724    -1.336084743844    -0.122664230743     1.007825032230
         H           -2.797598384276    -1.420499743844     1.925381769257     1.007825032230
         H           -3.313123384276    -2.030699743844     0.353422769257     1.007825032230
         H           -1.602913384276    -2.073048743844     0.790012769257     1.007825032230
         H           -5.046093384276    -0.671650743844    -0.357882230743     1.007825032230
         H           -4.356030384276     0.395909256156    -1.589968230743     1.007825032230
         H           -5.580156384276     1.009831256156    -0.464213230743     1.007825032230
         H            3.266079615724     1.835836256156    -0.068609230743     1.007825032230
         H            3.085012615724     1.057884256156     1.485359769257     1.007825032230
         H            4.831507615724    -0.656407743844     0.838582769257     1.007825032230
         H            5.007962615724     0.124411256156    -0.731532230743     1.007825032230
         H            5.488082615724     0.988652256156     0.743199769257     1.007825032230

  Basis Set: AUG-CC-PVTZ
    Blend: AUG-CC-PVTZ
  Basis Set: (AUG-CC-PVTZ AUX)
    Blend: AUG-CC-PVTZ-JKFIT
	 Reference Energy          =    -500.0313774602346939 [Eh]
	 Singles Energy            =      -0.0000000000000000 [Eh]
	 Same-Spin Energy          =      -0.5098766244156345 [Eh]
	 Opposite-Spin Energy      =      -1.7168603693125339 [Eh]
	 Correlation Energy        =      -2.2267369937281685 [Eh]
	 Total Energy              =    -502.2581144539628895 [Eh]

	 ================> DF-SCS-MP2 Energies <==================
	-----------------------------------------------------------
	 SCS Same-Spin Scale       =       0.3333333333333333 [-]
	 SCS Opposite-Spin Scale   =       1.2000000000000000 [-]
	 SCS Same-Spin Energy      =      -0.1699588748052115 [Eh]
	 SCS Opposite-Spin Energy  =      -2.0602324431750407 [Eh]
	 SCS Correlation Energy    =      -2.2301913179802524 [Eh]
	 SCS Total Energy          =    -502.2615687782149507 [Eh]
	-----------------------------------------------------------

  Dipole Moment: [D]
     X:    -1.2663      Y:     1.2742      Z:     0.8018     Total:     1.9672

*** Psi4 exiting successfully. Buy a developer a beer!
