                               Psi4 1.3.2 release

  ==> Input File <==

--------------------------------------------------------------------------
#psi4
#
memory 32 gb

molecule  {
0 1
  O        1.0716460     0.4753830     0.0137820
  O        2.5311320    -1.1057930    -0.7123110
  C       -2.3358155    -0.1496978     0.3067025
  C       -3.5980660     0.7810210     0.4066790
  C       -1.2626340     0.3942960    -0.2965320
  C        0.0082920    -0.3313460    -0.5624280
  C       -2.5132090    -1.4745150     0.8629900
  C       -4.7090750     0.3554230    -0.5595870
  C        3.3545870     0.8742710     0.4380940
  C        2.3120420    -0.0450080    -0.1482500
  C        4.7580620     0.3036620     0.3135630
  H       -3.3290990     1.8240090     0.2046860
  H       -3.9789780     0.7461160     1.4360390
  H       -1.2194659     1.4175549    -0.6691034
  H        0.2030610    -0.4353830    -1.6357720
  H        0.0474490    -1.3311670    -0.1253770
  H       -2.7951440    -1.4155820     1.9226690
  H       -3.3106690    -2.0257820     0.3507100
  H       -1.6004590    -2.0681310     0.7873000
  H       -5.0436390    -0.6667330    -0.3605950
  H       -4.3535760     0.4008270    -1.5926810
  H       -5.5777020     1.0147490    -0.4669260
  H        3.2685340     1.8407540    -0.0713220
  H        3.0874670     1.0628020     1.4826470
  H        4.8339620    -0.6514900     0.8358700
  H        5.0104170     0.1293290    -0.7342450
  H        5.4905370     0.9935700     0.7404870
units angstrom
no_reorient  #important for SAPT in psi4, default
symmetry c1  #important for SAPT in psi4, default
}

set PROPERTIES_ORIGIN ["COM"]
properties('MP2/aug-cc-pvtz', properties = ['dipole'])
--------------------------------------------------------------------------

    Molecular point group: c1
  Charge       = 0
  Multiplicity = 1
  Basis Set: AUG-CC-PVTZ
    Blend: AUG-CC-PVTZ
  Basis Set: (AUG-CC-PVTZ AUX)
    Blend: AUG-CC-PVTZ-JKFIT

    Orbital Energies [Eh]
    ---------------------

    Doubly Occupied:

       1A    -20.596505     2A    -20.540253     3A    -11.374975
       4A    -11.283344     5A    -11.245338     6A    -11.241919
       7A    -11.229893     8A    -11.225970     9A    -11.224457
      10A    -11.217755    11A    -11.217666    12A     -1.447458
      13A     -1.347034    14A     -1.112424    15A     -1.063257
      16A     -1.019772    17A     -0.986013    18A     -0.918461
      19A     -0.875657    20A     -0.828671    21A     -0.767193
      22A     -0.726024    23A     -0.687647    24A     -0.679573
      25A     -0.659149    26A     -0.639745    27A     -0.619999
      28A     -0.605774    29A     -0.589164    30A     -0.577145
      31A     -0.557391    32A     -0.545183    33A     -0.535644
      34A     -0.524679    35A     -0.518777    36A     -0.514187
      37A     -0.510018    38A     -0.491926    39A     -0.485243
      40A     -0.457074    41A     -0.450766    42A     -0.443224
      43A     -0.346501

  @DF-RHF Final Energy:  -500.03222557746648

   => Energetics <=

    Nuclear Repulsion Energy =            603.1952562770956092
    One-Electron Energy =               -1876.5972690270173189
    Two-Electron Energy =                 773.3697871724551760
    Total Energy =                       -500.0322255774664200
  Basis Set: (AUG-CC-PVTZ AUX)
    Blend: AUG-CC-PVTZ-RI
    Molecular point group: c1

    Geometry (in Angstrom), charge = 0, multiplicity = 1:

       Center              X                  Y                   Z               Mass
    ------------   -----------------  -----------------  -----------------  -----------------
         O            1.068721831555     0.480149353751     0.013252135715    15.994914619570
         O            2.528207831555    -1.101026646249    -0.712840864285    15.994914619570
         C           -2.338739668445    -0.144931446249     0.306172635715    12.000000000000
         C           -3.600990168445     0.785787353751     0.406149135715    12.000000000000
         C           -1.265558168445     0.399062353751    -0.297061864285    12.000000000000
         C            0.005367831555    -0.326579646249    -0.562957864285    12.000000000000
         C           -2.516133168445    -1.469748646249     0.862460135715    12.000000000000
         C           -4.711999168445     0.360189353751    -0.560116864285    12.000000000000
         C            3.351662831555     0.879037353751     0.437564135715    12.000000000000
         C            2.309117831555    -0.040241646249    -0.148779864285    12.000000000000
         C            4.755137831555     0.308428353751     0.313033135715    12.000000000000
         H           -3.332023168445     1.828775353751     0.204156135715     1.007825032230
         H           -3.981902168445     0.750882353751     1.435509135715     1.007825032230
         H           -1.222390068445     1.422321253751    -0.669633264285     1.007825032230
         H            0.200136831555    -0.430616646249    -1.636301864285     1.007825032230
         H            0.044524831555    -1.326400646249    -0.125906864285     1.007825032230
         H           -2.798068168445    -1.410815646249     1.922139135715     1.007825032230
         H           -3.313593168445    -2.021015646249     0.350180135715     1.007825032230
         H           -1.603383168445    -2.063364646249     0.786770135715     1.007825032230
         H           -5.046563168445    -0.661966646249    -0.361124864285     1.007825032230
         H           -4.356500168445     0.405593353751    -1.593210864285     1.007825032230
         H           -5.580626168445     1.019515353751    -0.467455864285     1.007825032230
         H            3.265609831555     1.845520353751    -0.071851864285     1.007825032230
         H            3.084542831555     1.067568353751     1.482117135715     1.007825032230
         H            4.831037831555    -0.646723646249     0.835340135715     1.007825032230
         H            5.007492831555     0.134095353751    -0.734774864285     1.007825032230
         H            5.487612831555     0.998336353751     0.739957135715     1.007825032230

  Basis Set: AUG-CC-PVTZ
    Blend: AUG-CC-PVTZ
  Basis Set: (AUG-CC-PVTZ AUX)
    Blend: AUG-CC-PVTZ-JKFIT
	 Reference Energy          =    -500.0322255774664768 [Eh]
	 Singles Energy            =      -0.0000000000000000 [Eh]
	 Same-Spin Energy          =      -0.5099690459681758 [Eh]
	 Opposite-Spin Energy      =      -1.7172099556536791 [Eh]
	 Correlation Energy        =      -2.2271790016218551 [Eh]
	 Total Energy              =    -502.2594045790883115 [Eh]

	 ================> DF-SCS-MP2 Energies <==================
	-----------------------------------------------------------
	 SCS Same-Spin Scale       =       0.3333333333333333 [-]
	 SCS Opposite-Spin Scale   =       1.2000000000000000 [-]
	 SCS Same-Spin Energy      =      -0.1699896819893919 [Eh]
	 SCS Opposite-Spin Energy  =      -2.0606519467844149 [Eh]
	 SCS Correlation Energy    =      -2.2306416287738067 [Eh]
	 SCS Total Energy          =    -502.2628672062402870 [Eh]
	-----------------------------------------------------------

  Dipole Moment: [D]
     X:    -1.4318      Y:     1.1244      Z:     0.8562     Total:     2.0118

*** Psi4 exiting successfully. Buy a developer a beer!
