                               Psi4 1.4a3.dev225

  ==> Input File <==

--------------------------------------------------------------------------
#psi4
#
memory 32 gb

molecule  {
0 1
  O       -1.1411000    -0.4541930    -0.0251880
  O       -2.5814580     1.1752260    -0.6867450
  C        2.3134570     0.0186930     0.2462000
  C        3.5222300    -0.8802230     0.3222130
  C        1.1937340    -0.4134970    -0.3651820
  C       -0.0647290     0.3542590    -0.5783780
  C        2.4850690     1.3863280     0.8546590
  C        4.7190700    -0.3405130    -0.4677320
  C       -3.4286640    -0.8122060     0.4327630
  C       -2.3749380     0.0938890    -0.1583950
  C       -4.8282690    -0.2261570     0.3119590
  H        3.2581340    -1.8761120    -0.0507320
  H        3.8122360    -1.0018650     1.3748590
  H        1.1821119    -1.3774689    -0.7548420
  H       -0.2705280     0.5138520    -1.6430550
  H       -0.0714200     1.3330110    -0.0949940
  H        3.0182560     1.3061200     1.8081990
  H        3.0814560     2.0379150     0.2067330
  H        1.5342700     1.8877430     1.0433380
  H        5.0646870     0.6170420    -0.0694620
  H        4.4484560    -0.1949880    -1.5176090
  H        5.5583810    -1.0408350    -0.4253590
  H       -3.3536290    -1.7820470    -0.0715700
  H       -3.1585900    -0.9983310     1.4781360
  H       -4.8922970     0.7333770     0.8287030
  H       -5.0879650    -0.0561110    -0.7346540
  H       -5.5642940    -0.9066400     0.7478690
units angstrom
no_reorient  #important for SAPT in psi4, default
symmetry c1  #important for SAPT in psi4, default
}

set PROPERTIES_ORIGIN ["COM"]
properties('MP2/aug-cc-pvtz', properties = ['dipole'])
--------------------------------------------------------------------------

    Molecular point group: c1
  Charge       = 0
  Multiplicity = 1
  Basis Set: AUG-CC-PVTZ
    Blend: AUG-CC-PVTZ
  Basis Set: (AUG-CC-PVTZ AUX)
    Blend: AUG-CC-PVTZ-JKFIT

    Orbital Energies [Eh]
    ---------------------

    Doubly Occupied:

       1A    -20.597138     2A    -20.540794     3A    -11.375679
       4A    -11.286239     5A    -11.244185     6A    -11.242598
       7A    -11.228696     8A    -11.225726     9A    -11.219352
      10A    -11.218175    11A    -11.217504    12A     -1.446931
      13A     -1.347340    14A     -1.112785    15A     -1.063011
      16A     -1.022527    17A     -0.977074    18A     -0.921413
      19A     -0.879560    20A     -0.833642    21A     -0.767161
      22A     -0.726507    23A     -0.688807    24A     -0.679262
      25A     -0.660480    26A     -0.639474    27A     -0.623968
      28A     -0.605605    29A     -0.589868    30A     -0.571619
      31A     -0.553715    32A     -0.545615    33A     -0.533629
      34A     -0.522522    35A     -0.518648    36A     -0.514062
      37A     -0.513258    38A     -0.492331    39A     -0.484656
      40A     -0.466662    41A     -0.457137    42A     -0.444231
      43A     -0.345764

  @DF-RHF Final Energy:  -500.03769811190824

   => Energetics <=

    Nuclear Repulsion Energy =            602.7637043493621150
    One-Electron Energy =               -1875.7120957361526052
    Two-Electron Energy =                 772.9106932748823056
    Total Energy =                       -500.0376981119081847
  Basis Set: (AUG-CC-PVTZ AUX)
    Blend: AUG-CC-PVTZ-RI
    Molecular point group: c1

    Geometry (in Angstrom), charge = 0, multiplicity = 1:

       Center              X                  Y                   Z               Mass
    ------------   -----------------  -----------------  -----------------  -----------------
         O           -1.086830811659    -0.459881738485    -0.011942440123    15.994914619570
         O           -2.527188811659     1.169537261515    -0.673499440123    15.994914619570
         C            2.367726188341     0.013004261515     0.259445559877    12.000000000000
         C            3.576499188341    -0.885911738485     0.335458559877    12.000000000000
         C            1.248003188341    -0.419185738485    -0.351936440123    12.000000000000
         C           -0.010459811659     0.348570261515    -0.565132440123    12.000000000000
         C            2.539338188341     1.380639261515     0.867904559877    12.000000000000
         C            4.773339188341    -0.346201738485    -0.454486440123    12.000000000000
         C           -3.374394811659    -0.817894738485     0.446008559877    12.000000000000
         C           -2.320668811659     0.088200261515    -0.145149440123    12.000000000000
         C           -4.773999811659    -0.231845738485     0.325204559877    12.000000000000
         H            3.312403188341    -1.881800738485    -0.037486440123     1.007825032230
         H            3.866505188341    -1.007553738485     1.388104559877     1.007825032230
         H            1.236381088341    -1.383157638485    -0.741596440123     1.007825032230
         H           -0.216258811659     0.508163261515    -1.629809440123     1.007825032230
         H           -0.017150811659     1.327322261515    -0.081748440123     1.007825032230
         H            3.072525188341     1.300431261515     1.821444559877     1.007825032230
         H            3.135725188341     2.032226261515     0.219978559877     1.007825032230
         H            1.588539188341     1.882054261515     1.056583559877     1.007825032230
         H            5.118956188341     0.611353261515    -0.056216440123     1.007825032230
         H            4.502725188341    -0.200676738485    -1.504363440123     1.007825032230
         H            5.612650188341    -1.046523738485    -0.412113440123     1.007825032230
         H           -3.299359811659    -1.787735738485    -0.058324440123     1.007825032230
         H           -3.104320811659    -1.004019738485     1.491381559877     1.007825032230
         H           -4.838027811659     0.727688261515     0.841948559877     1.007825032230
         H           -5.033695811659    -0.061799738485    -0.721408440123     1.007825032230
         H           -5.510024811659    -0.912328738485     0.761114559877     1.007825032230

  Basis Set: AUG-CC-PVTZ
    Blend: AUG-CC-PVTZ
  Basis Set: (AUG-CC-PVTZ AUX)
    Blend: AUG-CC-PVTZ-JKFIT
	 Reference Energy          =    -500.0376981119082416 [Eh]
	 Singles Energy            =      -0.0000000000000000 [Eh]
	 Same-Spin Energy          =      -0.5095936197858848 [Eh]
	 Opposite-Spin Energy      =      -1.7166113657558202 [Eh]
	 Correlation Energy        =      -2.2262049855417052 [Eh]
	 Total Energy              =    -502.2639030974499406 [Eh]

	 ================> DF-SCS-MP2 Energies <==================
	-----------------------------------------------------------
	 SCS Same-Spin Scale       =       0.3333333333333333 [-]
	 SCS Opposite-Spin Scale   =       1.2000000000000000 [-]
	 SCS Same-Spin Energy      =      -0.1698645399286283 [Eh]
	 SCS Opposite-Spin Energy  =      -2.0599336389069842 [Eh]
	 SCS Correlation Energy    =      -2.2297981788356123 [Eh]
	 SCS Total Energy          =    -502.2674962907438498 [Eh]
	-----------------------------------------------------------

  Dipole Moment: [D]
     X:     1.4485      Y:    -1.2179      Z:     0.7903     Total:     2.0509

*** Psi4 exiting successfully. Buy a developer a beer!
