                               Psi4 1.3.2 release

  ==> Input File <==

--------------------------------------------------------------------------
#psi4
#
memory 32 gb

molecule  {
0 1
  O        1.0855974     0.4354134     0.0417611
  O        2.5311320    -1.1057930    -0.7123110
  C       -2.3693550    -0.0883010     0.2982860
  C       -3.5980660     0.7810210     0.4066790
  C       -1.2626340     0.3942960    -0.2965320
  C        0.0082920    -0.3313460    -0.5624280
  C       -2.5132090    -1.4745150     0.8629900
  C       -4.7090750     0.3554230    -0.5595870
  C        3.3545870     0.8742710     0.4380940
  C        2.3120420    -0.0450080    -0.1482500
  C        4.7580620     0.3036620     0.3135630
  H       -3.3290990     1.8240090     0.2046860
  H       -3.9789780     0.7461160     1.4360390
  H       -1.2730680     1.4248330    -0.6509560
  H        0.2030610    -0.4353830    -1.6357720
  H        0.0773448    -1.3201321    -0.1044732
  H       -2.7951440    -1.4155820     1.9226690
  H       -3.3106690    -2.0257820     0.3507100
  H       -1.6004590    -2.0681310     0.7873000
  H       -5.0436390    -0.6667330    -0.3605950
  H       -4.3535760     0.4008270    -1.5926810
  H       -5.5777020     1.0147490    -0.4669260
  H        3.2685340     1.8407540    -0.0713220
  H        3.0874670     1.0628020     1.4826470
  H        4.8339620    -0.6514900     0.8358700
  H        5.0104170     0.1293290    -0.7342450
  H        5.4905370     0.9935700     0.7404870
units angstrom
no_reorient  #important for SAPT in psi4, default
symmetry c1  #important for SAPT in psi4, default
}

set PROPERTIES_ORIGIN ["COM"]
properties('MP2/aug-cc-pvtz', properties = ['dipole'])
--------------------------------------------------------------------------

    Molecular point group: c1
  Charge       = 0
  Multiplicity = 1
  Basis Set: AUG-CC-PVTZ
    Blend: AUG-CC-PVTZ
  Basis Set: (AUG-CC-PVTZ AUX)
    Blend: AUG-CC-PVTZ-JKFIT

    Orbital Energies [Eh]
    ---------------------

    Doubly Occupied:

       1A    -20.596427     2A    -20.535241     3A    -11.371537
       4A    -11.288121     5A    -11.246003     6A    -11.240869
       7A    -11.229392     8A    -11.226991     9A    -11.224815
      10A    -11.219971    11A    -11.216801    12A     -1.455211
      13A     -1.345265    14A     -1.113836    15A     -1.063569
      16A     -1.023240    17A     -0.979586    18A     -0.921459
      19A     -0.878514    20A     -0.834996    21A     -0.767642
      22A     -0.724899    23A     -0.688536    24A     -0.681899
      25A     -0.660927    26A     -0.639576    27A     -0.624282
      28A     -0.605610    29A     -0.588377    30A     -0.575191
      31A     -0.552938    32A     -0.545151    33A     -0.534768
      34A     -0.522098    35A     -0.516755    36A     -0.514784
      37A     -0.509016    38A     -0.491424    39A     -0.484818
      40A     -0.467077    41A     -0.455083    42A     -0.442068
      43A     -0.347840

  @DF-RHF Final Energy:  -500.03923866893797

   => Energetics <=

    Nuclear Repulsion Energy =            603.6325067242638625
    One-Electron Energy =               -1877.4382846151372632
    Two-Electron Energy =                 773.7665392219353180
    Total Energy =                       -500.0392386689379691
  Basis Set: (AUG-CC-PVTZ AUX)
    Blend: AUG-CC-PVTZ-RI
    Molecular point group: c1

    Geometry (in Angstrom), charge = 0, multiplicity = 1:

       Center              X                  Y                   Z               Mass
    ------------   -----------------  -----------------  -----------------  -----------------
         O            1.083974927818     0.439437304029     0.038759455175    15.994914619570
         O            2.529509527818    -1.101769095971    -0.715312644825    15.994914619570
         C           -2.370977472182    -0.084277095971     0.295284355175    12.000000000000
         C           -3.599688472182     0.785044904029     0.403677355175    12.000000000000
         C           -1.264256472182     0.398319904029    -0.299533644825    12.000000000000
         C            0.006669527818    -0.327322095971    -0.565429644825    12.000000000000
         C           -2.514831472182    -1.470491095971     0.859988355175    12.000000000000
         C           -4.710697472182     0.359446904029    -0.562588644825    12.000000000000
         C            3.352964527818     0.878294904029     0.435092355175    12.000000000000
         C            2.310419527818    -0.040984095971    -0.151251644825    12.000000000000
         C            4.756439527818     0.307685904029     0.310561355175    12.000000000000
         H           -3.330721472182     1.828032904029     0.201684355175     1.007825032230
         H           -3.980600472182     0.750139904029     1.433037355175     1.007825032230
         H           -1.274690472182     1.428856904029    -0.653957644825     1.007825032230
         H            0.201438527818    -0.431359095971    -1.638773644825     1.007825032230
         H            0.075722327818    -1.316108195971    -0.107474844825     1.007825032230
         H           -2.796766472182    -1.411558095971     1.919667355175     1.007825032230
         H           -3.312291472182    -2.021758095971     0.347708355175     1.007825032230
         H           -1.602081472182    -2.064107095971     0.784298355175     1.007825032230
         H           -5.045261472182    -0.662709095971    -0.363596644825     1.007825032230
         H           -4.355198472182     0.404850904029    -1.595682644825     1.007825032230
         H           -5.579324472182     1.018772904029    -0.469927644825     1.007825032230
         H            3.266911527818     1.844777904029    -0.074323644825     1.007825032230
         H            3.085844527818     1.066825904029     1.479645355175     1.007825032230
         H            4.832339527818    -0.647466095971     0.832868355175     1.007825032230
         H            5.008794527818     0.133352904029    -0.737246644825     1.007825032230
         H            5.488914527818     0.997593904029     0.737485355175     1.007825032230

  Basis Set: AUG-CC-PVTZ
    Blend: AUG-CC-PVTZ
  Basis Set: (AUG-CC-PVTZ AUX)
    Blend: AUG-CC-PVTZ-JKFIT
	 Reference Energy          =    -500.0392386689379691 [Eh]
	 Singles Energy            =      -0.0000000000000000 [Eh]
	 Same-Spin Energy          =      -0.5093569390683687 [Eh]
	 Opposite-Spin Energy      =      -1.7157142381777608 [Eh]
	 Correlation Energy        =      -2.2250711772461296 [Eh]
	 Total Energy              =    -502.2643098461841191 [Eh]

	 ================> DF-SCS-MP2 Energies <==================
	-----------------------------------------------------------
	 SCS Same-Spin Scale       =       0.3333333333333333 [-]
	 SCS Opposite-Spin Scale   =       1.2000000000000000 [-]
	 SCS Same-Spin Energy      =      -0.1697856463561229 [Eh]
	 SCS Opposite-Spin Energy  =      -2.0588570858133131 [Eh]
	 SCS Correlation Energy    =      -2.2286427321694360 [Eh]
	 SCS Total Energy          =    -502.2678814011073882 [Eh]
	-----------------------------------------------------------

  Dipole Moment: [D]
     X:    -1.6390      Y:     1.2705      Z:     0.8230     Total:     2.2311

*** Psi4 exiting successfully. Buy a developer a beer!
