                               Psi4 1.3.2 release

  ==> Input File <==

--------------------------------------------------------------------------
#psi4
#
memory 32 gb

molecule  {
0 1
  O        1.0716460     0.4753830     0.0137820
  O        2.5311320    -1.1057930    -0.7123110
  C       -2.3693550    -0.0883010     0.2982860
  C       -3.5980660     0.7810210     0.4066790
  C       -1.2626340     0.3942960    -0.2965320
  C        0.0814348    -0.2758552    -0.5227934
  C       -2.5132090    -1.4745150     0.8629900
  C       -4.7090750     0.3554230    -0.5595870
  C        3.3545870     0.8742710     0.4380940
  C        2.3120420    -0.0450080    -0.1482500
  C        4.7580620     0.3036620     0.3135630
  H       -3.3290990     1.8240090     0.2046860
  H       -3.9789780     0.7461160     1.4360390
  H       -1.2730680     1.4248330    -0.6509560
  H        0.2030610    -0.4353830    -1.6357720
  H        0.0474490    -1.3311670    -0.1253770
  H       -2.7951440    -1.4155820     1.9226690
  H       -3.3106690    -2.0257820     0.3507100
  H       -1.6004590    -2.0681310     0.7873000
  H       -5.0436390    -0.6667330    -0.3605950
  H       -4.3535760     0.4008270    -1.5926810
  H       -5.5777020     1.0147490    -0.4669260
  H        3.2685340     1.8407540    -0.0713220
  H        3.0874670     1.0628020     1.4826470
  H        4.8339620    -0.6514900     0.8358700
  H        5.0104170     0.1293290    -0.7342450
  H        5.4905370     0.9935700     0.7404870
units angstrom
no_reorient  #important for SAPT in psi4, default
symmetry c1  #important for SAPT in psi4, default
}

set PROPERTIES_ORIGIN ["COM"]
properties('MP2/aug-cc-pvtz', properties = ['dipole'])
--------------------------------------------------------------------------

    Molecular point group: c1
  Charge       = 0
  Multiplicity = 1
  Basis Set: AUG-CC-PVTZ
    Blend: AUG-CC-PVTZ
  Basis Set: (AUG-CC-PVTZ AUX)
    Blend: AUG-CC-PVTZ-JKFIT

    Orbital Energies [Eh]
    ---------------------

    Doubly Occupied:

       1A    -20.608362     2A    -20.548292     3A    -11.382904
       4A    -11.286787     5A    -11.246840     6A    -11.240672
       7A    -11.226201     8A    -11.223429     9A    -11.221713
      10A    -11.221178    11A    -11.216903    12A     -1.476321
      13A     -1.363673    14A     -1.107667    15A     -1.070070
      16A     -1.016885    17A     -0.977094    18A     -0.923301
      19A     -0.877801    20A     -0.832570    21A     -0.779835
      22A     -0.724028    23A     -0.697667    24A     -0.689954
      25A     -0.669395    26A     -0.637628    27A     -0.621309
      28A     -0.609692    29A     -0.592189    30A     -0.574266
      31A     -0.549245    32A     -0.539755    33A     -0.530278
      34A     -0.526866    35A     -0.522689    36A     -0.513222
      37A     -0.508291    38A     -0.493616    39A     -0.481054
      40A     -0.460543    41A     -0.450841    42A     -0.449073
      43A     -0.342393

  @DF-RHF Final Energy:  -500.03090991596713

   => Energetics <=

    Nuclear Repulsion Energy =            604.2181238118716919
    One-Electron Energy =               -1878.4330829847390305
    Two-Electron Energy =                 774.1840492569002663
    Total Energy =                       -500.0309099159670723
  Basis Set: (AUG-CC-PVTZ AUX)
    Blend: AUG-CC-PVTZ-RI
    Molecular point group: c1

    Geometry (in Angstrom), charge = 0, multiplicity = 1:

       Center              X                  Y                   Z               Mass
    ------------   -----------------  -----------------  -----------------  -----------------
         O            1.066023705292     0.471117640062     0.010735359434    15.994914619570
         O            2.525509705292    -1.110058359938    -0.715357640566    15.994914619570
         C           -2.374977294708    -0.092566359938     0.295239359434    12.000000000000
         C           -3.603688294708     0.776755640062     0.403632359434    12.000000000000
         C           -1.268256294708     0.390030640062    -0.299578640566    12.000000000000
         C            0.075812505292    -0.280120559938    -0.525840040566    12.000000000000
         C           -2.518831294708    -1.478780359938     0.859943359434    12.000000000000
         C           -4.714697294708     0.351157640062    -0.562633640566    12.000000000000
         C            3.348964705292     0.870005640062     0.435047359434    12.000000000000
         C            2.306419705292    -0.049273359938    -0.151296640566    12.000000000000
         C            4.752439705292     0.299396640062     0.310516359434    12.000000000000
         H           -3.334721294708     1.819743640062     0.201639359434     1.007825032230
         H           -3.984600294708     0.741850640062     1.432992359434     1.007825032230
         H           -1.278690294708     1.420567640062    -0.654002640566     1.007825032230
         H            0.197438705292    -0.439648359938    -1.638818640566     1.007825032230
         H            0.041826705292    -1.335432359938    -0.128423640566     1.007825032230
         H           -2.800766294708    -1.419847359938     1.919622359434     1.007825032230
         H           -3.316291294708    -2.030047359938     0.347663359434     1.007825032230
         H           -1.606081294708    -2.072396359938     0.784253359434     1.007825032230
         H           -5.049261294708    -0.670998359938    -0.363641640566     1.007825032230
         H           -4.359198294708     0.396561640062    -1.595727640566     1.007825032230
         H           -5.583324294708     1.010483640062    -0.469972640566     1.007825032230
         H            3.262911705292     1.836488640062    -0.074368640566     1.007825032230
         H            3.081844705292     1.058536640062     1.479600359434     1.007825032230
         H            4.828339705292    -0.655755359938     0.832823359434     1.007825032230
         H            5.004794705292     0.125063640062    -0.737291640566     1.007825032230
         H            5.484914705292     0.989304640062     0.737440359434     1.007825032230

  Basis Set: AUG-CC-PVTZ
    Blend: AUG-CC-PVTZ
  Basis Set: (AUG-CC-PVTZ AUX)
    Blend: AUG-CC-PVTZ-JKFIT
	 Reference Energy          =    -500.0309099159671291 [Eh]
	 Singles Energy            =      -0.0000000000000000 [Eh]
	 Same-Spin Energy          =      -0.5097453681994346 [Eh]
	 Opposite-Spin Energy      =      -1.7161502257742507 [Eh]
	 Correlation Energy        =      -2.2258955939736853 [Eh]
	 Total Energy              =    -502.2568055099408184 [Eh]

	 ================> DF-SCS-MP2 Energies <==================
	-----------------------------------------------------------
	 SCS Same-Spin Scale       =       0.3333333333333333 [-]
	 SCS Opposite-Spin Scale   =       1.2000000000000000 [-]
	 SCS Same-Spin Energy      =      -0.1699151227331449 [Eh]
	 SCS Opposite-Spin Energy  =      -2.0593802709291009 [Eh]
	 SCS Correlation Energy    =      -2.2292953936622459 [Eh]
	 SCS Total Energy          =    -502.2602053096293844 [Eh]
	-----------------------------------------------------------

  Dipole Moment: [D]
     X:    -0.9389      Y:     1.3024      Z:     0.9384     Total:     1.8597

*** Psi4 exiting successfully. Buy a developer a beer!
