                               Psi4 1.4a3.dev225

  ==> Input File <==

--------------------------------------------------------------------------
#psi4
#
memory 32 gb

molecule  {
0 1
  O       -1.1411000    -0.4541930    -0.0251880
  O       -2.5814580     1.1752260    -0.6867450
  C        2.3134570     0.0186930     0.2462000
  C        3.5222300    -0.8802230     0.3222130
  C        1.1937340    -0.4134970    -0.3651820
  C       -0.0647290     0.3542590    -0.5783780
  C        2.4850690     1.3863280     0.8546590
  C        4.7190700    -0.3405130    -0.4677320
  C       -3.4286640    -0.8122060     0.4327630
  C       -2.3749380     0.0938890    -0.1583950
  C       -4.8282690    -0.2261570     0.3119590
  H        3.2581340    -1.8761120    -0.0507320
  H        3.8122360    -1.0018650     1.3748590
  H        1.1815530    -1.4238220    -0.7735790
  H       -0.2705280     0.5138520    -1.6430550
  H       -0.0717265     1.3778408    -0.0728536
  H        3.0182560     1.3061200     1.8081990
  H        3.0814560     2.0379150     0.2067330
  H        1.5342700     1.8877430     1.0433380
  H        5.0646870     0.6170420    -0.0694620
  H        4.4484560    -0.1949880    -1.5176090
  H        5.5583810    -1.0408350    -0.4253590
  H       -3.3536290    -1.7820470    -0.0715700
  H       -3.1585900    -0.9983310     1.4781360
  H       -4.8922970     0.7333770     0.8287030
  H       -5.0879650    -0.0561110    -0.7346540
  H       -5.5642940    -0.9066400     0.7478690
units angstrom
no_reorient  #important for SAPT in psi4, default
symmetry c1  #important for SAPT in psi4, default
}

set PROPERTIES_ORIGIN ["COM"]
properties('MP2/aug-cc-pvtz', properties = ['dipole'])
--------------------------------------------------------------------------

    Molecular point group: c1
  Charge       = 0
  Multiplicity = 1
  Basis Set: AUG-CC-PVTZ
    Blend: AUG-CC-PVTZ
  Basis Set: (AUG-CC-PVTZ AUX)
    Blend: AUG-CC-PVTZ-JKFIT

    Orbital Energies [Eh]
    ---------------------

    Doubly Occupied:

       1A    -20.597836     2A    -20.540876     3A    -11.375785
       4A    -11.292406     5A    -11.244696     6A    -11.242696
       7A    -11.228686     8A    -11.225884     9A    -11.223799
      10A    -11.219333    11A    -11.218240    12A     -1.447174
      13A     -1.347491    14A     -1.111946    15A     -1.062877
      16A     -1.021153    17A     -0.976335    18A     -0.919843
      19A     -0.879059    20A     -0.831653    21A     -0.764755
      22A     -0.721397    23A     -0.687828    24A     -0.677804
      25A     -0.659544    26A     -0.638139    27A     -0.624039
      28A     -0.603564    29A     -0.589324    30A     -0.571753
      31A     -0.553085    32A     -0.545500    33A     -0.532231
      34A     -0.522096    35A     -0.517499    36A     -0.513399
      37A     -0.510996    38A     -0.491640    39A     -0.484654
      40A     -0.465642    41A     -0.455655    42A     -0.444099
      43A     -0.346170

  @DF-RHF Final Energy:  -500.03595714178130

   => Energetics <=

    Nuclear Repulsion Energy =            602.2766968272749182
    One-Electron Energy =               -1874.7681470124773568
    Two-Electron Energy =                 772.4554930434211428
    Total Energy =                       -500.0359571417812958
  Basis Set: (AUG-CC-PVTZ AUX)
    Blend: AUG-CC-PVTZ-RI
    Molecular point group: c1

    Geometry (in Angstrom), charge = 0, multiplicity = 1:

       Center              X                  Y                   Z               Mass
    ------------   -----------------  -----------------  -----------------  -----------------
         O           -1.086825224933    -0.459871904583    -0.011964411305    15.994914619570
         O           -2.527183224933     1.169547095417    -0.673521411305    15.994914619570
         C            2.367731775067     0.013014095417     0.259423588695    12.000000000000
         C            3.576504775067    -0.885901904583     0.335436588695    12.000000000000
         C            1.248008775067    -0.419175904583    -0.351958411305    12.000000000000
         C           -0.010454224933     0.348580095417    -0.565154411305    12.000000000000
         C            2.539343775067     1.380649095417     0.867882588695    12.000000000000
         C            4.773344775067    -0.346191904583    -0.454508411305    12.000000000000
         C           -3.374389224933    -0.817884904583     0.445986588695    12.000000000000
         C           -2.320663224933     0.088210095417    -0.145171411305    12.000000000000
         C           -4.773994224933    -0.231835904583     0.325182588695    12.000000000000
         H            3.312408775067    -1.881790904583    -0.037508411305     1.007825032230
         H            3.866510775067    -1.007543904583     1.388082588695     1.007825032230
         H            1.235827775067    -1.429500904583    -0.760355411305     1.007825032230
         H           -0.216253224933     0.508173095417    -1.629831411305     1.007825032230
         H           -0.017451724933     1.372161895417    -0.059630011305     1.007825032230
         H            3.072530775067     1.300441095417     1.821422588695     1.007825032230
         H            3.135730775067     2.032236095417     0.219956588695     1.007825032230
         H            1.588544775067     1.882064095417     1.056561588695     1.007825032230
         H            5.118961775067     0.611363095417    -0.056238411305     1.007825032230
         H            4.502730775067    -0.200666904583    -1.504385411305     1.007825032230
         H            5.612655775067    -1.046513904583    -0.412135411305     1.007825032230
         H           -3.299354224933    -1.787725904583    -0.058346411305     1.007825032230
         H           -3.104315224933    -1.004009904583     1.491359588695     1.007825032230
         H           -4.838022224933     0.727698095417     0.841926588695     1.007825032230
         H           -5.033690224933    -0.061789904583    -0.721430411305     1.007825032230
         H           -5.510019224933    -0.912318904583     0.761092588695     1.007825032230

  Basis Set: AUG-CC-PVTZ
    Blend: AUG-CC-PVTZ
  Basis Set: (AUG-CC-PVTZ AUX)
    Blend: AUG-CC-PVTZ-JKFIT
	 Reference Energy          =    -500.0359571417812958 [Eh]
	 Singles Energy            =      -0.0000000000000000 [Eh]
	 Same-Spin Energy          =      -0.5098955333508995 [Eh]
	 Opposite-Spin Energy      =      -1.7174942643787809 [Eh]
	 Correlation Energy        =      -2.2273897977296806 [Eh]
	 Total Energy              =    -502.2633469395109955 [Eh]

	 ================> DF-SCS-MP2 Energies <==================
	-----------------------------------------------------------
	 SCS Same-Spin Scale       =       0.3333333333333333 [-]
	 SCS Opposite-Spin Scale   =       1.2000000000000000 [-]
	 SCS Same-Spin Energy      =      -0.1699651777836332 [Eh]
	 SCS Opposite-Spin Energy  =      -2.0609931172545370 [Eh]
	 SCS Correlation Energy    =      -2.2309582950381701 [Eh]
	 SCS Total Energy          =    -502.2669154368194881 [Eh]
	-----------------------------------------------------------

  Dipole Moment: [D]
     X:     1.4354      Y:    -1.2173      Z:     0.7928     Total:     2.0423

*** Psi4 exiting successfully. Buy a developer a beer!
