                               Psi4 1.3.2 release

  ==> Input File <==

--------------------------------------------------------------------------
#psi4
#
memory 32 gb

molecule  {
0 1
  O        1.0716460     0.4753830     0.0137820
  O        2.5311320    -1.1057930    -0.7123110
  C       -2.3693550    -0.0883010     0.2982860
  C       -3.5980660     0.7810210     0.4066790
  C       -1.2873707     0.3321689    -0.2566239
  C        0.0082920    -0.3313460    -0.5624280
  C       -2.5132090    -1.4745150     0.8629900
  C       -4.7090750     0.3554230    -0.5595870
  C        3.3545870     0.8742710     0.4380940
  C        2.3120420    -0.0450080    -0.1482500
  C        4.7580620     0.3036620     0.3135630
  H       -3.3290990     1.8240090     0.2046860
  H       -3.9789780     0.7461160     1.4360390
  H       -1.2730680     1.4248330    -0.6509560
  H        0.2030610    -0.4353830    -1.6357720
  H       -0.0051171    -1.3225283    -0.1046433
  H       -2.7951440    -1.4155820     1.9226690
  H       -3.3106690    -2.0257820     0.3507100
  H       -1.6004590    -2.0681310     0.7873000
  H       -5.0436390    -0.6667330    -0.3605950
  H       -4.3535760     0.4008270    -1.5926810
  H       -5.5777020     1.0147490    -0.4669260
  H        3.2685340     1.8407540    -0.0713220
  H        3.0874670     1.0628020     1.4826470
  H        4.8339620    -0.6514900     0.8358700
  H        5.0104170     0.1293290    -0.7342450
  H        5.4905370     0.9935700     0.7404870
units angstrom
no_reorient  #important for SAPT in psi4, default
symmetry c1  #important for SAPT in psi4, default
}

set PROPERTIES_ORIGIN ["COM"]
properties('MP2/aug-cc-pvtz', properties = ['dipole'])
--------------------------------------------------------------------------

    Molecular point group: c1
  Charge       = 0
  Multiplicity = 1
  Basis Set: AUG-CC-PVTZ
    Blend: AUG-CC-PVTZ
  Basis Set: (AUG-CC-PVTZ AUX)
    Blend: AUG-CC-PVTZ-JKFIT

    Orbital Energies [Eh]
    ---------------------

    Doubly Occupied:

       1A    -20.599629     2A    -20.541346     3A    -11.376654
       4A    -11.288390     5A    -11.242847     6A    -11.235114
       7A    -11.228912     8A    -11.224659     9A    -11.221483
      10A    -11.219541    11A    -11.218297    12A     -1.449139
      13A     -1.348343    14A     -1.120910    15A     -1.064417
      16A     -1.023744    17A     -0.977593    18A     -0.923275
      19A     -0.880683    20A     -0.837222    21A     -0.767273
      22A     -0.717012    23A     -0.685993    24A     -0.683211
      25A     -0.660013    26A     -0.639019    27A     -0.625056
      28A     -0.606841    29A     -0.587845    30A     -0.576010
      31A     -0.553014    32A     -0.546250    33A     -0.534089
      34A     -0.521891    35A     -0.517061    36A     -0.516006
      37A     -0.507042    38A     -0.493052    39A     -0.484772
      40A     -0.461172    41A     -0.450153    42A     -0.445221
      43A     -0.360453

  @DF-RHF Final Energy:  -500.03123061271356

   => Energetics <=

    Nuclear Repulsion Energy =            603.8425567901036857
    One-Electron Energy =               -1877.8262869476611741
    Two-Electron Energy =                 773.9524995448440450
    Total Energy =                       -500.0312306127135571
  Basis Set: (AUG-CC-PVTZ AUX)
    Blend: AUG-CC-PVTZ-RI
    Molecular point group: c1

    Geometry (in Angstrom), charge = 0, multiplicity = 1:

       Center              X                  Y                   Z               Mass
    ------------   -----------------  -----------------  -----------------  -----------------
         O            1.073886698582     0.480102735886     0.010580486825    15.994914619570
         O            2.533372698582    -1.101073264114    -0.715512513175    15.994914619570
         C           -2.367114301418    -0.083581264114     0.295084486825    12.000000000000
         C           -3.595825301418     0.785740735886     0.403477486825    12.000000000000
         C           -1.285130001418     0.336888635886    -0.259825413175    12.000000000000
         C            0.010532698582    -0.326626264114    -0.565629513175    12.000000000000
         C           -2.510968301418    -1.469795264114     0.859788486825    12.000000000000
         C           -4.706834301418     0.360142735886    -0.562788513175    12.000000000000
         C            3.356827698582     0.878990735886     0.434892486825    12.000000000000
         C            2.314282698582    -0.040288264114    -0.151451513175    12.000000000000
         C            4.760302698582     0.308381735886     0.310361486825    12.000000000000
         H           -3.326858301418     1.828728735886     0.201484486825     1.007825032230
         H           -3.976737301418     0.750835735886     1.432837486825     1.007825032230
         H           -1.270827301418     1.429552735886    -0.654157513175     1.007825032230
         H            0.205301698582    -0.430663264114    -1.638973513175     1.007825032230
         H           -0.002876401418    -1.317808564114    -0.107844813175     1.007825032230
         H           -2.792903301418    -1.410862264114     1.919467486825     1.007825032230
         H           -3.308428301418    -2.021062264114     0.347508486825     1.007825032230
         H           -1.598218301418    -2.063411264114     0.784098486825     1.007825032230
         H           -5.041398301418    -0.662013264114    -0.363796513175     1.007825032230
         H           -4.351335301418     0.405546735886    -1.595882513175     1.007825032230
         H           -5.575461301418     1.019468735886    -0.470127513175     1.007825032230
         H            3.270774698582     1.845473735886    -0.074523513175     1.007825032230
         H            3.089707698582     1.067521735886     1.479445486825     1.007825032230
         H            4.836202698582    -0.646770264114     0.832668486825     1.007825032230
         H            5.012657698582     0.134048735886    -0.737446513175     1.007825032230
         H            5.492777698582     0.998289735886     0.737285486825     1.007825032230

  Basis Set: AUG-CC-PVTZ
    Blend: AUG-CC-PVTZ
  Basis Set: (AUG-CC-PVTZ AUX)
    Blend: AUG-CC-PVTZ-JKFIT
	 Reference Energy          =    -500.0312306127135571 [Eh]
	 Singles Energy            =      -0.0000000000000000 [Eh]
	 Same-Spin Energy          =      -0.5094904419012866 [Eh]
	 Opposite-Spin Energy      =      -1.7161612556178545 [Eh]
	 Correlation Energy        =      -2.2256516975191412 [Eh]
	 Total Energy              =    -502.2568823102326974 [Eh]

	 ================> DF-SCS-MP2 Energies <==================
	-----------------------------------------------------------
	 SCS Same-Spin Scale       =       0.3333333333333333 [-]
	 SCS Opposite-Spin Scale   =       1.2000000000000000 [-]
	 SCS Same-Spin Energy      =      -0.1698301473004288 [Eh]
	 SCS Opposite-Spin Energy  =      -2.0593935067414253 [Eh]
	 SCS Correlation Energy    =      -2.2292236540418542 [Eh]
	 SCS Total Energy          =    -502.2604542667554028 [Eh]
	-----------------------------------------------------------

  Dipole Moment: [D]
     X:    -1.4305      Y:     1.1598      Z:     0.8344     Total:     2.0218

*** Psi4 exiting successfully. Buy a developer a beer!
