                               Psi4 1.4a3.dev225

  ==> Input File <==

--------------------------------------------------------------------------
#psi4
#
memory 32 gb

molecule  {
0 1
  O       -1.1411000    -0.4541930    -0.0251880
  O       -2.5814580     1.1752260    -0.6867450
  C        2.3134570     0.0186930     0.2462000
  C        3.5222300    -0.8802230     0.3222130
  C        1.1937340    -0.4134970    -0.3651820
  C       -0.0647290     0.3542590    -0.5783780
  C        2.4850690     1.3863280     0.8546590
  C        4.7190700    -0.3405130    -0.4677320
  C       -3.4286640    -0.8122060     0.4327630
  C       -2.3715555     0.0761782    -0.1497414
  C       -4.8282690    -0.2261570     0.3119590
  H        3.2581340    -1.8761120    -0.0507320
  H        3.8122360    -1.0018650     1.3748590
  H        1.1815530    -1.4238220    -0.7735790
  H       -0.2705280     0.5138520    -1.6430550
  H       -0.0714200     1.3330110    -0.0949940
  H        3.0182560     1.3061200     1.8081990
  H        3.0814560     2.0379150     0.2067330
  H        1.5342700     1.8877430     1.0433380
  H        5.0646870     0.6170420    -0.0694620
  H        4.4484560    -0.1949880    -1.5176090
  H        5.5583810    -1.0408350    -0.4253590
  H       -3.3536290    -1.7820470    -0.0715700
  H       -3.1585900    -0.9983310     1.4781360
  H       -4.8922970     0.7333770     0.8287030
  H       -5.0879650    -0.0561110    -0.7346540
  H       -5.5642940    -0.9066400     0.7478690
units angstrom
no_reorient  #important for SAPT in psi4, default
symmetry c1  #important for SAPT in psi4, default
}

set PROPERTIES_ORIGIN ["COM"]
properties('MP2/aug-cc-pvtz', properties = ['dipole'])
--------------------------------------------------------------------------

    Molecular point group: c1
  Charge       = 0
  Multiplicity = 1
  Basis Set: AUG-CC-PVTZ
    Blend: AUG-CC-PVTZ
  Basis Set: (AUG-CC-PVTZ AUX)
    Blend: AUG-CC-PVTZ-JKFIT

    Orbital Energies [Eh]
    ---------------------

    Doubly Occupied:

       1A    -20.600066     2A    -20.536801     3A    -11.377009
       4A    -11.288191     5A    -11.245318     6A    -11.243071
       7A    -11.229109     8A    -11.226615     9A    -11.224124
      10A    -11.219677    11A    -11.218538    12A     -1.447564
      13A     -1.337018    14A     -1.112978    15A     -1.065404
      16A     -1.023071    17A     -0.978141    18A     -0.921899
      19A     -0.881499    20A     -0.833840    21A     -0.768210
      22A     -0.722895    23A     -0.686938    24A     -0.680271
      25A     -0.658243    26A     -0.638796    27A     -0.623907
      28A     -0.605417    29A     -0.588596    30A     -0.572187
      31A     -0.553679    32A     -0.545517    33A     -0.532495
      34A     -0.523521    35A     -0.516291    36A     -0.513824
      37A     -0.512319    38A     -0.491065    39A     -0.484989
      40A     -0.466158    41A     -0.454015    42A     -0.443394
      43A     -0.346885

  @DF-RHF Final Energy:  -500.03654322708394

   => Energetics <=

    Nuclear Repulsion Energy =            602.4557877451760532
    One-Electron Energy =               -1875.1055728239093696
    Two-Electron Energy =                 772.6132418516492635
    Total Energy =                       -500.0365432270839392
  Basis Set: (AUG-CC-PVTZ AUX)
    Blend: AUG-CC-PVTZ-RI
    Molecular point group: c1

    Geometry (in Angstrom), charge = 0, multiplicity = 1:

       Center              X                  Y                   Z               Mass
    ------------   -----------------  -----------------  -----------------  -----------------
         O           -1.087087204183    -0.458221133386    -0.012486651545    15.994914619570
         O           -2.527445204183     1.171197866614    -0.674043651545    15.994914619570
         C            2.367469795817     0.014664866614     0.258901348455    12.000000000000
         C            3.576242795817    -0.884251133386     0.334914348455    12.000000000000
         C            1.247746795817    -0.417525133386    -0.352480651545    12.000000000000
         C           -0.010716204183     0.350230866614    -0.565676651545    12.000000000000
         C            2.539081795817     1.382299866614     0.867360348455    12.000000000000
         C            4.773082795817    -0.344541133386    -0.455030651545    12.000000000000
         C           -3.374651204183    -0.816234133386     0.445464348455    12.000000000000
         C           -2.317542704183     0.072150066614    -0.137040051545    12.000000000000
         C           -4.774256204183    -0.230185133386     0.324660348455    12.000000000000
         H            3.312146795817    -1.880140133386    -0.038030651545     1.007825032230
         H            3.866248795817    -1.005893133386     1.387560348455     1.007825032230
         H            1.235565795817    -1.427850133386    -0.760877651545     1.007825032230
         H           -0.216515204183     0.509823866614    -1.630353651545     1.007825032230
         H           -0.017407204183     1.328982866614    -0.082292651545     1.007825032230
         H            3.072268795817     1.302091866614     1.820900348455     1.007825032230
         H            3.135468795817     2.033886866614     0.219434348455     1.007825032230
         H            1.588282795817     1.883714866614     1.056039348455     1.007825032230
         H            5.118699795817     0.613013866614    -0.056760651545     1.007825032230
         H            4.502468795817    -0.199016133386    -1.504907651545     1.007825032230
         H            5.612393795817    -1.044863133386    -0.412657651545     1.007825032230
         H           -3.299616204183    -1.786075133386    -0.058868651545     1.007825032230
         H           -3.104577204183    -1.002359133386     1.490837348455     1.007825032230
         H           -4.838284204183     0.729348866614     0.841404348455     1.007825032230
         H           -5.033952204183    -0.060139133386    -0.721952651545     1.007825032230
         H           -5.510281204183    -0.910668133386     0.760570348455     1.007825032230

  Basis Set: AUG-CC-PVTZ
    Blend: AUG-CC-PVTZ
  Basis Set: (AUG-CC-PVTZ AUX)
    Blend: AUG-CC-PVTZ-JKFIT
	 Reference Energy          =    -500.0365432270839392 [Eh]
	 Singles Energy            =      -0.0000000000000000 [Eh]
	 Same-Spin Energy          =      -0.5100509349820976 [Eh]
	 Opposite-Spin Energy      =      -1.7175440312531318 [Eh]
	 Correlation Energy        =      -2.2275949662352295 [Eh]
	 Total Energy              =    -502.2641381933191838 [Eh]

	 ================> DF-SCS-MP2 Energies <==================
	-----------------------------------------------------------
	 SCS Same-Spin Scale       =       0.3333333333333333 [-]
	 SCS Opposite-Spin Scale   =       1.2000000000000000 [-]
	 SCS Same-Spin Energy      =      -0.1700169783273659 [Eh]
	 SCS Opposite-Spin Energy  =      -2.0610528375037580 [Eh]
	 SCS Correlation Energy    =      -2.2310698158311237 [Eh]
	 SCS Total Energy          =    -502.2676130429150589 [Eh]
	-----------------------------------------------------------

  Dipole Moment: [D]
     X:     1.5310      Y:    -1.2977      Z:     0.8456     Total:     2.1779

*** Psi4 exiting successfully. Buy a developer a beer!
