                               Psi4 1.3.2 release

  ==> Input File <==

--------------------------------------------------------------------------
#psi4
#
memory 32 gb

molecule  {
0 1
  O        1.0716460     0.4753830     0.0137820
  O        2.5311320    -1.1057930    -0.7123110
  C       -2.3693550    -0.0883010     0.2982860
  C       -3.5980660     0.7810210     0.4066790
  C       -1.2626340     0.3942960    -0.2965320
  C        0.0269896    -0.2884786    -0.5849755
  C       -2.5132090    -1.4745150     0.8629900
  C       -4.7090750     0.3554230    -0.5595870
  C        3.3545870     0.8742710     0.4380940
  C        2.3120420    -0.0450080    -0.1482500
  C        4.7580620     0.3036620     0.3135630
  H       -3.3290990     1.8240090     0.2046860
  H       -3.9789780     0.7461160     1.4360390
  H       -1.2375719     1.4200793    -0.6637816
  H        0.2030610    -0.4353830    -1.6357720
  H        0.0474490    -1.3311670    -0.1253770
  H       -2.7951440    -1.4155820     1.9226690
  H       -3.3106690    -2.0257820     0.3507100
  H       -1.6004590    -2.0681310     0.7873000
  H       -5.0436390    -0.6667330    -0.3605950
  H       -4.3535760     0.4008270    -1.5926810
  H       -5.5777020     1.0147490    -0.4669260
  H        3.2685340     1.8407540    -0.0713220
  H        3.0874670     1.0628020     1.4826470
  H        4.8339620    -0.6514900     0.8358700
  H        5.0104170     0.1293290    -0.7342450
  H        5.4905370     0.9935700     0.7404870
units angstrom
no_reorient  #important for SAPT in psi4, default
symmetry c1  #important for SAPT in psi4, default
}

set PROPERTIES_ORIGIN ["COM"]
properties('MP2/aug-cc-pvtz', properties = ['dipole'])
--------------------------------------------------------------------------

    Molecular point group: c1
  Charge       = 0
  Multiplicity = 1
  Basis Set: AUG-CC-PVTZ
    Blend: AUG-CC-PVTZ
  Basis Set: (AUG-CC-PVTZ AUX)
    Blend: AUG-CC-PVTZ-JKFIT

    Orbital Energies [Eh]
    ---------------------

    Doubly Occupied:

       1A    -20.600254     2A    -20.542644     3A    -11.377571
       4A    -11.285880     5A    -11.244986     6A    -11.243479
       7A    -11.228114     8A    -11.225667     9A    -11.222751
      10A    -11.218839    11A    -11.218747    12A     -1.454653
      13A     -1.351972    14A     -1.111348    15A     -1.065603
      16A     -1.021258    17A     -0.978419    18A     -0.920011
      19A     -0.879128    20A     -0.833029    21A     -0.770559
      22A     -0.724271    23A     -0.690658    24A     -0.681589
      25A     -0.662625    26A     -0.639536    27A     -0.624040
      28A     -0.605754    29A     -0.588012    30A     -0.574962
      31A     -0.551039    32A     -0.546022    33A     -0.533414
      34A     -0.523596    35A     -0.519083    36A     -0.514588
      37A     -0.508080    38A     -0.491851    39A     -0.483450
      40A     -0.464523    41A     -0.453109    42A     -0.445350
      43A     -0.346316

  @DF-RHF Final Energy:  -500.03525429668673

   => Energetics <=

    Nuclear Repulsion Energy =            603.3232117066716000
    One-Electron Energy =               -1876.7833717920595973
    Two-Electron Energy =                 773.4249057887012668
    Total Energy =                       -500.0352542966867304
  Basis Set: (AUG-CC-PVTZ AUX)
    Blend: AUG-CC-PVTZ-RI
    Molecular point group: c1

    Geometry (in Angstrom), charge = 0, multiplicity = 1:

       Center              X                  Y                   Z               Mass
    ------------   -----------------  -----------------  -----------------  -----------------
         O            1.069979561066     0.472118643605     0.015597871147    15.994914619570
         O            2.529465561066    -1.109057356395    -0.710495128853    15.994914619570
         C           -2.371021438934    -0.091565356395     0.300101871147    12.000000000000
         C           -3.599732438934     0.777756643605     0.408494871147    12.000000000000
         C           -1.264300438934     0.391031643605    -0.294716128853    12.000000000000
         C            0.025323161066    -0.291742956395    -0.583159628853    12.000000000000
         C           -2.514875438934    -1.477779356395     0.864805871147    12.000000000000
         C           -4.710741438934     0.352158643605    -0.557771128853    12.000000000000
         C            3.352920561066     0.871006643605     0.439909871147    12.000000000000
         C            2.310375561066    -0.048272356395    -0.146434128853    12.000000000000
         C            4.756395561066     0.300397643605     0.315378871147    12.000000000000
         H           -3.330765438934     1.820744643605     0.206501871147     1.007825032230
         H           -3.980644438934     0.742851643605     1.437854871147     1.007825032230
         H           -1.239238338934     1.416814943605    -0.661965728853     1.007825032230
         H            0.201394561066    -0.438647356395    -1.633956128853     1.007825032230
         H            0.045782561066    -1.334431356395    -0.123561128853     1.007825032230
         H           -2.796810438934    -1.418846356395     1.924484871147     1.007825032230
         H           -3.312335438934    -2.029046356395     0.352525871147     1.007825032230
         H           -1.602125438934    -2.071395356395     0.789115871147     1.007825032230
         H           -5.045305438934    -0.669997356395    -0.358779128853     1.007825032230
         H           -4.355242438934     0.397562643605    -1.590865128853     1.007825032230
         H           -5.579368438934     1.011484643605    -0.465110128853     1.007825032230
         H            3.266867561066     1.837489643605    -0.069506128853     1.007825032230
         H            3.085800561066     1.059537643605     1.484462871147     1.007825032230
         H            4.832295561066    -0.654754356395     0.837685871147     1.007825032230
         H            5.008750561066     0.126064643605    -0.732429128853     1.007825032230
         H            5.488870561066     0.990305643605     0.742302871147     1.007825032230

  Basis Set: AUG-CC-PVTZ
    Blend: AUG-CC-PVTZ
  Basis Set: (AUG-CC-PVTZ AUX)
    Blend: AUG-CC-PVTZ-JKFIT
	 Reference Energy          =    -500.0352542966867304 [Eh]
	 Singles Energy            =      -0.0000000000000000 [Eh]
	 Same-Spin Energy          =      -0.5097892935055910 [Eh]
	 Opposite-Spin Energy      =      -1.7167484674817735 [Eh]
	 Correlation Energy        =      -2.2265377609873642 [Eh]
	 Total Energy              =    -502.2617920576740858 [Eh]

	 ================> DF-SCS-MP2 Energies <==================
	-----------------------------------------------------------
	 SCS Same-Spin Scale       =       0.3333333333333333 [-]
	 SCS Opposite-Spin Scale   =       1.2000000000000000 [-]
	 SCS Same-Spin Energy      =      -0.1699297645018636 [Eh]
	 SCS Opposite-Spin Energy  =      -2.0600981609781281 [Eh]
	 SCS Correlation Energy    =      -2.2300279254799920 [Eh]
	 SCS Total Energy          =    -502.2652822221667179 [Eh]
	-----------------------------------------------------------

  Dipole Moment: [D]
     X:    -1.3258      Y:     1.2410      Z:     0.8119     Total:     1.9892

*** Psi4 exiting successfully. Buy a developer a beer!
