                               Psi4 1.3.2 release

  ==> Input File <==

--------------------------------------------------------------------------
#psi4
#
memory 32 gb

molecule  {
0 1
  O        1.0716460     0.4753830     0.0137820
  O        2.5311320    -1.1057930    -0.7123110
  C       -2.3693550    -0.0883010     0.2982860
  C       -3.4352192     0.6658057     0.3923132
  C       -1.2626340     0.3942960    -0.2965320
  C        0.0082920    -0.3313460    -0.5624280
  C       -2.5132090    -1.4745150     0.8629900
  C       -4.7090750     0.3554230    -0.5595870
  C        3.3545870     0.8742710     0.4380940
  C        2.3120420    -0.0450080    -0.1482500
  C        4.7580620     0.3036620     0.3135630
  H       -3.3290990     1.8240090     0.2046860
  H       -3.9789780     0.7461160     1.4360390
  H       -1.2730680     1.4248330    -0.6509560
  H        0.2030610    -0.4353830    -1.6357720
  H        0.0474490    -1.3311670    -0.1253770
  H       -2.7951440    -1.4155820     1.9226690
  H       -3.3106690    -2.0257820     0.3507100
  H       -1.6004590    -2.0681310     0.7873000
  H       -5.0436390    -0.6667330    -0.3605950
  H       -4.3535760     0.4008270    -1.5926810
  H       -5.5777020     1.0147490    -0.4669260
  H        3.2685340     1.8407540    -0.0713220
  H        3.0874670     1.0628020     1.4826470
  H        4.8339620    -0.6514900     0.8358700
  H        5.0104170     0.1293290    -0.7342450
  H        5.4905370     0.9935700     0.7404870
units angstrom
no_reorient  #important for SAPT in psi4, default
symmetry c1  #important for SAPT in psi4, default
}

set PROPERTIES_ORIGIN ["COM"]
properties('MP2/aug-cc-pvtz', properties = ['dipole'])
--------------------------------------------------------------------------

    Molecular point group: c1
  Charge       = 0
  Multiplicity = 1
  Basis Set: AUG-CC-PVTZ
    Blend: AUG-CC-PVTZ
  Basis Set: (AUG-CC-PVTZ AUX)
    Blend: AUG-CC-PVTZ-JKFIT

    Orbital Energies [Eh]
    ---------------------

    Doubly Occupied:

       1A    -20.598380     2A    -20.541526     3A    -11.376301
       4A    -11.287545     5A    -11.242728     6A    -11.235008
       7A    -11.232514     8A    -11.227102     9A    -11.226970
      10A    -11.226130    11A    -11.218276    12A     -1.449082
      13A     -1.348466    14A     -1.141635    15A     -1.065646
      16A     -1.018444    17A     -0.971604    18A     -0.927702
      19A     -0.887831    20A     -0.835381    21A     -0.768500
      22A     -0.724106    23A     -0.690737    24A     -0.683953
      25A     -0.661907    26A     -0.643483    27A     -0.623105
      28A     -0.608054    29A     -0.592849    30A     -0.572209
      31A     -0.553478    32A     -0.547344    33A     -0.534430
      34A     -0.528491    35A     -0.520273    36A     -0.517209
      37A     -0.497374    38A     -0.491520    39A     -0.488067
      40A     -0.458401    41A     -0.449281    42A     -0.443803
      43A     -0.337204

  @DF-RHF Final Energy:  -499.98656916405218

   => Energetics <=

    Nuclear Repulsion Energy =            605.9943867995588107
    One-Electron Energy =               -1881.9738182384444372
    Two-Electron Energy =                 775.9928622748333282
    Total Energy =                       -499.9865691640521845
  Basis Set: (AUG-CC-PVTZ AUX)
    Blend: AUG-CC-PVTZ-RI
    Molecular point group: c1

    Geometry (in Angstrom), charge = 0, multiplicity = 1:

       Center              X                  Y                   Z               Mass
    ------------   -----------------  -----------------  -----------------  -----------------
         O            1.059128481932     0.484239203074     0.014886175668    15.994914619570
         O            2.518614481932    -1.096936796926    -0.711206824332    15.994914619570
         C           -2.381872518068    -0.079444796926     0.299390175668    12.000000000000
         C           -3.447736718068     0.674661903074     0.393417375668    12.000000000000
         C           -1.275151518068     0.403152203074    -0.295427824332    12.000000000000
         C           -0.004225518068    -0.322489796926    -0.561323824332    12.000000000000
         C           -2.525726518068    -1.465658796926     0.864094175668    12.000000000000
         C           -4.721592518068     0.364279203074    -0.558482824332    12.000000000000
         C            3.342069481932     0.883127203074     0.439198175668    12.000000000000
         C            2.299524481932    -0.036151796926    -0.147145824332    12.000000000000
         C            4.745544481932     0.312518203074     0.314667175668    12.000000000000
         H           -3.341616518068     1.832865203074     0.205790175668     1.007825032230
         H           -3.991495518068     0.754972203074     1.437143175668     1.007825032230
         H           -1.285585518068     1.433689203074    -0.649851824332     1.007825032230
         H            0.190543481932    -0.426526796926    -1.634667824332     1.007825032230
         H            0.034931481932    -1.322310796926    -0.124272824332     1.007825032230
         H           -2.807661518068    -1.406725796926     1.923773175668     1.007825032230
         H           -3.323186518068    -2.016925796926     0.351814175668     1.007825032230
         H           -1.612976518068    -2.059274796926     0.788404175668     1.007825032230
         H           -5.056156518068    -0.657876796926    -0.359490824332     1.007825032230
         H           -4.366093518068     0.409683203074    -1.591576824332     1.007825032230
         H           -5.590219518068     1.023605203074    -0.465821824332     1.007825032230
         H            3.256016481932     1.849610203074    -0.070217824332     1.007825032230
         H            3.074949481932     1.071658203074     1.483751175668     1.007825032230
         H            4.821444481932    -0.642633796926     0.836974175668     1.007825032230
         H            4.997899481932     0.138185203074    -0.733140824332     1.007825032230
         H            5.478019481932     1.002426203074     0.741591175668     1.007825032230

  Basis Set: AUG-CC-PVTZ
    Blend: AUG-CC-PVTZ
  Basis Set: (AUG-CC-PVTZ AUX)
    Blend: AUG-CC-PVTZ-JKFIT
	 Reference Energy          =    -499.9865691640521845 [Eh]
	 Singles Energy            =      -0.0000000000000000 [Eh]
	 Same-Spin Energy          =      -0.5132138251995937 [Eh]
	 Opposite-Spin Energy      =      -1.7216143295974180 [Eh]
	 Correlation Energy        =      -2.2348281547970119 [Eh]
	 Total Energy              =    -502.2213973188491991 [Eh]

	 ================> DF-SCS-MP2 Energies <==================
	-----------------------------------------------------------
	 SCS Same-Spin Scale       =       0.3333333333333333 [-]
	 SCS Opposite-Spin Scale   =       1.2000000000000000 [-]
	 SCS Same-Spin Energy      =      -0.1710712750665312 [Eh]
	 SCS Opposite-Spin Energy  =      -2.0659371955169017 [Eh]
	 SCS Correlation Energy    =      -2.2370084705834330 [Eh]
	 SCS Total Energy          =    -502.2235776346356033 [Eh]
	-----------------------------------------------------------

  Dipole Moment: [D]
     X:    -1.4035      Y:     1.1585      Z:     0.7903     Total:     1.9841

*** Psi4 exiting successfully. Buy a developer a beer!
