                               Psi4 1.3.2 release

  ==> Input File <==

--------------------------------------------------------------------------
#psi4
#
memory 32 gb

molecule  {
0 1
  O        1.0716460     0.4753830     0.0137820
  O        2.5311320    -1.1057930    -0.7123110
  C       -2.3662315    -0.0934388     0.2866222
  C       -3.5980660     0.7810210     0.4066790
  C       -1.2626340     0.3942960    -0.2965320
  C        0.0082920    -0.3313460    -0.5624280
  C       -2.5132090    -1.4745150     0.8629900
  C       -4.7090750     0.3554230    -0.5595870
  C        3.3545870     0.8742710     0.4380940
  C        2.3120420    -0.0450080    -0.1482500
  C        4.7580620     0.3036620     0.3135630
  H       -3.3290990     1.8240090     0.2046860
  H       -3.9789780     0.7461160     1.4360390
  H       -1.2730680     1.4248330    -0.6509560
  H        0.2030610    -0.4353830    -1.6357720
  H        0.0474490    -1.3311670    -0.1253770
  H       -2.7952251    -1.4251532     1.9231364
  H       -3.3106690    -2.0257820     0.3507100
  H       -1.6004590    -2.0681310     0.7873000
  H       -5.0436390    -0.6667330    -0.3605950
  H       -4.3535760     0.4008270    -1.5926810
  H       -5.5777020     1.0147490    -0.4669260
  H        3.2685340     1.8407540    -0.0713220
  H        3.0874670     1.0628020     1.4826470
  H        4.8339620    -0.6514900     0.8358700
  H        5.0104170     0.1293290    -0.7342450
  H        5.4905370     0.9935700     0.7404870
units angstrom
no_reorient  #important for SAPT in psi4, default
symmetry c1  #important for SAPT in psi4, default
}

set PROPERTIES_ORIGIN ["COM"]
properties('MP2/aug-cc-pvtz', properties = ['dipole'])
--------------------------------------------------------------------------

    Molecular point group: c1
  Charge       = 0
  Multiplicity = 1
  Basis Set: AUG-CC-PVTZ
    Blend: AUG-CC-PVTZ
  Basis Set: (AUG-CC-PVTZ AUX)
    Blend: AUG-CC-PVTZ-JKFIT

    Orbital Energies [Eh]
    ---------------------

    Doubly Occupied:

       1A    -20.597378     2A    -20.540807     3A    -11.375567
       4A    -11.286444     5A    -11.243710     6A    -11.242237
       7A    -11.228521     8A    -11.226375     9A    -11.222784
      10A    -11.218871    11A    -11.217899    12A     -1.448175
      13A     -1.347651    14A     -1.112565    15A     -1.063859
      16A     -1.021827    17A     -0.977800    18A     -0.920166
      19A     -0.878784    20A     -0.833366    21A     -0.767522
      22A     -0.722908    23A     -0.687870    24A     -0.679995
      25A     -0.660246    26A     -0.638574    27A     -0.623484
      28A     -0.605241    29A     -0.588005    30A     -0.573710
      31A     -0.552950    32A     -0.544504    33A     -0.533813
      34A     -0.522651    35A     -0.517873    36A     -0.514597
      37A     -0.512096    38A     -0.492314    39A     -0.484055
      40A     -0.463771    41A     -0.457324    42A     -0.444464
      43A     -0.347627

  @DF-RHF Final Energy:  -500.03855078274563

   => Energetics <=

    Nuclear Repulsion Energy =            603.1139734530183887
    One-Electron Energy =               -1876.4242876240816713
    Two-Electron Energy =                 773.2717633883175949
    Total Energy =                       -500.0385507827456877
  Basis Set: (AUG-CC-PVTZ AUX)
    Blend: AUG-CC-PVTZ-RI
    Molecular point group: c1

    Geometry (in Angstrom), charge = 0, multiplicity = 1:

       Center              X                  Y                   Z               Mass
    ------------   -----------------  -----------------  -----------------  -----------------
         O            1.071406360223     0.475839730536     0.014675465287    15.994914619570
         O            2.530892360223    -1.105336269464    -0.711417534713    15.994914619570
         C           -2.366471139777    -0.092982069464     0.287515665287    12.000000000000
         C           -3.598305639777     0.781477730536     0.407572465287    12.000000000000
         C           -1.262873639777     0.394752730536    -0.295638534713    12.000000000000
         C            0.008052360223    -0.330889269464    -0.561534534713    12.000000000000
         C           -2.513448639777    -1.474058269464     0.863883465287    12.000000000000
         C           -4.709314639777     0.355879730536    -0.558693534713    12.000000000000
         C            3.354347360223     0.874727730536     0.438987465287    12.000000000000
         C            2.311802360223    -0.044551269464    -0.147356534713    12.000000000000
         C            4.757822360223     0.304118730536     0.314456465287    12.000000000000
         H           -3.329338639777     1.824465730536     0.205579465287     1.007825032230
         H           -3.979217639777     0.746572730536     1.436932465287     1.007825032230
         H           -1.273307639777     1.425289730536    -0.650062534713     1.007825032230
         H            0.202821360223    -0.434926269464    -1.634878534713     1.007825032230
         H            0.047209360223    -1.330710269464    -0.124483534713     1.007825032230
         H           -2.795464739777    -1.424696469464     1.924029865287     1.007825032230
         H           -3.310908639777    -2.025325269464     0.351603465287     1.007825032230
         H           -1.600698639777    -2.067674269464     0.788193465287     1.007825032230
         H           -5.043878639777    -0.666276269464    -0.359701534713     1.007825032230
         H           -4.353815639777     0.401283730536    -1.591787534713     1.007825032230
         H           -5.577941639777     1.015205730536    -0.466032534713     1.007825032230
         H            3.268294360223     1.841210730536    -0.070428534713     1.007825032230
         H            3.087227360223     1.063258730536     1.483540465287     1.007825032230
         H            4.833722360223    -0.651033269464     0.836763465287     1.007825032230
         H            5.010177360223     0.129785730536    -0.733351534713     1.007825032230
         H            5.490297360223     0.994026730536     0.741380465287     1.007825032230

  Basis Set: AUG-CC-PVTZ
    Blend: AUG-CC-PVTZ
  Basis Set: (AUG-CC-PVTZ AUX)
    Blend: AUG-CC-PVTZ-JKFIT
	 Reference Energy          =    -500.0385507827456308 [Eh]
	 Singles Energy            =      -0.0000000000000000 [Eh]
	 Same-Spin Energy          =      -0.5096438518348583 [Eh]
	 Opposite-Spin Energy      =      -1.7166549210945430 [Eh]
	 Correlation Energy        =      -2.2262987729294013 [Eh]
	 Total Energy              =    -502.2648495556750277 [Eh]

	 ================> DF-SCS-MP2 Energies <==================
	-----------------------------------------------------------
	 SCS Same-Spin Scale       =       0.3333333333333333 [-]
	 SCS Opposite-Spin Scale   =       1.2000000000000000 [-]
	 SCS Same-Spin Energy      =      -0.1698812839449527 [Eh]
	 SCS Opposite-Spin Energy  =      -2.0599859053134515 [Eh]
	 SCS Correlation Energy    =      -2.2298671892584041 [Eh]
	 SCS Total Energy          =    -502.2684179720040447 [Eh]
	-----------------------------------------------------------

  Dipole Moment: [D]
     X:    -1.4341      Y:     1.1828      Z:     0.8412     Total:     2.0404

*** Psi4 exiting successfully. Buy a developer a beer!
