                               Psi4 1.3.2 release

  ==> Input File <==

--------------------------------------------------------------------------
#psi4
#
memory 32 gb

molecule  {
0 1
  O        1.0909596     0.5123074     0.0361432
  O        2.5727587    -1.1002180    -0.7050163
  C       -2.3693550    -0.0883010     0.2982860
  C       -3.5980660     0.7810210     0.4066790
  C       -1.2626340     0.3942960    -0.2965320
  C        0.0082920    -0.3313460    -0.5624280
  C       -2.5132090    -1.4745150     0.8629900
  C       -4.7090750     0.3554230    -0.5595870
  C        3.3545870     0.8742710     0.4380940
  C        2.3120420    -0.0450080    -0.1482500
  C        4.7580620     0.3036620     0.3135630
  H       -3.3290990     1.8240090     0.2046860
  H       -3.9789780     0.7461160     1.4360390
  H       -1.2730680     1.4248330    -0.6509560
  H        0.2030610    -0.4353830    -1.6357720
  H        0.0474490    -1.3311670    -0.1253770
  H       -2.7951440    -1.4155820     1.9226690
  H       -3.3106690    -2.0257820     0.3507100
  H       -1.6004590    -2.0681310     0.7873000
  H       -5.0436390    -0.6667330    -0.3605950
  H       -4.3535760     0.4008270    -1.5926810
  H       -5.5777020     1.0147490    -0.4669260
  H        3.2685340     1.8407540    -0.0713220
  H        3.0874670     1.0628020     1.4826470
  H        4.8339620    -0.6514900     0.8358700
  H        5.0104170     0.1293290    -0.7342450
  H        5.4905370     0.9935700     0.7404870
units angstrom
no_reorient  #important for SAPT in psi4, default
symmetry c1  #important for SAPT in psi4, default
}

set PROPERTIES_ORIGIN ["COM"]
properties('MP2/aug-cc-pvtz', properties = ['dipole'])
--------------------------------------------------------------------------

    Molecular point group: c1
  Charge       = 0
  Multiplicity = 1
  Basis Set: AUG-CC-PVTZ
    Blend: AUG-CC-PVTZ
  Basis Set: (AUG-CC-PVTZ AUX)
    Blend: AUG-CC-PVTZ-JKFIT

    Orbital Energies [Eh]
    ---------------------

    Doubly Occupied:

       1A    -20.601488     2A    -20.541669     3A    -11.374155
       4A    -11.292828     5A    -11.246643     6A    -11.236311
       7A    -11.229916     8A    -11.228285     9A    -11.225666
      10A    -11.220484    11A    -11.214063    12A     -1.441425
      13A     -1.348022    14A     -1.114517    15A     -1.059486
      16A     -1.022594    17A     -0.978668    18A     -0.918448
      19A     -0.878153    20A     -0.833964    21A     -0.765730
      22A     -0.721949    23A     -0.684719    24A     -0.677703
      25A     -0.658785    26A     -0.638676    27A     -0.624261
      28A     -0.602674    29A     -0.587817    30A     -0.574681
      31A     -0.555099    32A     -0.547666    33A     -0.535636
      34A     -0.520353    35A     -0.515584    36A     -0.514528
      37A     -0.511351    38A     -0.489870    39A     -0.485368
      40A     -0.468092    41A     -0.461661    42A     -0.441743
      43A     -0.347990

  @DF-RHF Final Energy:  -500.03377477672194

   => Energetics <=

    Nuclear Repulsion Energy =            602.0804169568398265
    One-Electron Energy =               -1874.3509404867279500
    Two-Electron Energy =                 772.2367487531662391
    Total Energy =                       -500.0337747767218843
  Basis Set: (AUG-CC-PVTZ AUX)
    Blend: AUG-CC-PVTZ-RI
    Molecular point group: c1

    Geometry (in Angstrom), charge = 0, multiplicity = 1:

       Center              X                  Y                   Z               Mass
    ------------   -----------------  -----------------  -----------------  -----------------
         O            1.084715832167     0.507953101320     0.033104704784    15.994914619570
         O            2.566514932167    -1.104572298680    -0.708054795216    15.994914619570
         C           -2.375598767833    -0.092655298680     0.295247504784    12.000000000000
         C           -3.604309767833     0.776666701320     0.403640504784    12.000000000000
         C           -1.268877767833     0.389941701320    -0.299570495216    12.000000000000
         C            0.002048232167    -0.335700298680    -0.565466495216    12.000000000000
         C           -2.519452767833    -1.478869298680     0.859951504784    12.000000000000
         C           -4.715318767833     0.351068701320    -0.562625495216    12.000000000000
         C            3.348343232167     0.869916701320     0.435055504784    12.000000000000
         C            2.305798232167    -0.049362298680    -0.151288495216    12.000000000000
         C            4.751818232167     0.299307701320     0.310524504784    12.000000000000
         H           -3.335342767833     1.819654701320     0.201647504784     1.007825032230
         H           -3.985221767833     0.741761701320     1.433000504784     1.007825032230
         H           -1.279311767833     1.420478701320    -0.653994495216     1.007825032230
         H            0.196817232167    -0.439737298680    -1.638810495216     1.007825032230
         H            0.041205232167    -1.335521298680    -0.128415495216     1.007825032230
         H           -2.801387767833    -1.419936298680     1.919630504784     1.007825032230
         H           -3.316912767833    -2.030136298680     0.347671504784     1.007825032230
         H           -1.606702767833    -2.072485298680     0.784261504784     1.007825032230
         H           -5.049882767833    -0.671087298680    -0.363633495216     1.007825032230
         H           -4.359819767833     0.396472701320    -1.595719495216     1.007825032230
         H           -5.583945767833     1.010394701320    -0.469964495216     1.007825032230
         H            3.262290232167     1.836399701320    -0.074360495216     1.007825032230
         H            3.081223232167     1.058447701320     1.479608504784     1.007825032230
         H            4.827718232167    -0.655844298680     0.832831504784     1.007825032230
         H            5.004173232167     0.124974701320    -0.737283495216     1.007825032230
         H            5.484293232167     0.989215701320     0.737448504784     1.007825032230

  Basis Set: AUG-CC-PVTZ
    Blend: AUG-CC-PVTZ
  Basis Set: (AUG-CC-PVTZ AUX)
    Blend: AUG-CC-PVTZ-JKFIT
	 Reference Energy          =    -500.0337747767219412 [Eh]
	 Singles Energy            =      -0.0000000000000000 [Eh]
	 Same-Spin Energy          =      -0.5102497853202539 [Eh]
	 Opposite-Spin Energy      =      -1.7184277919370186 [Eh]
	 Correlation Energy        =      -2.2286775772572724 [Eh]
	 Total Energy              =    -502.2624523539791994 [Eh]

	 ================> DF-SCS-MP2 Energies <==================
	-----------------------------------------------------------
	 SCS Same-Spin Scale       =       0.3333333333333333 [-]
	 SCS Opposite-Spin Scale   =       1.2000000000000000 [-]
	 SCS Same-Spin Energy      =      -0.1700832617734180 [Eh]
	 SCS Opposite-Spin Energy  =      -2.0621133503244220 [Eh]
	 SCS Correlation Energy    =      -2.2321966120978400 [Eh]
	 SCS Total Energy          =    -502.2659713888197643 [Eh]
	-----------------------------------------------------------

  Dipole Moment: [D]
     X:    -1.7866      Y:     1.0598      Z:     0.7459     Total:     2.2072

*** Psi4 exiting successfully. Buy a developer a beer!
