                               Psi4 1.4a3.dev225

  ==> Input File <==

--------------------------------------------------------------------------
#psi4
#
memory 32 gb

molecule  {
0 1
  O       -1.1411000    -0.4541930    -0.0251880
  O       -2.5814580     1.1752260    -0.6867450
  C        2.3134570     0.0186930     0.2462000
  C        3.5222300    -0.8802230     0.3222130
  C        1.1937340    -0.4134970    -0.3651820
  C       -0.0647290     0.3542590    -0.5783780
  C        2.4850690     1.3863280     0.8546590
  C        4.7190700    -0.3405130    -0.4677320
  C       -3.4286640    -0.8122060     0.4327630
  C       -2.3749380     0.0938890    -0.1583950
  C       -4.8282690    -0.2261570     0.3119590
  H        3.2581340    -1.8761120    -0.0507320
  H        3.8122360    -1.0018650     1.3748590
  H        1.1809941    -1.4701751    -0.7923160
  H       -0.2705280     0.5138520    -1.6430550
  H       -0.0714200     1.3330110    -0.0949940
  H        3.0182560     1.3061200     1.8081990
  H        3.0814560     2.0379150     0.2067330
  H        1.5342700     1.8877430     1.0433380
  H        5.0646870     0.6170420    -0.0694620
  H        4.4484560    -0.1949880    -1.5176090
  H        5.5583810    -1.0408350    -0.4253590
  H       -3.3536290    -1.7820470    -0.0715700
  H       -3.1585900    -0.9983310     1.4781360
  H       -4.8922970     0.7333770     0.8287030
  H       -5.0879650    -0.0561110    -0.7346540
  H       -5.5642940    -0.9066400     0.7478690
units angstrom
no_reorient  #important for SAPT in psi4, default
symmetry c1  #important for SAPT in psi4, default
}

set PROPERTIES_ORIGIN ["COM"]
properties('MP2/aug-cc-pvtz', properties = ['dipole'])
--------------------------------------------------------------------------

    Molecular point group: c1
  Charge       = 0
  Multiplicity = 1
  Basis Set: AUG-CC-PVTZ
    Blend: AUG-CC-PVTZ
  Basis Set: (AUG-CC-PVTZ AUX)
    Blend: AUG-CC-PVTZ-JKFIT

    Orbital Energies [Eh]
    ---------------------

    Doubly Occupied:

       1A    -20.597286     2A    -20.540927     3A    -11.375802
       4A    -11.287540     5A    -11.245015     6A    -11.242641
       7A    -11.229317     8A    -11.228578     9A    -11.226697
      10A    -11.219284    11A    -11.218215    12A     -1.447084
      13A     -1.347478    14A     -1.111736    15A     -1.063073
      16A     -1.021463    17A     -0.977040    18A     -0.919529
      19A     -0.879735    20A     -0.832095    21A     -0.766644
      22A     -0.719266    23A     -0.686831    24A     -0.679420
      25A     -0.658951    26A     -0.636934    27A     -0.624153
      28A     -0.603668    29A     -0.588814    30A     -0.572094
      31A     -0.553921    32A     -0.545772    33A     -0.533267
      34A     -0.521783    35A     -0.516850    36A     -0.513410
      37A     -0.510429    38A     -0.492174    39A     -0.484601
      40A     -0.464886    41A     -0.457112    42A     -0.444342
      43A     -0.346440

  @DF-RHF Final Energy:  -500.03610345109047

   => Energetics <=

    Nuclear Repulsion Energy =            602.2623661549764620
    One-Electron Energy =               -1874.7323476108847444
    Two-Electron Energy =                 772.4338780048178705
    Total Energy =                       -500.0361034510904119
  Basis Set: (AUG-CC-PVTZ AUX)
    Blend: AUG-CC-PVTZ-RI
    Molecular point group: c1

    Geometry (in Angstrom), charge = 0, multiplicity = 1:

       Center              X                  Y                   Z               Mass
    ------------   -----------------  -----------------  -----------------  -----------------
         O           -1.086823595526    -0.459283259087    -0.011700520845    15.994914619570
         O           -2.527181595526     1.170135740913    -0.673257520845    15.994914619570
         C            2.367733404474     0.013602740913     0.259687479155    12.000000000000
         C            3.576506404474    -0.885313259087     0.335700479155    12.000000000000
         C            1.248010404474    -0.418587259087    -0.351694520845    12.000000000000
         C           -0.010452595526     0.349168740913    -0.564890520845    12.000000000000
         C            2.539345404474     1.381237740913     0.868146479155    12.000000000000
         C            4.773346404474    -0.345603259087    -0.454244520845    12.000000000000
         C           -3.374387595526    -0.817296259087     0.446250479155    12.000000000000
         C           -2.320661595526     0.088798740913    -0.144907520845    12.000000000000
         C           -4.773992595526    -0.231247259087     0.325446479155    12.000000000000
         H            3.312410404474    -1.881202259087    -0.037244520845     1.007825032230
         H            3.866512404474    -1.006955259087     1.388346479155     1.007825032230
         H            1.235270504474    -1.475265359087    -0.778828520845     1.007825032230
         H           -0.216251595526     0.508761740913    -1.629567520845     1.007825032230
         H           -0.017143595526     1.327920740913    -0.081506520845     1.007825032230
         H            3.072532404474     1.301029740913     1.821686479155     1.007825032230
         H            3.135732404474     2.032824740913     0.220220479155     1.007825032230
         H            1.588546404474     1.882652740913     1.056825479155     1.007825032230
         H            5.118963404474     0.611951740913    -0.055974520845     1.007825032230
         H            4.502732404474    -0.200078259087    -1.504121520845     1.007825032230
         H            5.612657404474    -1.045925259087    -0.411871520845     1.007825032230
         H           -3.299352595526    -1.787137259087    -0.058082520845     1.007825032230
         H           -3.104313595526    -1.003421259087     1.491623479155     1.007825032230
         H           -4.838020595526     0.728286740913     0.842190479155     1.007825032230
         H           -5.033688595526    -0.061201259087    -0.721166520845     1.007825032230
         H           -5.510017595526    -0.911730259087     0.761356479155     1.007825032230

  Basis Set: AUG-CC-PVTZ
    Blend: AUG-CC-PVTZ
  Basis Set: (AUG-CC-PVTZ AUX)
    Blend: AUG-CC-PVTZ-JKFIT
	 Reference Energy          =    -500.0361034510904688 [Eh]
	 Singles Energy            =      -0.0000000000000000 [Eh]
	 Same-Spin Energy          =      -0.5098135662300940 [Eh]
	 Opposite-Spin Energy      =      -1.7173442148499583 [Eh]
	 Correlation Energy        =      -2.2271577810800522 [Eh]
	 Total Energy              =    -502.2632612321705210 [Eh]

	 ================> DF-SCS-MP2 Energies <==================
	-----------------------------------------------------------
	 SCS Same-Spin Scale       =       0.3333333333333333 [-]
	 SCS Opposite-Spin Scale   =       1.2000000000000000 [-]
	 SCS Same-Spin Energy      =      -0.1699378554100313 [Eh]
	 SCS Opposite-Spin Energy  =      -2.0608130578199497 [Eh]
	 SCS Correlation Energy    =      -2.2307509132299810 [Eh]
	 SCS Total Energy          =    -502.2668543643204657 [Eh]
	-----------------------------------------------------------

  Dipole Moment: [D]
     X:     1.4383      Y:    -1.1771      Z:     0.8078     Total:     2.0266

*** Psi4 exiting successfully. Buy a developer a beer!
