                               Psi4 1.3.2 release

  ==> Input File <==

--------------------------------------------------------------------------
#psi4
#
memory 32 gb

molecule  {
0 1
  O        1.0716460     0.4753830     0.0137820
  O        2.5311320    -1.1057930    -0.7123110
  C       -2.3693550    -0.0883010     0.2982860
  C       -3.6105904     0.7613863     0.4189783
  C       -1.2517896     0.3738573    -0.2924736
  C        0.0082920    -0.3313460    -0.5624280
  C       -2.5132090    -1.4745150     0.8629900
  C       -4.7090750     0.3554230    -0.5595870
  C        3.3545870     0.8742710     0.4380940
  C        2.3120420    -0.0450080    -0.1482500
  C        4.7580620     0.3036620     0.3135630
  H       -3.3290990     1.8240090     0.2046860
  H       -3.9789780     0.7461160     1.4360390
  H       -1.2730680     1.4248330    -0.6509560
  H        0.2030610    -0.4353830    -1.6357720
  H        0.0474490    -1.3311670    -0.1253770
  H       -2.7951440    -1.4155820     1.9226690
  H       -3.3106690    -2.0257820     0.3507100
  H       -1.6004590    -2.0681310     0.7873000
  H       -5.0436390    -0.6667330    -0.3605950
  H       -4.3535760     0.4008270    -1.5926810
  H       -5.5777020     1.0147490    -0.4669260
  H        3.2685340     1.8407540    -0.0713220
  H        3.0874670     1.0628020     1.4826470
  H        4.8339620    -0.6514900     0.8358700
  H        5.0104170     0.1293290    -0.7342450
  H        5.4905370     0.9935700     0.7404870
units angstrom
no_reorient  #important for SAPT in psi4, default
symmetry c1  #important for SAPT in psi4, default
}

set PROPERTIES_ORIGIN ["COM"]
properties('MP2/aug-cc-pvtz', properties = ['dipole'])
--------------------------------------------------------------------------

    Molecular point group: c1
  Charge       = 0
  Multiplicity = 1
  Basis Set: AUG-CC-PVTZ
    Blend: AUG-CC-PVTZ
  Basis Set: (AUG-CC-PVTZ AUX)
    Blend: AUG-CC-PVTZ-JKFIT

    Orbital Energies [Eh]
    ---------------------

    Doubly Occupied:

       1A    -20.597713     2A    -20.540960     3A    -11.375792
       4A    -11.286303     5A    -11.244705     6A    -11.242331
       7A    -11.229533     8A    -11.225239     9A    -11.224378
      10A    -11.219504    11A    -11.217960    12A     -1.448534
      13A     -1.347959    14A     -1.113358    15A     -1.064443
      16A     -1.024786    17A     -0.978973    18A     -0.918317
      19A     -0.879685    20A     -0.834388    21A     -0.767887
      22A     -0.721521    23A     -0.687271    24A     -0.680812
      25A     -0.660183    26A     -0.637902    27A     -0.625609
      28A     -0.605107    29A     -0.588758    30A     -0.575672
      31A     -0.552562    32A     -0.545379    33A     -0.533901
      34A     -0.521922    35A     -0.517218    36A     -0.516959
      37A     -0.509904    38A     -0.492259    39A     -0.483239
      40A     -0.464048    41A     -0.457311    42A     -0.444695
      43A     -0.346483

  @DF-RHF Final Energy:  -500.03635432171023

   => Energetics <=

    Nuclear Repulsion Energy =            603.3043889966272673
    One-Electron Energy =               -1876.7785603290321887
    Two-Electron Energy =                 773.4378170106946300
    Total Energy =                       -500.0363543217102915
  Basis Set: (AUG-CC-PVTZ AUX)
    Blend: AUG-CC-PVTZ-RI
    Molecular point group: c1

    Geometry (in Angstrom), charge = 0, multiplicity = 1:

       Center              X                  Y                   Z               Mass
    ------------   -----------------  -----------------  -----------------  -----------------
         O            1.071775064411     0.478463315887     0.012524570892    15.994914619570
         O            2.531261064411    -1.102712684113    -0.713568429108    15.994914619570
         C           -2.369225935589    -0.085220684113     0.297028570892    12.000000000000
         C           -3.610461335589     0.764466615887     0.417720870892    12.000000000000
         C           -1.251660535589     0.376937615887    -0.293731029108    12.000000000000
         C            0.008421064411    -0.328265684113    -0.563685429108    12.000000000000
         C           -2.513079935589    -1.471434684113     0.861732570892    12.000000000000
         C           -4.708945935589     0.358503315887    -0.560844429108    12.000000000000
         C            3.354716064411     0.877351315887     0.436836570892    12.000000000000
         C            2.312171064411    -0.041927684113    -0.149507429108    12.000000000000
         C            4.758191064411     0.306742315887     0.312305570892    12.000000000000
         H           -3.328969935589     1.827089315887     0.203428570892     1.007825032230
         H           -3.978848935589     0.749196315887     1.434781570892     1.007825032230
         H           -1.272938935589     1.427913315887    -0.652213429108     1.007825032230
         H            0.203190064411    -0.432302684113    -1.637029429108     1.007825032230
         H            0.047578064411    -1.328086684113    -0.126634429108     1.007825032230
         H           -2.795014935589    -1.412501684113     1.921411570892     1.007825032230
         H           -3.310539935589    -2.022701684113     0.349452570892     1.007825032230
         H           -1.600329935589    -2.065050684113     0.786042570892     1.007825032230
         H           -5.043509935589    -0.663652684113    -0.361852429108     1.007825032230
         H           -4.353446935589     0.403907315887    -1.593938429108     1.007825032230
         H           -5.577572935589     1.017829315887    -0.468183429108     1.007825032230
         H            3.268663064411     1.843834315887    -0.072579429108     1.007825032230
         H            3.087596064411     1.065882315887     1.481389570892     1.007825032230
         H            4.834091064411    -0.648409684113     0.834612570892     1.007825032230
         H            5.010546064411     0.132409315887    -0.735502429108     1.007825032230
         H            5.490666064411     0.996650315887     0.739229570892     1.007825032230

  Basis Set: AUG-CC-PVTZ
    Blend: AUG-CC-PVTZ
  Basis Set: (AUG-CC-PVTZ AUX)
    Blend: AUG-CC-PVTZ-JKFIT
	 Reference Energy          =    -500.0363543217102347 [Eh]
	 Singles Energy            =      -0.0000000000000000 [Eh]
	 Same-Spin Energy          =      -0.5100389900757909 [Eh]
	 Opposite-Spin Energy      =      -1.7171912577903201 [Eh]
	 Correlation Energy        =      -2.2272302478661112 [Eh]
	 Total Energy              =    -502.2635845695763237 [Eh]

	 ================> DF-SCS-MP2 Energies <==================
	-----------------------------------------------------------
	 SCS Same-Spin Scale       =       0.3333333333333333 [-]
	 SCS Opposite-Spin Scale   =       1.2000000000000000 [-]
	 SCS Same-Spin Energy      =      -0.1700129966919303 [Eh]
	 SCS Opposite-Spin Energy  =      -2.0606295093483840 [Eh]
	 SCS Correlation Energy    =      -2.2306425060403141 [Eh]
	 SCS Total Energy          =    -502.2669968277505745 [Eh]
	-----------------------------------------------------------

  Dipole Moment: [D]
     X:    -1.4517      Y:     1.1733      Z:     0.8330     Total:     2.0440

*** Psi4 exiting successfully. Buy a developer a beer!
