                               Psi4 1.3.2 release

  ==> Input File <==

--------------------------------------------------------------------------
#psi4
#
memory 32 gb

molecule  {
0 1
  O        1.0716460     0.4753830     0.0137820
  O        2.5311320    -1.1057930    -0.7123110
  C       -2.3693550    -0.0883010     0.2982860
  C       -3.5980660     0.7810210     0.4066790
  C       -1.2572592     0.3840027    -0.2947670
  C        0.0082920    -0.3313460    -0.5624280
  C       -2.5008960    -1.4772159     0.8593442
  C       -4.7090750     0.3554230    -0.5595870
  C        3.3545870     0.8742710     0.4380940
  C        2.3120420    -0.0450080    -0.1482500
  C        4.7580620     0.3036620     0.3135630
  H       -3.3290990     1.8240090     0.2046860
  H       -3.9789780     0.7461160     1.4360390
  H       -1.2730680     1.4248330    -0.6509560
  H        0.2030610    -0.4353830    -1.6357720
  H        0.0474490    -1.3311670    -0.1253770
  H       -2.7951440    -1.4155820     1.9226690
  H       -3.3106690    -2.0257820     0.3507100
  H       -1.6004590    -2.0681310     0.7873000
  H       -5.0436390    -0.6667330    -0.3605950
  H       -4.3535760     0.4008270    -1.5926810
  H       -5.5777020     1.0147490    -0.4669260
  H        3.2685340     1.8407540    -0.0713220
  H        3.0874670     1.0628020     1.4826470
  H        4.8339620    -0.6514900     0.8358700
  H        5.0104170     0.1293290    -0.7342450
  H        5.4905370     0.9935700     0.7404870
units angstrom
no_reorient  #important for SAPT in psi4, default
symmetry c1  #important for SAPT in psi4, default
}

set PROPERTIES_ORIGIN ["COM"]
properties('MP2/aug-cc-pvtz', properties = ['dipole'])
--------------------------------------------------------------------------

    Molecular point group: c1
  Charge       = 0
  Multiplicity = 1
  Basis Set: AUG-CC-PVTZ
    Blend: AUG-CC-PVTZ
  Basis Set: (AUG-CC-PVTZ AUX)
    Blend: AUG-CC-PVTZ-JKFIT

    Orbital Energies [Eh]
    ---------------------

    Doubly Occupied:

       1A    -20.597444     2A    -20.540830     3A    -11.375617
       4A    -11.286273     5A    -11.244449     6A    -11.242242
       7A    -11.229125     8A    -11.226191     9A    -11.223271
      10A    -11.219474    11A    -11.217901    12A     -1.448273
      13A     -1.347737    14A     -1.112865    15A     -1.064080
      16A     -1.022911    17A     -0.978384    18A     -0.919040
      19A     -0.879577    20A     -0.833723    21A     -0.767586
      22A     -0.722113    23A     -0.687647    24A     -0.680779
      25A     -0.660223    26A     -0.638973    27A     -0.624313
      28A     -0.604984    29A     -0.587549    30A     -0.573496
      31A     -0.553531    32A     -0.544906    33A     -0.534510
      34A     -0.521843    35A     -0.517082    36A     -0.513979
      37A     -0.511127    38A     -0.492254    39A     -0.484319
      40A     -0.467178    41A     -0.457464    42A     -0.444540
      43A     -0.345635

  @DF-RHF Final Energy:  -500.03785039411781

   => Energetics <=

    Nuclear Repulsion Energy =            603.2305035462370597
    One-Electron Energy =               -1876.6458300050171601
    Two-Electron Energy =                 773.3774760646622326
    Total Energy =                       -500.0378503941178678
  Basis Set: (AUG-CC-PVTZ AUX)
    Blend: AUG-CC-PVTZ-RI
    Molecular point group: c1

    Geometry (in Angstrom), charge = 0, multiplicity = 1:

       Center              X                  Y                   Z               Mass
    ------------   -----------------  -----------------  -----------------  -----------------
         O            1.070286331390     0.476381835324     0.013926498690    15.994914619570
         O            2.529772331390    -1.104794164676    -0.712166501310    15.994914619570
         C           -2.370714668610    -0.087302164676     0.298430498690    12.000000000000
         C           -3.599425668610     0.782019835324     0.406823498690    12.000000000000
         C           -1.258618868610     0.385001535324    -0.294622501310    12.000000000000
         C            0.006932331390    -0.330347164676    -0.562283501310    12.000000000000
         C           -2.502255668610    -1.476217064676     0.859488698690    12.000000000000
         C           -4.710434668610     0.356421835324    -0.559442501310    12.000000000000
         C            3.353227331390     0.875269835324     0.438238498690    12.000000000000
         C            2.310682331390    -0.044009164676    -0.148105501310    12.000000000000
         C            4.756702331390     0.304660835324     0.313707498690    12.000000000000
         H           -3.330458668610     1.825007835324     0.204830498690     1.007825032230
         H           -3.980337668610     0.747114835324     1.436183498690     1.007825032230
         H           -1.274427668610     1.425831835324    -0.650811501310     1.007825032230
         H            0.201701331390    -0.434384164676    -1.635627501310     1.007825032230
         H            0.046089331390    -1.330168164676    -0.125232501310     1.007825032230
         H           -2.796503668610    -1.414583164676     1.922813498690     1.007825032230
         H           -3.312028668610    -2.024783164676     0.350854498690     1.007825032230
         H           -1.601818668610    -2.067132164676     0.787444498690     1.007825032230
         H           -5.044998668610    -0.665734164676    -0.360450501310     1.007825032230
         H           -4.354935668610     0.401825835324    -1.592536501310     1.007825032230
         H           -5.579061668610     1.015747835324    -0.466781501310     1.007825032230
         H            3.267174331390     1.841752835324    -0.071177501310     1.007825032230
         H            3.086107331390     1.063800835324     1.482791498690     1.007825032230
         H            4.832602331390    -0.650491164676     0.836014498690     1.007825032230
         H            5.009057331390     0.130327835324    -0.734100501310     1.007825032230
         H            5.489177331390     0.994568835324     0.740631498690     1.007825032230

  Basis Set: AUG-CC-PVTZ
    Blend: AUG-CC-PVTZ
  Basis Set: (AUG-CC-PVTZ AUX)
    Blend: AUG-CC-PVTZ-JKFIT
	 Reference Energy          =    -500.0378503941178110 [Eh]
	 Singles Energy            =      -0.0000000000000000 [Eh]
	 Same-Spin Energy          =      -0.5098612132552711 [Eh]
	 Opposite-Spin Energy      =      -1.7169146071840595 [Eh]
	 Correlation Energy        =      -2.2267758204393306 [Eh]
	 Total Energy              =    -502.2646262145571541 [Eh]

	 ================> DF-SCS-MP2 Energies <==================
	-----------------------------------------------------------
	 SCS Same-Spin Scale       =       0.3333333333333333 [-]
	 SCS Opposite-Spin Scale   =       1.2000000000000000 [-]
	 SCS Same-Spin Energy      =      -0.1699537377517570 [Eh]
	 SCS Opposite-Spin Energy  =      -2.0602975286208713 [Eh]
	 SCS Correlation Energy    =      -2.2302512663726284 [Eh]
	 SCS Total Energy          =    -502.2681016604904585 [Eh]
	-----------------------------------------------------------

  Dipole Moment: [D]
     X:    -1.4516      Y:     1.1815      Z:     0.8305     Total:     2.0476

*** Psi4 exiting successfully. Buy a developer a beer!
