                               Psi4 1.3.2 release

  ==> Input File <==

--------------------------------------------------------------------------
#psi4
#
memory 32 gb

molecule  {
0 1
  O        1.0716460     0.4753830     0.0137820
  O        2.5311320    -1.1057930    -0.7123110
  C       -2.3693550    -0.0883010     0.2982860
  C       -3.5980660     0.7810210     0.4066790
  C       -1.2626340     0.3942960    -0.2965320
  C       -0.0016390    -0.3524514    -0.5510310
  C       -2.5132090    -1.4745150     0.8629900
  C       -4.7090750     0.3554230    -0.5595870
  C        3.3545870     0.8742710     0.4380940
  C        2.3120420    -0.0450080    -0.1482500
  C        4.7580620     0.3036620     0.3135630
  H       -3.3290990     1.8240090     0.2046860
  H       -3.9789780     0.7461160     1.4360390
  H       -1.2908140     1.4267393    -0.6443803
  H        0.2030610    -0.4353830    -1.6357720
  H        0.0474490    -1.3311670    -0.1253770
  H       -2.7951440    -1.4155820     1.9226690
  H       -3.3106690    -2.0257820     0.3507100
  H       -1.6004590    -2.0681310     0.7873000
  H       -5.0436390    -0.6667330    -0.3605950
  H       -4.3535760     0.4008270    -1.5926810
  H       -5.5777020     1.0147490    -0.4669260
  H        3.2685340     1.8407540    -0.0713220
  H        3.0874670     1.0628020     1.4826470
  H        4.8339620    -0.6514900     0.8358700
  H        5.0104170     0.1293290    -0.7342450
  H        5.4905370     0.9935700     0.7404870
units angstrom
no_reorient  #important for SAPT in psi4, default
symmetry c1  #important for SAPT in psi4, default
}

set PROPERTIES_ORIGIN ["COM"]
properties('MP2/aug-cc-pvtz', properties = ['dipole'])
--------------------------------------------------------------------------

    Molecular point group: c1
  Charge       = 0
  Multiplicity = 1
  Basis Set: AUG-CC-PVTZ
    Blend: AUG-CC-PVTZ
  Basis Set: (AUG-CC-PVTZ AUX)
    Blend: AUG-CC-PVTZ-JKFIT

    Orbital Energies [Eh]
    ---------------------

    Doubly Occupied:

       1A    -20.595797     2A    -20.539802     3A    -11.374466
       4A    -11.287187     5A    -11.243984     6A    -11.241538
       7A    -11.228615     8A    -11.226786     9A    -11.223735
      10A    -11.219429    11A    -11.217412    12A     -1.444960
      13A     -1.345329    14A     -1.113198    15A     -1.063071
      16A     -1.022203    17A     -0.977823    18A     -0.919644
      19A     -0.879184    20A     -0.834020    21A     -0.766281
      22A     -0.722152    23A     -0.686487    24A     -0.679266
      25A     -0.658727    26A     -0.638070    27A     -0.623899
      28A     -0.604964    29A     -0.588193    30A     -0.574147
      31A     -0.554021    32A     -0.544292    33A     -0.533666
      34A     -0.521579    35A     -0.517342    36A     -0.514088
      37A     -0.513549    38A     -0.492239    39A     -0.484118
      40A     -0.466944    41A     -0.457616    42A     -0.443663
      43A     -0.345999

  @DF-RHF Final Energy:  -500.03743932125246

   => Energetics <=

    Nuclear Repulsion Energy =            602.9541405143877455
    One-Electron Energy =               -1876.1241878877049203
    Two-Electron Energy =                 773.1326080520647110
    Total Energy =                       -500.0374393212524637
  Basis Set: (AUG-CC-PVTZ AUX)
    Blend: AUG-CC-PVTZ-RI
    Molecular point group: c1

    Geometry (in Angstrom), charge = 0, multiplicity = 1:

       Center              X                  Y                   Z               Mass
    ------------   -----------------  -----------------  -----------------  -----------------
         O            1.072523851144     0.476993007633     0.012863431570    15.994914619570
         O            2.532009851144    -1.104182992367    -0.713229568430    15.994914619570
         C           -2.368477148856    -0.086690992367     0.297367431570    12.000000000000
         C           -3.597188148856     0.782631007633     0.405760431570    12.000000000000
         C           -1.261756148856     0.395906007633    -0.297450568430    12.000000000000
         C           -0.000761148856    -0.350841392367    -0.551949568430    12.000000000000
         C           -2.512331148856    -1.472904992367     0.862071431570    12.000000000000
         C           -4.708197148856     0.357033007633    -0.560505568430    12.000000000000
         C            3.355464851144     0.875881007633     0.437175431570    12.000000000000
         C            2.312919851144    -0.043397992367    -0.149168568430    12.000000000000
         C            4.758939851144     0.305272007633     0.312644431570    12.000000000000
         H           -3.328221148856     1.825619007633     0.203767431570     1.007825032230
         H           -3.978100148856     0.747726007633     1.435120431570     1.007825032230
         H           -1.289936148856     1.428349307633    -0.645298868430     1.007825032230
         H            0.203938851144    -0.433772992367    -1.636690568430     1.007825032230
         H            0.048326851144    -1.329556992367    -0.126295568430     1.007825032230
         H           -2.794266148856    -1.413971992367     1.921750431570     1.007825032230
         H           -3.309791148856    -2.024171992367     0.349791431570     1.007825032230
         H           -1.599581148856    -2.066520992367     0.786381431570     1.007825032230
         H           -5.042761148856    -0.665122992367    -0.361513568430     1.007825032230
         H           -4.352698148856     0.402437007633    -1.593599568430     1.007825032230
         H           -5.576824148856     1.016359007633    -0.467844568430     1.007825032230
         H            3.269411851144     1.842364007633    -0.072240568430     1.007825032230
         H            3.088344851144     1.064412007633     1.481728431570     1.007825032230
         H            4.834839851144    -0.649879992367     0.834951431570     1.007825032230
         H            5.011294851144     0.130939007633    -0.735163568430     1.007825032230
         H            5.491414851144     0.995180007633     0.739568431570     1.007825032230

  Basis Set: AUG-CC-PVTZ
    Blend: AUG-CC-PVTZ
  Basis Set: (AUG-CC-PVTZ AUX)
    Blend: AUG-CC-PVTZ-JKFIT
	 Reference Energy          =    -500.0374393212524637 [Eh]
	 Singles Energy            =      -0.0000000000000000 [Eh]
	 Same-Spin Energy          =      -0.5098103510478360 [Eh]
	 Opposite-Spin Energy      =      -1.7170129345756981 [Eh]
	 Correlation Energy        =      -2.2268232856235342 [Eh]
	 Total Energy              =    -502.2642626068760023 [Eh]

	 ================> DF-SCS-MP2 Energies <==================
	-----------------------------------------------------------
	 SCS Same-Spin Scale       =       0.3333333333333333 [-]
	 SCS Opposite-Spin Scale   =       1.2000000000000000 [-]
	 SCS Same-Spin Energy      =      -0.1699367836826120 [Eh]
	 SCS Opposite-Spin Energy  =      -2.0604155214908375 [Eh]
	 SCS Correlation Energy    =      -2.2303523051734495 [Eh]
	 SCS Total Energy          =    -502.2677916264258897 [Eh]
	-----------------------------------------------------------

  Dipole Moment: [D]
     X:    -1.5094      Y:     1.1560      Z:     0.8422     Total:     2.0794

*** Psi4 exiting successfully. Buy a developer a beer!
