                               Psi4 1.3.2 release

  ==> Input File <==

--------------------------------------------------------------------------
#psi4
#
memory 32 gb

molecule  {
0 1
  O        1.0716460     0.4753830     0.0137820
  O        2.5311320    -1.1057930    -0.7123110
  C       -2.3693550    -0.0883010     0.2982860
  C       -3.5980660     0.7810210     0.4066790
  C       -1.2626340     0.3942960    -0.2965320
  C        0.0082920    -0.3313460    -0.5624280
  C       -2.5132090    -1.4745150     0.8629900
  C       -4.7090750     0.3554230    -0.5595870
  C        3.3545870     0.8742710     0.4380940
  C        2.4035937    -0.0834172    -0.1602093
  C        4.7580620     0.3036620     0.3135630
  H       -3.3290990     1.8240090     0.2046860
  H       -3.9789780     0.7461160     1.4360390
  H       -1.2730680     1.4248330    -0.6509560
  H        0.2030610    -0.4353830    -1.6357720
  H        0.0474490    -1.3311670    -0.1253770
  H       -2.7951440    -1.4155820     1.9226690
  H       -3.3106690    -2.0257820     0.3507100
  H       -1.6004590    -2.0681310     0.7873000
  H       -5.0436390    -0.6667330    -0.3605950
  H       -4.3535760     0.4008270    -1.5926810
  H       -5.5777020     1.0147490    -0.4669260
  H        3.2685340     1.8407540    -0.0713220
  H        3.0874670     1.0628020     1.4826470
  H        4.8339620    -0.6514900     0.8358700
  H        5.0104170     0.1293290    -0.7342450
  H        5.4905370     0.9935700     0.7404870
units angstrom
no_reorient  #important for SAPT in psi4, default
symmetry c1  #important for SAPT in psi4, default
}

set PROPERTIES_ORIGIN ["COM"]
properties('MP2/aug-cc-pvtz', properties = ['dipole'])
--------------------------------------------------------------------------

    Molecular point group: c1
  Charge       = 0
  Multiplicity = 1
  Basis Set: AUG-CC-PVTZ
    Blend: AUG-CC-PVTZ
  Basis Set: (AUG-CC-PVTZ AUX)
    Blend: AUG-CC-PVTZ-JKFIT

    Orbital Energies [Eh]
    ---------------------

    Doubly Occupied:

       1A    -20.571925     2A    -20.559743     3A    -11.377266
       4A    -11.275036     5A    -11.247257     6A    -11.237343
       7A    -11.223985     8A    -11.223488     9A    -11.221740
      10A    -11.217287    11A    -11.215597    12A     -1.451725
      13A     -1.343416    14A     -1.105912    15A     -1.075082
      16A     -1.013678    17A     -0.969110    18A     -0.914341
      19A     -0.880221    20A     -0.826865    21A     -0.755072
      22A     -0.722707    23A     -0.689916    24A     -0.671624
      25A     -0.665720    26A     -0.640737    27A     -0.622652
      28A     -0.599524    29A     -0.586386    30A     -0.570119
      31A     -0.551254    32A     -0.543334    33A     -0.537151
      34A     -0.528117    35A     -0.519372    36A     -0.510932
      37A     -0.508636    38A     -0.503033    39A     -0.480454
      40A     -0.463730    41A     -0.449194    42A     -0.443895
      43A     -0.339048

  @DF-RHF Final Energy:  -500.02786638037230

   => Energetics <=

    Nuclear Repulsion Energy =            602.5849147050106467
    One-Electron Energy =               -1875.5183185692983443
    Two-Electron Energy =                 772.9055374839155093
    Total Energy =                       -500.0278663803723020
  Basis Set: (AUG-CC-PVTZ AUX)
    Blend: AUG-CC-PVTZ-RI
    Molecular point group: c1

    Geometry (in Angstrom), charge = 0, multiplicity = 1:

       Center              X                  Y                   Z               Mass
    ------------   -----------------  -----------------  -----------------  -----------------
         O            1.064608679459     0.478335394827     0.014701196682    15.994914619570
         O            2.524094679459    -1.102840605173    -0.711391803318    15.994914619570
         C           -2.376392320541    -0.085348605173     0.299205196682    12.000000000000
         C           -3.605103320541     0.783973394827     0.407598196682    12.000000000000
         C           -1.269671320541     0.397248394827    -0.295612803318    12.000000000000
         C            0.001254679459    -0.328393605173    -0.561508803318    12.000000000000
         C           -2.520246320541    -1.471562605173     0.863909196682    12.000000000000
         C           -4.716112320541     0.358375394827    -0.558667803318    12.000000000000
         C            3.347549679459     0.877223394827     0.439013196682    12.000000000000
         C            2.396556379459    -0.080464805173    -0.159290103318    12.000000000000
         C            4.751024679459     0.306614394827     0.314482196682    12.000000000000
         H           -3.336136320541     1.826961394827     0.205605196682     1.007825032230
         H           -3.986015320541     0.749068394827     1.436958196682     1.007825032230
         H           -1.280105320541     1.427785394827    -0.650036803318     1.007825032230
         H            0.196023679459    -0.432430605173    -1.634852803318     1.007825032230
         H            0.040411679459    -1.328214605173    -0.124457803318     1.007825032230
         H           -2.802181320541    -1.412629605173     1.923588196682     1.007825032230
         H           -3.317706320541    -2.022829605173     0.351629196682     1.007825032230
         H           -1.607496320541    -2.065178605173     0.788219196682     1.007825032230
         H           -5.050676320541    -0.663780605173    -0.359675803318     1.007825032230
         H           -4.360613320541     0.403779394827    -1.591761803318     1.007825032230
         H           -5.584739320541     1.017701394827    -0.466006803318     1.007825032230
         H            3.261496679459     1.843706394827    -0.070402803318     1.007825032230
         H            3.080429679459     1.065754394827     1.483566196682     1.007825032230
         H            4.826924679459    -0.648537605173     0.836789196682     1.007825032230
         H            5.003379679459     0.132281394827    -0.733325803318     1.007825032230
         H            5.483499679459     0.996522394827     0.741406196682     1.007825032230

  Basis Set: AUG-CC-PVTZ
    Blend: AUG-CC-PVTZ
  Basis Set: (AUG-CC-PVTZ AUX)
    Blend: AUG-CC-PVTZ-JKFIT
	 Reference Energy          =    -500.0278663803723020 [Eh]
	 Singles Energy            =      -0.0000000000000000 [Eh]
	 Same-Spin Energy          =      -0.5100643956668767 [Eh]
	 Opposite-Spin Energy      =      -1.7176015035605343 [Eh]
	 Correlation Energy        =      -2.2276658992274108 [Eh]
	 Total Energy              =    -502.2555322795997199 [Eh]

	 ================> DF-SCS-MP2 Energies <==================
	-----------------------------------------------------------
	 SCS Same-Spin Scale       =       0.3333333333333333 [-]
	 SCS Opposite-Spin Scale   =       1.2000000000000000 [-]
	 SCS Same-Spin Energy      =      -0.1700214652222922 [Eh]
	 SCS Opposite-Spin Energy  =      -2.0611218042726409 [Eh]
	 SCS Correlation Energy    =      -2.2311432694949334 [Eh]
	 SCS Total Energy          =    -502.2590096498672096 [Eh]
	-----------------------------------------------------------

  Dipole Moment: [D]
     X:    -0.3758      Y:     0.9501      Z:     0.7558     Total:     1.2709

*** Psi4 exiting successfully. Buy a developer a beer!
