                               Psi4 1.3.2 release

  ==> Input File <==

--------------------------------------------------------------------------
#psi4
#
memory 32 gb

molecule  {
0 1
  O        1.0716460     0.4753830     0.0137820
  O        2.5311320    -1.1057930    -0.7123110
  C       -2.3358328    -0.0443705     0.3547486
  C       -3.5980660     0.7810210     0.4066790
  C       -1.2626340     0.3942960    -0.2965320
  C        0.0082920    -0.3313460    -0.5624280
  C       -2.5132090    -1.4745150     0.8629900
  C       -4.7540667     0.4153658    -0.5309261
  C        3.3545870     0.8742710     0.4380940
  C        2.3120420    -0.0450080    -0.1482500
  C        4.7580620     0.3036620     0.3135630
  H       -3.3290990     1.8240090     0.2046860
  H       -3.9789780     0.7461160     1.4360390
  H       -1.2730680     1.4248330    -0.6509560
  H        0.2030610    -0.4353830    -1.6357720
  H        0.0474490    -1.3311670    -0.1253770
  H       -2.7951440    -1.4155820     1.9226690
  H       -3.3106690    -2.0257820     0.3507100
  H       -1.6004590    -2.0681310     0.7873000
  H       -5.0436390    -0.6667330    -0.3605950
  H       -4.3535760     0.4008270    -1.5926810
  H       -5.5777020     1.0147490    -0.4669260
  H        3.2685340     1.8407540    -0.0713220
  H        3.0874670     1.0628020     1.4826470
  H        4.8339620    -0.6514900     0.8358700
  H        5.0104170     0.1293290    -0.7342450
  H        5.4905370     0.9935700     0.7404870
units angstrom
no_reorient  #important for SAPT in psi4, default
symmetry c1  #important for SAPT in psi4, default
}

set PROPERTIES_ORIGIN ["COM"]
properties('MP2/aug-cc-pvtz', properties = ['dipole'])
--------------------------------------------------------------------------

    Molecular point group: c1
  Charge       = 0
  Multiplicity = 1
  Basis Set: AUG-CC-PVTZ
    Blend: AUG-CC-PVTZ
  Basis Set: (AUG-CC-PVTZ AUX)
    Blend: AUG-CC-PVTZ-JKFIT

    Orbital Energies [Eh]
    ---------------------

    Doubly Occupied:

       1A    -20.598208     2A    -20.541398     3A    -11.376157
       4A    -11.288057     5A    -11.244402     6A    -11.242608
       7A    -11.228300     8A    -11.226626     9A    -11.223678
      10A    -11.221418    11A    -11.218180    12A     -1.448944
      13A     -1.348335    14A     -1.112361    15A     -1.064117
      16A     -1.022860    17A     -0.976096    18A     -0.921687
      19A     -0.880746    20A     -0.836387    21A     -0.768232
      22A     -0.721999    23A     -0.688244    24A     -0.679448
      25A     -0.660818    26A     -0.638674    27A     -0.621784
      28A     -0.608685    29A     -0.592022    30A     -0.570541
      31A     -0.557472    32A     -0.546897    33A     -0.533955
      34A     -0.522763    35A     -0.518141    36A     -0.516553
      37A     -0.505828    38A     -0.492517    39A     -0.472590
      40A     -0.463963    41A     -0.457924    42A     -0.445380
      43A     -0.352142

  @DF-RHF Final Energy:  -500.02806011663159

   => Energetics <=

    Nuclear Repulsion Energy =            602.5906225169433128
    One-Electron Energy =               -1875.3230933831141556
    Two-Electron Energy =                 772.7044107495393064
    Total Energy =                       -500.0280601166315364
  Basis Set: (AUG-CC-PVTZ AUX)
    Blend: AUG-CC-PVTZ-RI
    Molecular point group: c1

    Geometry (in Angstrom), charge = 0, multiplicity = 1:

       Center              X                  Y                   Z               Mass
    ------------   -----------------  -----------------  -----------------  -----------------
         O            1.072527548014     0.467398651564     0.007238791545    15.994914619570
         O            2.532013548014    -1.113777348436    -0.718854208455    15.994914619570
         C           -2.334951251986    -0.052354848436     0.348205391545    12.000000000000
         C           -3.597184451986     0.773036651564     0.400135791545    12.000000000000
         C           -1.261752451986     0.386311651564    -0.303075208455    12.000000000000
         C            0.009173548014    -0.339330348436    -0.568971208455    12.000000000000
         C           -2.512327451986    -1.482499348436     0.856446791545    12.000000000000
         C           -4.753185151986     0.407381451564    -0.537469308455    12.000000000000
         C            3.355468548014     0.866286651564     0.431550791545    12.000000000000
         C            2.312923548014    -0.052992348436    -0.154793208455    12.000000000000
         C            4.758943548014     0.295677651564     0.307019791545    12.000000000000
         H           -3.328217451986     1.816024651564     0.198142791545     1.007825032230
         H           -3.978096451986     0.738131651564     1.429495791545     1.007825032230
         H           -1.272186451986     1.416848651564    -0.657499208455     1.007825032230
         H            0.203942548014    -0.443367348436    -1.642315208455     1.007825032230
         H            0.048330548014    -1.339151348436    -0.131920208455     1.007825032230
         H           -2.794262451986    -1.423566348436     1.916125791545     1.007825032230
         H           -3.309787451986    -2.033766348436     0.344166791545     1.007825032230
         H           -1.599577451986    -2.076115348436     0.780756791545     1.007825032230
         H           -5.042757451986    -0.674717348436    -0.367138208455     1.007825032230
         H           -4.352694451986     0.392842651564    -1.599224208455     1.007825032230
         H           -5.576820451986     1.006764651564    -0.473469208455     1.007825032230
         H            3.269415548014     1.832769651564    -0.077865208455     1.007825032230
         H            3.088348548014     1.054817651564     1.476103791545     1.007825032230
         H            4.834843548014    -0.659474348436     0.829326791545     1.007825032230
         H            5.011298548014     0.121344651564    -0.740788208455     1.007825032230
         H            5.491418548014     0.985585651564     0.733943791545     1.007825032230

  Basis Set: AUG-CC-PVTZ
    Blend: AUG-CC-PVTZ
  Basis Set: (AUG-CC-PVTZ AUX)
    Blend: AUG-CC-PVTZ-JKFIT
	 Reference Energy          =    -500.0280601166315932 [Eh]
	 Singles Energy            =      -0.0000000000000000 [Eh]
	 Same-Spin Energy          =      -0.5095874552003625 [Eh]
	 Opposite-Spin Energy      =      -1.7169144569739865 [Eh]
	 Correlation Energy        =      -2.2265019121743492 [Eh]
	 Total Energy              =    -502.2545620288059354 [Eh]

	 ================> DF-SCS-MP2 Energies <==================
	-----------------------------------------------------------
	 SCS Same-Spin Scale       =       0.3333333333333333 [-]
	 SCS Opposite-Spin Scale   =       1.2000000000000000 [-]
	 SCS Same-Spin Energy      =      -0.1698624850667875 [Eh]
	 SCS Opposite-Spin Energy  =      -2.0602973483687839 [Eh]
	 SCS Correlation Energy    =      -2.2301598334355712 [Eh]
	 SCS Total Energy          =    -502.2582199500671436 [Eh]
	-----------------------------------------------------------

  Dipole Moment: [D]
     X:    -1.3990      Y:     1.1978      Z:     0.7570     Total:     1.9912

*** Psi4 exiting successfully. Buy a developer a beer!
