                               Psi4 1.3.2 release

  ==> Input File <==

--------------------------------------------------------------------------
#psi4
#
memory 32 gb

molecule  {
0 1
  O        1.0716460     0.4753830     0.0137820
  O        2.5311320    -1.1057930    -0.7123110
  C       -2.3724894    -0.0832688     0.3099928
  C       -3.5980660     0.7810210     0.4066790
  C       -1.2626340     0.3942960    -0.2965320
  C        0.0082920    -0.3313460    -0.5624280
  C       -2.5132090    -1.4745150     0.8629900
  C       -4.7090750     0.3554230    -0.5595870
  C        3.3545870     0.8742710     0.4380940
  C        2.3120420    -0.0450080    -0.1482500
  C        4.7580620     0.3036620     0.3135630
  H       -3.3290990     1.8240090     0.2046860
  H       -3.9789780     0.7461160     1.4360390
  H       -1.2730680     1.4248330    -0.6509560
  H        0.2030610    -0.4353830    -1.6357720
  H        0.0474490    -1.3311670    -0.1253770
  H       -2.7950414    -1.4060153     1.9221209
  H       -3.3106690    -2.0257820     0.3507100
  H       -1.6004590    -2.0681310     0.7873000
  H       -5.0436390    -0.6667330    -0.3605950
  H       -4.3535760     0.4008270    -1.5926810
  H       -5.5777020     1.0147490    -0.4669260
  H        3.2685340     1.8407540    -0.0713220
  H        3.0874670     1.0628020     1.4826470
  H        4.8339620    -0.6514900     0.8358700
  H        5.0104170     0.1293290    -0.7342450
  H        5.4905370     0.9935700     0.7404870
units angstrom
no_reorient  #important for SAPT in psi4, default
symmetry c1  #important for SAPT in psi4, default
}

set PROPERTIES_ORIGIN ["COM"]
properties('MP2/aug-cc-pvtz', properties = ['dipole'])
--------------------------------------------------------------------------

    Molecular point group: c1
  Charge       = 0
  Multiplicity = 1
  Basis Set: AUG-CC-PVTZ
    Blend: AUG-CC-PVTZ
  Basis Set: (AUG-CC-PVTZ AUX)
    Blend: AUG-CC-PVTZ-JKFIT

    Orbital Energies [Eh]
    ---------------------

    Doubly Occupied:

       1A    -20.597234     2A    -20.540712     3A    -11.375465
       4A    -11.286575     5A    -11.244855     6A    -11.242149
       7A    -11.228325     8A    -11.226448     9A    -11.223838
      10A    -11.219550    11A    -11.217833    12A     -1.448062
      13A     -1.347548    14A     -1.112477    15A     -1.063956
      16A     -1.021753    17A     -0.978141    18A     -0.919152
      19A     -0.879489    20A     -0.833663    21A     -0.767336
      22A     -0.722478    23A     -0.687802    24A     -0.680082
      25A     -0.660069    26A     -0.638677    27A     -0.623995
      28A     -0.605153    29A     -0.588103    30A     -0.575109
      31A     -0.552758    32A     -0.544667    33A     -0.533633
      34A     -0.521811    35A     -0.517211    36A     -0.514359
      37A     -0.511951    38A     -0.492219    39A     -0.483734
      40A     -0.467550    41A     -0.457275    42A     -0.444410
      43A     -0.344547

  @DF-RHF Final Energy:  -500.03788780786243

   => Energetics <=

    Nuclear Repulsion Energy =            603.0419216468776540
    One-Electron Energy =               -1876.2753082436779550
    Two-Electron Energy =                 773.1954987889378117
    Total Energy =                       -500.0378878078624894
  Basis Set: (AUG-CC-PVTZ AUX)
    Blend: AUG-CC-PVTZ-RI
    Molecular point group: c1

    Geometry (in Angstrom), charge = 0, multiplicity = 1:

       Center              X                  Y                   Z               Mass
    ------------   -----------------  -----------------  -----------------  -----------------
         O            1.071886196550     0.474934451558     0.012885607167    15.994914619570
         O            2.531372196550    -1.106241548442    -0.713207392833    15.994914619570
         C           -2.372249203450    -0.083717348442     0.309096407167    12.000000000000
         C           -3.597825803450     0.780572451558     0.405782607167    12.000000000000
         C           -1.262393803450     0.393847451558    -0.297428392833    12.000000000000
         C            0.008532196550    -0.331794548442    -0.563324392833    12.000000000000
         C           -2.512968803450    -1.474963548442     0.862093607167    12.000000000000
         C           -4.708834803450     0.354974451558    -0.560483392833    12.000000000000
         C            3.354827196550     0.873822451558     0.437197607167    12.000000000000
         C            2.312282196550    -0.045456548442    -0.149146392833    12.000000000000
         C            4.758302196550     0.303213451558     0.312666607167    12.000000000000
         H           -3.328858803450     1.823560451558     0.203789607167     1.007825032230
         H           -3.978737803450     0.745667451558     1.435142607167     1.007825032230
         H           -1.272827803450     1.424384451558    -0.651852392833     1.007825032230
         H            0.203301196550    -0.435831548442    -1.636668392833     1.007825032230
         H            0.047689196550    -1.331615548442    -0.126273392833     1.007825032230
         H           -2.794801203450    -1.406463848442     1.921224507167     1.007825032230
         H           -3.310428803450    -2.026230548442     0.349813607167     1.007825032230
         H           -1.600218803450    -2.068579548442     0.786403607167     1.007825032230
         H           -5.043398803450    -0.667181548442    -0.361491392833     1.007825032230
         H           -4.353335803450     0.400378451558    -1.593577392833     1.007825032230
         H           -5.577461803450     1.014300451558    -0.467822392833     1.007825032230
         H            3.268774196550     1.840305451558    -0.072218392833     1.007825032230
         H            3.087707196550     1.062353451558     1.481750607167     1.007825032230
         H            4.834202196550    -0.651938548442     0.834973607167     1.007825032230
         H            5.010657196550     0.128880451558    -0.735141392833     1.007825032230
         H            5.490777196550     0.993121451558     0.739590607167     1.007825032230

  Basis Set: AUG-CC-PVTZ
    Blend: AUG-CC-PVTZ
  Basis Set: (AUG-CC-PVTZ AUX)
    Blend: AUG-CC-PVTZ-JKFIT
	 Reference Energy          =    -500.0378878078624325 [Eh]
	 Singles Energy            =      -0.0000000000000000 [Eh]
	 Same-Spin Energy          =      -0.5098823642957273 [Eh]
	 Opposite-Spin Energy      =      -1.7170231408942496 [Eh]
	 Correlation Energy        =      -2.2269055051899769 [Eh]
	 Total Energy              =    -502.2647933130523938 [Eh]

	 ================> DF-SCS-MP2 Energies <==================
	-----------------------------------------------------------
	 SCS Same-Spin Scale       =       0.3333333333333333 [-]
	 SCS Opposite-Spin Scale   =       1.2000000000000000 [-]
	 SCS Same-Spin Energy      =      -0.1699607880985758 [Eh]
	 SCS Opposite-Spin Energy  =      -2.0604277690730992 [Eh]
	 SCS Correlation Energy    =      -2.2303885571716751 [Eh]
	 SCS Total Energy          =    -502.2682763650341258 [Eh]
	-----------------------------------------------------------

  Dipole Moment: [D]
     X:    -1.4596      Y:     1.1810      Z:     0.8226     Total:     2.0499

*** Psi4 exiting successfully. Buy a developer a beer!
