                               Psi4 1.3.2 release

  ==> Input File <==

--------------------------------------------------------------------------
#psi4
#
memory 32 gb

molecule  {
0 1
  O        1.0787847     0.4555181     0.0278614
  O        2.5311320    -1.1057930    -0.7123110
  C       -2.3693550    -0.0883010     0.2982860
  C       -3.5980660     0.7810210     0.4066790
  C       -1.2626340     0.3942960    -0.2965320
  C        0.0082920    -0.3313460    -0.5624280
  C       -2.5132090    -1.4745150     0.8629900
  C       -4.7090750     0.3554230    -0.5595870
  C        3.3545870     0.8742710     0.4380940
  C        2.3120420    -0.0450080    -0.1482500
  C        4.7580620     0.3036620     0.3135630
  H       -3.3290990     1.8240090     0.2046860
  H       -3.9789780     0.7461160     1.4360390
  H       -1.2730680     1.4248330    -0.6509560
  H        0.2030610    -0.4353830    -1.6357720
  H        0.0624051    -1.3258010    -0.1148569
  H       -2.7951440    -1.4155820     1.9226690
  H       -3.3106690    -2.0257820     0.3507100
  H       -1.6004590    -2.0681310     0.7873000
  H       -5.0436390    -0.6667330    -0.3605950
  H       -4.3535760     0.4008270    -1.5926810
  H       -5.5777020     1.0147490    -0.4669260
  H        3.2685340     1.8407540    -0.0713220
  H        3.0874670     1.0628020     1.4826470
  H        4.8339620    -0.6514900     0.8358700
  H        5.0104170     0.1293290    -0.7342450
  H        5.4905370     0.9935700     0.7404870
units angstrom
no_reorient  #important for SAPT in psi4, default
symmetry c1  #important for SAPT in psi4, default
}

set PROPERTIES_ORIGIN ["COM"]
properties('MP2/aug-cc-pvtz', properties = ['dipole'])
--------------------------------------------------------------------------

    Molecular point group: c1
  Charge       = 0
  Multiplicity = 1
  Basis Set: AUG-CC-PVTZ
    Blend: AUG-CC-PVTZ
  Basis Set: (AUG-CC-PVTZ AUX)
    Blend: AUG-CC-PVTZ-JKFIT

    Orbital Energies [Eh]
    ---------------------

    Doubly Occupied:

       1A    -20.596907     2A    -20.537973     3A    -11.373500
       4A    -11.287329     5A    -11.245146     6A    -11.241505
       7A    -11.228914     8A    -11.226708     9A    -11.224066
      10A    -11.219597    11A    -11.217318    12A     -1.451633
      13A     -1.346484    14A     -1.113183    15A     -1.063716
      16A     -1.022534    17A     -0.978790    18A     -0.920558
      19A     -0.878804    20A     -0.834265    21A     -0.767565
      22A     -0.723738    23A     -0.688193    24A     -0.681016
      25A     -0.660546    26A     -0.639109    27A     -0.624015
      28A     -0.605425    29A     -0.588211    30A     -0.574819
      31A     -0.552881    32A     -0.544875    33A     -0.534222
      34A     -0.522062    35A     -0.517094    36A     -0.514463
      37A     -0.510871    38A     -0.491834    39A     -0.484375
      40A     -0.466398    41A     -0.456285    42A     -0.443295
      43A     -0.346983

  @DF-RHF Final Energy:  -500.03914034293632

   => Energetics <=

    Nuclear Repulsion Energy =            603.3585611775855568
    One-Electron Energy =               -1876.9009925087018473
    Two-Electron Energy =                 773.5032909881800833
    Total Energy =                       -500.0391403429363208
  Basis Set: (AUG-CC-PVTZ AUX)
    Blend: AUG-CC-PVTZ-RI
    Molecular point group: c1

    Geometry (in Angstrom), charge = 0, multiplicity = 1:

       Center              X                  Y                   Z               Mass
    ------------   -----------------  -----------------  -----------------  -----------------
         O            1.077956675083     0.457518754243     0.026350895828    15.994914619570
         O            2.530303975083    -1.103792345757    -0.713821504172    15.994914619570
         C           -2.370183024917    -0.086300345757     0.296775495828    12.000000000000
         C           -3.598894024917     0.783021654243     0.405168495828    12.000000000000
         C           -1.263462024917     0.396296654243    -0.298042504172    12.000000000000
         C            0.007463975083    -0.329345345757    -0.563938504172    12.000000000000
         C           -2.514037024917    -1.472514345757     0.861479495828    12.000000000000
         C           -4.709903024917     0.357423654243    -0.561097504172    12.000000000000
         C            3.353758975083     0.876271654243     0.436583495828    12.000000000000
         C            2.311213975083    -0.043007345757    -0.149760504172    12.000000000000
         C            4.757233975083     0.305662654243     0.312052495828    12.000000000000
         H           -3.329927024917     1.826009654243     0.203175495828     1.007825032230
         H           -3.979806024917     0.748116654243     1.434528495828     1.007825032230
         H           -1.273896024917     1.426833654243    -0.652466504172     1.007825032230
         H            0.202232975083    -0.433382345757    -1.637282504172     1.007825032230
         H            0.061577075083    -1.323800345757    -0.116367404172     1.007825032230
         H           -2.795972024917    -1.413581345757     1.921158495828     1.007825032230
         H           -3.311497024917    -2.023781345757     0.349199495828     1.007825032230
         H           -1.601287024917    -2.066130345757     0.785789495828     1.007825032230
         H           -5.044467024917    -0.664732345757    -0.362105504172     1.007825032230
         H           -4.354404024917     0.402827654243    -1.594191504172     1.007825032230
         H           -5.578530024917     1.016749654243    -0.468436504172     1.007825032230
         H            3.267705975083     1.842754654243    -0.072832504172     1.007825032230
         H            3.086638975083     1.064802654243     1.481136495828     1.007825032230
         H            4.833133975083    -0.649489345757     0.834359495828     1.007825032230
         H            5.009588975083     0.131329654243    -0.735755504172     1.007825032230
         H            5.489708975083     0.995570654243     0.738976495828     1.007825032230

  Basis Set: AUG-CC-PVTZ
    Blend: AUG-CC-PVTZ
  Basis Set: (AUG-CC-PVTZ AUX)
    Blend: AUG-CC-PVTZ-JKFIT
	 Reference Energy          =    -500.0391403429363208 [Eh]
	 Singles Energy            =      -0.0000000000000000 [Eh]
	 Same-Spin Energy          =      -0.5095430206433998 [Eh]
	 Opposite-Spin Energy      =      -1.7162401168271264 [Eh]
	 Correlation Energy        =      -2.2257831374705264 [Eh]
	 Total Energy              =    -502.2649234804068215 [Eh]

	 ================> DF-SCS-MP2 Energies <==================
	-----------------------------------------------------------
	 SCS Same-Spin Scale       =       0.3333333333333333 [-]
	 SCS Opposite-Spin Scale   =       1.2000000000000000 [-]
	 SCS Same-Spin Energy      =      -0.1698476735477999 [Eh]
	 SCS Opposite-Spin Energy  =      -2.0594881401925518 [Eh]
	 SCS Correlation Energy    =      -2.2293358137403518 [Eh]
	 SCS Total Energy          =    -502.2684761566766838 [Eh]
	-----------------------------------------------------------

  Dipole Moment: [D]
     X:    -1.5454      Y:     1.2261      Z:     0.8271     Total:     2.1391

*** Psi4 exiting successfully. Buy a developer a beer!
