                               Psi4 1.3.2 release

  ==> Input File <==

--------------------------------------------------------------------------
#psi4
#
memory 32 gb

molecule  {
0 1
  O        1.0716460     0.4753830     0.0137820
  O        2.5311320    -1.1057930    -0.7123110
  C       -2.3693550    -0.0883010     0.2982860
  C       -3.5980660     0.7810210     0.4066790
  C       -1.2626340     0.3942960    -0.2965320
  C        0.0082920    -0.3313460    -0.5624280
  C       -2.5132090    -1.4745150     0.8629900
  C       -4.7090750     0.3554230    -0.5595870
  C        3.3545870     0.8742710     0.4380940
  C        2.3214984    -0.0535792    -0.1514780
  C        4.7531009     0.2929245     0.3075569
  H       -3.3290990     1.8240090     0.2046860
  H       -3.9789780     0.7461160     1.4360390
  H       -1.2730680     1.4248330    -0.6509560
  H        0.2030610    -0.4353830    -1.6357720
  H        0.0474490    -1.3311670    -0.1253770
  H       -2.7951440    -1.4155820     1.9226690
  H       -3.3106690    -2.0257820     0.3507100
  H       -1.6004590    -2.0681310     0.7873000
  H       -5.0436390    -0.6667330    -0.3605950
  H       -4.3535760     0.4008270    -1.5926810
  H       -5.5777020     1.0147490    -0.4669260
  H        3.2685340     1.8407540    -0.0713220
  H        3.0874670     1.0628020     1.4826470
  H        4.8339620    -0.6514900     0.8358700
  H        5.0104170     0.1293290    -0.7342450
  H        5.4905370     0.9935700     0.7404870
units angstrom
no_reorient  #important for SAPT in psi4, default
symmetry c1  #important for SAPT in psi4, default
}

set PROPERTIES_ORIGIN ["COM"]
properties('MP2/aug-cc-pvtz', properties = ['dipole'])
--------------------------------------------------------------------------

    Molecular point group: c1
  Charge       = 0
  Multiplicity = 1
  Basis Set: AUG-CC-PVTZ
    Blend: AUG-CC-PVTZ
  Basis Set: (AUG-CC-PVTZ AUX)
    Blend: AUG-CC-PVTZ-JKFIT

    Orbital Energies [Eh]
    ---------------------

    Doubly Occupied:

       1A    -20.594114     2A    -20.543604     3A    -11.375022
       4A    -11.285009     5A    -11.243391     6A    -11.242536
       7A    -11.227867     8A    -11.225845     9A    -11.222543
      10A    -11.218767    11A    -11.218285    12A     -1.446481
      13A     -1.351569    14A     -1.111625    15A     -1.064237
      16A     -1.020731    17A     -0.976797    18A     -0.918518
      19A     -0.878731    20A     -0.832641    21A     -0.765442
      22A     -0.722436    23A     -0.688499    24A     -0.678698
      25A     -0.660622    26A     -0.638943    27A     -0.623743
      28A     -0.605181    29A     -0.587824    30A     -0.573687
      31A     -0.552285    32A     -0.543409    33A     -0.534830
      34A     -0.522868    35A     -0.517309    36A     -0.513480
      37A     -0.511659    38A     -0.495075    39A     -0.483465
      40A     -0.465274    41A     -0.457793    42A     -0.445227
      43A     -0.345196

  @DF-RHF Final Energy:  -500.03827774751016

   => Energetics <=

    Nuclear Repulsion Energy =            603.1268067469995913
    One-Electron Energy =               -1876.4676544777876188
    Two-Electron Energy =                 773.3025699832778628
    Total Energy =                       -500.0382777475101648
  Basis Set: (AUG-CC-PVTZ AUX)
    Blend: AUG-CC-PVTZ-RI
    Molecular point group: c1

    Geometry (in Angstrom), charge = 0, multiplicity = 1:

       Center              X                  Y                   Z               Mass
    ------------   -----------------  -----------------  -----------------  -----------------
         O            1.071300391344     0.476867208194     0.014491720374    15.994914619570
         O            2.530786391344    -1.104308791806    -0.711601279626    15.994914619570
         C           -2.369700608656    -0.086816791806     0.298995720374    12.000000000000
         C           -3.598411608656     0.782505208194     0.407388720374    12.000000000000
         C           -1.262979608656     0.395780208194    -0.295822279626    12.000000000000
         C            0.007946391344    -0.329861791806    -0.561718279626    12.000000000000
         C           -2.513554608656    -1.473030791806     0.863699720374    12.000000000000
         C           -4.709420608656     0.356907208194    -0.558877279626    12.000000000000
         C            3.354241391344     0.875755208194     0.438803720374    12.000000000000
         C            2.321152791344    -0.052094991806    -0.150768279626    12.000000000000
         C            4.752755291344     0.294408708194     0.308266620374    12.000000000000
         H           -3.329444608656     1.825493208194     0.205395720374     1.007825032230
         H           -3.979323608656     0.747600208194     1.436748720374     1.007825032230
         H           -1.273413608656     1.426317208194    -0.650246279626     1.007825032230
         H            0.202715391344    -0.433898791806    -1.635062279626     1.007825032230
         H            0.047103391344    -1.329682791806    -0.124667279626     1.007825032230
         H           -2.795489608656    -1.414097791806     1.923378720374     1.007825032230
         H           -3.311014608656    -2.024297791806     0.351419720374     1.007825032230
         H           -1.600804608656    -2.066646791806     0.788009720374     1.007825032230
         H           -5.043984608656    -0.665248791806    -0.359885279626     1.007825032230
         H           -4.353921608656     0.402311208194    -1.591971279626     1.007825032230
         H           -5.578047608656     1.016233208194    -0.466216279626     1.007825032230
         H            3.268188391344     1.842238208194    -0.070612279626     1.007825032230
         H            3.087121391344     1.064286208194     1.483356720374     1.007825032230
         H            4.833616391344    -0.650005791806     0.836579720374     1.007825032230
         H            5.010071391344     0.130813208194    -0.733535279626     1.007825032230
         H            5.490191391344     0.995054208194     0.741196720374     1.007825032230

  Basis Set: AUG-CC-PVTZ
    Blend: AUG-CC-PVTZ
  Basis Set: (AUG-CC-PVTZ AUX)
    Blend: AUG-CC-PVTZ-JKFIT
	 Reference Energy          =    -500.0382777475101648 [Eh]
	 Singles Energy            =      -0.0000000000000000 [Eh]
	 Same-Spin Energy          =      -0.5096765137551409 [Eh]
	 Opposite-Spin Energy      =      -1.7167094460167149 [Eh]
	 Correlation Energy        =      -2.2263859597718558 [Eh]
	 Total Energy              =    -502.2646637072820113 [Eh]

	 ================> DF-SCS-MP2 Energies <==================
	-----------------------------------------------------------
	 SCS Same-Spin Scale       =       0.3333333333333333 [-]
	 SCS Opposite-Spin Scale   =       1.2000000000000000 [-]
	 SCS Same-Spin Energy      =      -0.1698921712517136 [Eh]
	 SCS Opposite-Spin Energy  =      -2.0600513352200580 [Eh]
	 SCS Correlation Energy    =      -2.2299435064717716 [Eh]
	 SCS Total Energy          =    -502.2682212539819488 [Eh]
	-----------------------------------------------------------

  Dipole Moment: [D]
     X:    -1.3252      Y:     1.1295      Z:     0.8088     Total:     1.9199

*** Psi4 exiting successfully. Buy a developer a beer!
