                               Psi4 1.3.2 release

  ==> Input File <==

--------------------------------------------------------------------------
#psi4
#
memory 32 gb

molecule  {
0 1
  O        1.0716460     0.4753830     0.0137820
  O        2.5311320    -1.1057930    -0.7123110
  C       -2.3693550    -0.0883010     0.2982860
  C       -3.5980660     0.7810210     0.4066790
  C       -1.2626340     0.3942960    -0.2965320
  C        0.0082920    -0.3313460    -0.5624280
  C       -2.5132090    -1.4745150     0.8629900
  C       -4.7090750     0.3554230    -0.5595870
  C        3.3545870     0.8742710     0.4380940
  C        2.3299819    -0.1318692    -0.1944375
  C        4.7580620     0.3036620     0.3135630
  H       -3.3290990     1.8240090     0.2046860
  H       -3.9789780     0.7461160     1.4360390
  H       -1.2730680     1.4248330    -0.6509560
  H        0.2030610    -0.4353830    -1.6357720
  H        0.0474490    -1.3311670    -0.1253770
  H       -2.7951440    -1.4155820     1.9226690
  H       -3.3106690    -2.0257820     0.3507100
  H       -1.6004590    -2.0681310     0.7873000
  H       -5.0436390    -0.6667330    -0.3605950
  H       -4.3535760     0.4008270    -1.5926810
  H       -5.5777020     1.0147490    -0.4669260
  H        3.2685340     1.8407540    -0.0713220
  H        3.0874670     1.0628020     1.4826470
  H        4.8339620    -0.6514900     0.8358700
  H        5.0104170     0.1293290    -0.7342450
  H        5.4905370     0.9935700     0.7404870
units angstrom
no_reorient  #important for SAPT in psi4, default
symmetry c1  #important for SAPT in psi4, default
}

set PROPERTIES_ORIGIN ["COM"]
properties('MP2/aug-cc-pvtz', properties = ['dipole'])
--------------------------------------------------------------------------

    Molecular point group: c1
  Charge       = 0
  Multiplicity = 1
  Basis Set: AUG-CC-PVTZ
    Blend: AUG-CC-PVTZ
  Basis Set: (AUG-CC-PVTZ AUX)
    Blend: AUG-CC-PVTZ-JKFIT

    Orbital Energies [Eh]
    ---------------------

    Doubly Occupied:

       1A    -20.581790     2A    -20.560613     3A    -11.368044
       4A    -11.279866     5A    -11.240274     6A    -11.239648
       7A    -11.225935     8A    -11.224168     9A    -11.220088
      10A    -11.217291    11A    -11.216317    12A     -1.483361
      13A     -1.368573    14A     -1.108422    15A     -1.052650
      16A     -1.016298    17A     -0.972270    18A     -0.911567
      19A     -0.869937    20A     -0.828390    21A     -0.762727
      22A     -0.725105    23A     -0.695655    24A     -0.679150
      25A     -0.672198    26A     -0.638320    27A     -0.623480
      28A     -0.601626    29A     -0.588728    30A     -0.572404
      31A     -0.559731    32A     -0.550567    33A     -0.540947
      34A     -0.524919    35A     -0.517272    36A     -0.512010
      37A     -0.511181    38A     -0.497998    39A     -0.482200
      40A     -0.465448    41A     -0.458097    42A     -0.435804
      43A     -0.341622

  @DF-RHF Final Energy:  -500.02537718784890

   => Energetics <=

    Nuclear Repulsion Energy =            603.4867706160765692
    One-Electron Energy =               -1877.1389144997010590
    Two-Electron Energy =                 773.6267666957754727
    Total Energy =                       -500.0253771878489033
  Basis Set: (AUG-CC-PVTZ AUX)
    Blend: AUG-CC-PVTZ-RI
    Molecular point group: c1

    Geometry (in Angstrom), charge = 0, multiplicity = 1:

       Center              X                  Y                   Z               Mass
    ------------   -----------------  -----------------  -----------------  -----------------
         O            1.070266953371     0.482059725540     0.017332195123    15.994914619570
         O            2.529752953371    -1.099116274460    -0.708760804877    15.994914619570
         C           -2.370734046629    -0.081624274460     0.301836195123    12.000000000000
         C           -3.599445046629     0.787697725540     0.410229195123    12.000000000000
         C           -1.264013046629     0.400972725540    -0.292981804877    12.000000000000
         C            0.006912953371    -0.324669274460    -0.558877804877    12.000000000000
         C           -2.514588046629    -1.467838274460     0.866540195123    12.000000000000
         C           -4.710454046629     0.362099725540    -0.556036804877    12.000000000000
         C            3.353207953371     0.880947725540     0.441644195123    12.000000000000
         C            2.328602853371    -0.125192474460    -0.190887304877    12.000000000000
         C            4.756682953371     0.310338725540     0.317113195123    12.000000000000
         H           -3.330478046629     1.830685725540     0.208236195123     1.007825032230
         H           -3.980357046629     0.752792725540     1.439589195123     1.007825032230
         H           -1.274447046629     1.431509725540    -0.647405804877     1.007825032230
         H            0.201681953371    -0.428706274460    -1.632221804877     1.007825032230
         H            0.046069953371    -1.324490274460    -0.121826804877     1.007825032230
         H           -2.796523046629    -1.408905274460     1.926219195123     1.007825032230
         H           -3.312048046629    -2.019105274460     0.354260195123     1.007825032230
         H           -1.601838046629    -2.061454274460     0.790850195123     1.007825032230
         H           -5.045018046629    -0.660056274460    -0.357044804877     1.007825032230
         H           -4.354955046629     0.407503725540    -1.589130804877     1.007825032230
         H           -5.579081046629     1.021425725540    -0.463375804877     1.007825032230
         H            3.267154953371     1.847430725540    -0.067771804877     1.007825032230
         H            3.086087953371     1.069478725540     1.486197195123     1.007825032230
         H            4.832582953371    -0.644813274460     0.839420195123     1.007825032230
         H            5.009037953371     0.136005725540    -0.730694804877     1.007825032230
         H            5.489157953371     1.000246725540     0.744037195123     1.007825032230

  Basis Set: AUG-CC-PVTZ
    Blend: AUG-CC-PVTZ
  Basis Set: (AUG-CC-PVTZ AUX)
    Blend: AUG-CC-PVTZ-JKFIT
	 Reference Energy          =    -500.0253771878489033 [Eh]
	 Singles Energy            =      -0.0000000000000000 [Eh]
	 Same-Spin Energy          =      -0.5082649487829236 [Eh]
	 Opposite-Spin Energy      =      -1.7142696712276326 [Eh]
	 Correlation Energy        =      -2.2225346200105562 [Eh]
	 Total Energy              =    -502.2479118078594524 [Eh]

	 ================> DF-SCS-MP2 Energies <==================
	-----------------------------------------------------------
	 SCS Same-Spin Scale       =       0.3333333333333333 [-]
	 SCS Opposite-Spin Scale   =       1.2000000000000000 [-]
	 SCS Same-Spin Energy      =      -0.1694216495943079 [Eh]
	 SCS Opposite-Spin Energy  =      -2.0571236054731590 [Eh]
	 SCS Correlation Energy    =      -2.2265452550674669 [Eh]
	 SCS Total Energy          =    -502.2519224429163955 [Eh]
	-----------------------------------------------------------

  Dipole Moment: [D]
     X:    -0.9775      Y:     0.6646      Z:     0.5598     Total:     1.3079

*** Psi4 exiting successfully. Buy a developer a beer!
