                               Psi4 1.3.2 release

  ==> Input File <==

--------------------------------------------------------------------------
#psi4
#
memory 32 gb

molecule  {
0 1
  O        1.0716460     0.4753830     0.0137820
  O        2.5311320    -1.1057930    -0.7123110
  C       -2.3693550    -0.0883010     0.2982860
  C       -3.5980660     0.7810210     0.4066790
  C       -1.2626340     0.3942960    -0.2965320
  C        0.0082920    -0.3313460    -0.5624280
  C       -2.5132090    -1.4745150     0.8629900
  C       -4.7090750     0.3554230    -0.5595870
  C        3.3545870     0.8742710     0.4380940
  C        2.2761621     0.1287144    -0.0558750
  C        4.7580620     0.3036620     0.3135630
  H       -3.3290990     1.8240090     0.2046860
  H       -3.9789780     0.7461160     1.4360390
  H       -1.2730680     1.4248330    -0.6509560
  H        0.2030610    -0.4353830    -1.6357720
  H        0.0474490    -1.3311670    -0.1253770
  H       -2.7951440    -1.4155820     1.9226690
  H       -3.3106690    -2.0257820     0.3507100
  H       -1.6004590    -2.0681310     0.7873000
  H       -5.0436390    -0.6667330    -0.3605950
  H       -4.3535760     0.4008270    -1.5926810
  H       -5.5777020     1.0147490    -0.4669260
  H        3.2685340     1.8407540    -0.0713220
  H        3.0874670     1.0628020     1.4826470
  H        4.8339620    -0.6514900     0.8358700
  H        5.0104170     0.1293290    -0.7342450
  H        5.4905370     0.9935700     0.7404870
units angstrom
no_reorient  #important for SAPT in psi4, default
symmetry c1  #important for SAPT in psi4, default
}

set PROPERTIES_ORIGIN ["COM"]
properties('MP2/aug-cc-pvtz', properties = ['dipole'])
--------------------------------------------------------------------------

    Molecular point group: c1
  Charge       = 0
  Multiplicity = 1
  Basis Set: AUG-CC-PVTZ
    Blend: AUG-CC-PVTZ
  Basis Set: (AUG-CC-PVTZ AUX)
    Blend: AUG-CC-PVTZ-JKFIT

    Orbital Energies [Eh]
    ---------------------

    Doubly Occupied:

       1A    -20.623436     2A    -20.497932     3A    -11.383788
       4A    -11.299489     5A    -11.251378     6A    -11.246413
       7A    -11.232909     8A    -11.230443     9A    -11.229060
      10A    -11.222673    11A    -11.221547    12A     -1.485547
      13A     -1.233556    14A     -1.120709    15A     -1.087499
      16A     -1.035004    17A     -0.988398    18A     -0.934210
      19A     -0.897909    20A     -0.845121    21A     -0.782726
      22A     -0.729522    23A     -0.697272    24A     -0.686555
      25A     -0.661971    26A     -0.647377    27A     -0.624458
      28A     -0.613149    29A     -0.583974    30A     -0.573308
      31A     -0.553960    32A     -0.549017    33A     -0.535395
      34A     -0.533546    35A     -0.520257    36A     -0.517013
      37A     -0.494681    38A     -0.488463    39A     -0.478944
      40A     -0.469094    41A     -0.410663    42A     -0.400950
      43A     -0.353426

  @DF-RHF Final Energy:  -499.97418739231478

   => Energetics <=

    Nuclear Repulsion Energy =            602.8824603665653967
    One-Electron Energy =               -1875.7678140766849992
    Two-Electron Energy =                 772.9111663178047138
    Total Energy =                       -499.9741873923147750
  Basis Set: (AUG-CC-PVTZ AUX)
    Blend: AUG-CC-PVTZ-RI
    Molecular point group: c1

    Geometry (in Angstrom), charge = 0, multiplicity = 1:

       Center              X                  Y                   Z               Mass
    ------------   -----------------  -----------------  -----------------  -----------------
         O            1.074403887534     0.462029602848     0.006681394860    15.994914619570
         O            2.533889887534    -1.119146397152    -0.719411605140    15.994914619570
         C           -2.366597112466    -0.101654397152     0.291185394860    12.000000000000
         C           -3.595308112466     0.767667602848     0.399578394860    12.000000000000
         C           -1.259876112466     0.380942602848    -0.303632605140    12.000000000000
         C            0.011049887534    -0.344699397152    -0.569528605140    12.000000000000
         C           -2.510451112466    -1.487868397152     0.855889394860    12.000000000000
         C           -4.706317112466     0.342069602848    -0.566687605140    12.000000000000
         C            3.357344887534     0.860917602848     0.430993394860    12.000000000000
         C            2.278919987534     0.115361002848    -0.062975605140    12.000000000000
         C            4.760819887534     0.290308602848     0.306462394860    12.000000000000
         H           -3.326341112466     1.810655602848     0.197585394860     1.007825032230
         H           -3.976220112466     0.732762602848     1.428938394860     1.007825032230
         H           -1.270310112466     1.411479602848    -0.658056605140     1.007825032230
         H            0.205818887534    -0.448736397152    -1.642872605140     1.007825032230
         H            0.050206887534    -1.344520397152    -0.132477605140     1.007825032230
         H           -2.792386112466    -1.428935397152     1.915568394860     1.007825032230
         H           -3.307911112466    -2.039135397152     0.343609394860     1.007825032230
         H           -1.597701112466    -2.081484397152     0.780199394860     1.007825032230
         H           -5.040881112466    -0.680086397152    -0.367695605140     1.007825032230
         H           -4.350818112466     0.387473602848    -1.599781605140     1.007825032230
         H           -5.574944112466     1.001395602848    -0.474026605140     1.007825032230
         H            3.271291887534     1.827400602848    -0.078422605140     1.007825032230
         H            3.090224887534     1.049448602848     1.475546394860     1.007825032230
         H            4.836719887534    -0.664843397152     0.828769394860     1.007825032230
         H            5.013174887534     0.115975602848    -0.741345605140     1.007825032230
         H            5.493294887534     0.980216602848     0.733386394860     1.007825032230

  Basis Set: AUG-CC-PVTZ
    Blend: AUG-CC-PVTZ
  Basis Set: (AUG-CC-PVTZ AUX)
    Blend: AUG-CC-PVTZ-JKFIT
	 Reference Energy          =    -499.9741873923147750 [Eh]
	 Singles Energy            =      -0.0000000000000000 [Eh]
	 Same-Spin Energy          =      -0.5137001755485244 [Eh]
	 Opposite-Spin Energy      =      -1.7236736750975523 [Eh]
	 Correlation Energy        =      -2.2373738506460770 [Eh]
	 Total Energy              =    -502.2115612429608404 [Eh]

	 ================> DF-SCS-MP2 Energies <==================
	-----------------------------------------------------------
	 SCS Same-Spin Scale       =       0.3333333333333333 [-]
	 SCS Opposite-Spin Scale   =       1.2000000000000000 [-]
	 SCS Same-Spin Energy      =      -0.1712333918495081 [Eh]
	 SCS Opposite-Spin Energy  =      -2.0684084101170628 [Eh]
	 SCS Correlation Energy    =      -2.2396418019665711 [Eh]
	 SCS Total Energy          =    -502.2138291942813453 [Eh]
	-----------------------------------------------------------

  Dipole Moment: [D]
     X:    -2.2642      Y:     2.0803      Z:     1.3036     Total:     3.3397

*** Psi4 exiting successfully. Buy a developer a beer!
