                               Psi4 1.3.2 release

  ==> Input File <==

--------------------------------------------------------------------------
#psi4
#
memory 32 gb

molecule  {
0 1
  O        1.0563991     0.5143697    -0.0148991
  O        2.5311320    -1.1057930    -0.7123110
  C       -2.3693550    -0.0883010     0.2982860
  C       -3.5980660     0.7810210     0.4066790
  C       -1.2626340     0.3942960    -0.2965320
  C        0.0082920    -0.3313460    -0.5624280
  C       -2.5132090    -1.4745150     0.8629900
  C       -4.7090750     0.3554230    -0.5595870
  C        3.3545870     0.8742710     0.4380940
  C        2.3120420    -0.0450080    -0.1482500
  C        4.7580620     0.3036620     0.3135630
  H       -3.3290990     1.8240090     0.2046860
  H       -3.9789780     0.7461160     1.4360390
  H       -1.2730680     1.4248330    -0.6509560
  H        0.2030610    -0.4353830    -1.6357720
  H        0.0175055    -1.3409838    -0.1468133
  H       -2.7951440    -1.4155820     1.9226690
  H       -3.3106690    -2.0257820     0.3507100
  H       -1.6004590    -2.0681310     0.7873000
  H       -5.0436390    -0.6667330    -0.3605950
  H       -4.3535760     0.4008270    -1.5926810
  H       -5.5777020     1.0147490    -0.4669260
  H        3.2685340     1.8407540    -0.0713220
  H        3.0874670     1.0628020     1.4826470
  H        4.8339620    -0.6514900     0.8358700
  H        5.0104170     0.1293290    -0.7342450
  H        5.4905370     0.9935700     0.7404870
units angstrom
no_reorient  #important for SAPT in psi4, default
symmetry c1  #important for SAPT in psi4, default
}

set PROPERTIES_ORIGIN ["COM"]
properties('MP2/aug-cc-pvtz', properties = ['dipole'])
--------------------------------------------------------------------------

    Molecular point group: c1
  Charge       = 0
  Multiplicity = 1
  Basis Set: AUG-CC-PVTZ
    Blend: AUG-CC-PVTZ
  Basis Set: (AUG-CC-PVTZ AUX)
    Blend: AUG-CC-PVTZ-JKFIT

    Orbital Energies [Eh]
    ---------------------

    Doubly Occupied:

       1A    -20.597860     2A    -20.546442     3A    -11.379663
       4A    -11.284793     5A    -11.243718     6A    -11.242448
       7A    -11.227400     8A    -11.225757     9A    -11.221675
      10A    -11.219049    11A    -11.218412    12A     -1.441426
      13A     -1.349410    14A     -1.111097    15A     -1.064428
      16A     -1.020247    17A     -0.976239    18A     -0.917882
      19A     -0.879879    20A     -0.832086    21A     -0.766977
      22A     -0.721016    23A     -0.686927    24A     -0.677881
      25A     -0.659364    26A     -0.637638    27A     -0.623157
      28A     -0.604584    29A     -0.587697    30A     -0.573630
      31A     -0.552823    32A     -0.543941    33A     -0.532891
      34A     -0.523051    35A     -0.519410    36A     -0.515229
      37A     -0.511907    38A     -0.493230    39A     -0.483009
      40A     -0.464252    41A     -0.458778    42A     -0.446401
      43A     -0.344257

  @DF-RHF Final Energy:  -500.03483416916333

   => Energetics <=

    Nuclear Repulsion Energy =            602.5066701885092471
    One-Electron Energy =               -1875.2270881737238142
    Two-Electron Energy =                 772.6855838160513485
    Total Energy =                       -500.0348341691633323
  Basis Set: (AUG-CC-PVTZ AUX)
    Blend: AUG-CC-PVTZ-RI
    Molecular point group: c1

    Geometry (in Angstrom), charge = 0, multiplicity = 1:

       Center              X                  Y                   Z               Mass
    ------------   -----------------  -----------------  -----------------  -----------------
         O            1.058154469534     0.510438672247    -0.011822236718    15.994914619570
         O            2.532887369534    -1.109724027753    -0.709234136718    15.994914619570
         C           -2.367599630466    -0.092232027753     0.301362863282    12.000000000000
         C           -3.596310630466     0.777089972247     0.409755863282    12.000000000000
         C           -1.260878630466     0.390364972247    -0.293455136718    12.000000000000
         C            0.010047369534    -0.335277027753    -0.559351136718    12.000000000000
         C           -2.511453630466    -1.478446027753     0.866066863282    12.000000000000
         C           -4.707319630466     0.351491972247    -0.556510136718    12.000000000000
         C            3.356342369534     0.870339972247     0.441170863282    12.000000000000
         C            2.313797369534    -0.048939027753    -0.145173136718    12.000000000000
         C            4.759817369534     0.299730972247     0.316639863282    12.000000000000
         H           -3.327343630466     1.820077972247     0.207762863282     1.007825032230
         H           -3.977222630466     0.742184972247     1.439115863282     1.007825032230
         H           -1.271312630466     1.420901972247    -0.647879136718     1.007825032230
         H            0.204816369534    -0.439314027753    -1.632695136718     1.007825032230
         H            0.019260869534    -1.344914827753    -0.143736436718     1.007825032230
         H           -2.793388630466    -1.419513027753     1.925745863282     1.007825032230
         H           -3.308913630466    -2.029713027753     0.353786863282     1.007825032230
         H           -1.598703630466    -2.072062027753     0.790376863282     1.007825032230
         H           -5.041883630466    -0.670664027753    -0.357518136718     1.007825032230
         H           -4.351820630466     0.396895972247    -1.589604136718     1.007825032230
         H           -5.575946630466     1.010817972247    -0.463849136718     1.007825032230
         H            3.270289369534     1.836822972247    -0.068245136718     1.007825032230
         H            3.089222369534     1.058870972247     1.485723863282     1.007825032230
         H            4.835717369534    -0.655421027753     0.838946863282     1.007825032230
         H            5.012172369534     0.125397972247    -0.731168136718     1.007825032230
         H            5.492292369534     0.989638972247     0.743563863282     1.007825032230

  Basis Set: AUG-CC-PVTZ
    Blend: AUG-CC-PVTZ
  Basis Set: (AUG-CC-PVTZ AUX)
    Blend: AUG-CC-PVTZ-JKFIT
	 Reference Energy          =    -500.0348341691633323 [Eh]
	 Singles Energy            =      -0.0000000000000000 [Eh]
	 Same-Spin Energy          =      -0.5102628483899031 [Eh]
	 Opposite-Spin Energy      =      -1.7181604549639093 [Eh]
	 Correlation Energy        =      -2.2284233033538126 [Eh]
	 Total Energy              =    -502.2632574725171253 [Eh]

	 ================> DF-SCS-MP2 Energies <==================
	-----------------------------------------------------------
	 SCS Same-Spin Scale       =       0.3333333333333333 [-]
	 SCS Opposite-Spin Scale   =       1.2000000000000000 [-]
	 SCS Same-Spin Energy      =      -0.1700876161299677 [Eh]
	 SCS Opposite-Spin Energy  =      -2.0617925459566910 [Eh]
	 SCS Correlation Energy    =      -2.2318801620866586 [Eh]
	 SCS Total Energy          =    -502.2667143312500002 [Eh]
	-----------------------------------------------------------

  Dipole Moment: [D]
     X:    -1.2385      Y:     1.0940      Z:     0.8446     Total:     1.8558

*** Psi4 exiting successfully. Buy a developer a beer!
