                               Psi4 1.4a3.dev225

  ==> Input File <==

--------------------------------------------------------------------------
#psi4
#
memory 32 gb

molecule  {
0 1
  O       -1.1411000    -0.4541930    -0.0251880
  O       -2.5814580     1.1752260    -0.6867450
  C        2.3134570     0.0186930     0.2462000
  C        3.5222300    -0.8802230     0.3222130
  C        1.1937340    -0.4134970    -0.3651820
  C       -0.0647290     0.3542590    -0.5783780
  C        2.4850690     1.3863280     0.8546590
  C        4.7190700    -0.3405130    -0.4677320
  C       -3.4286640    -0.8122060     0.4327630
  C       -2.3931275     0.1019689    -0.1603588
  C       -4.8282690    -0.2261570     0.3119590
  H        3.2581340    -1.8761120    -0.0507320
  H        3.8122360    -1.0018650     1.3748590
  H        1.1815530    -1.4238220    -0.7735790
  H       -0.2705280     0.5138520    -1.6430550
  H       -0.0714200     1.3330110    -0.0949940
  H        3.0182560     1.3061200     1.8081990
  H        3.0814560     2.0379150     0.2067330
  H        1.5342700     1.8877430     1.0433380
  H        5.0646870     0.6170420    -0.0694620
  H        4.4484560    -0.1949880    -1.5176090
  H        5.5583810    -1.0408350    -0.4253590
  H       -3.3536290    -1.7820470    -0.0715700
  H       -3.1585900    -0.9983310     1.4781360
  H       -4.8922970     0.7333770     0.8287030
  H       -5.0879650    -0.0561110    -0.7346540
  H       -5.5642940    -0.9066400     0.7478690
units angstrom
no_reorient  #important for SAPT in psi4, default
symmetry c1  #important for SAPT in psi4, default
}

set PROPERTIES_ORIGIN ["COM"]
properties('MP2/aug-cc-pvtz', properties = ['dipole'])
--------------------------------------------------------------------------

    Molecular point group: c1
  Charge       = 0
  Multiplicity = 1
  Basis Set: AUG-CC-PVTZ
    Blend: AUG-CC-PVTZ
  Basis Set: (AUG-CC-PVTZ AUX)
    Blend: AUG-CC-PVTZ-JKFIT

    Orbital Energies [Eh]
    ---------------------

    Doubly Occupied:

       1A    -20.592317     2A    -20.544674     3A    -11.375986
       4A    -11.284571     5A    -11.243484     6A    -11.243189
       7A    -11.227751     8A    -11.225258     9A    -11.222316
      10A    -11.219253    11A    -11.218601    12A     -1.443427
      13A     -1.350246    14A     -1.110803    15A     -1.064958
      16A     -1.020357    17A     -0.975230    18A     -0.919051
      19A     -0.880069    20A     -0.831446    21A     -0.763455
      22A     -0.722043    23A     -0.688898    24A     -0.677014
      25A     -0.659692    26A     -0.638417    27A     -0.624122
      28A     -0.603636    29A     -0.589583    30A     -0.571020
      31A     -0.552950    32A     -0.544671    33A     -0.533716
      34A     -0.522268    35A     -0.519285    36A     -0.512816
      37A     -0.512235    38A     -0.494041    39A     -0.483858
      40A     -0.465138    41A     -0.456855    42A     -0.446025
      43A     -0.344690

  @DF-RHF Final Energy:  -500.03809028415367

   => Energetics <=

    Nuclear Repulsion Energy =            602.3956782530799501
    One-Electron Energy =               -1875.0287103992950506
    Two-Electron Energy =                 772.5949418620614324
    Total Energy =                       -500.0380902841536681
  Basis Set: (AUG-CC-PVTZ AUX)
    Blend: AUG-CC-PVTZ-RI
    Molecular point group: c1

    Geometry (in Angstrom), charge = 0, multiplicity = 1:

       Center              X                  Y                   Z               Mass
    ------------   -----------------  -----------------  -----------------  -----------------
         O           -1.085429042247    -0.460203571595    -0.011670530252    15.994914619570
         O           -2.525787042247     1.169215428405    -0.673227530252    15.994914619570
         C            2.369127957753     0.012682428405     0.259717469748    12.000000000000
         C            3.577900957753    -0.886233571595     0.335730469748    12.000000000000
         C            1.249404957753    -0.419507571595    -0.351664530252    12.000000000000
         C           -0.009058042247     0.348248428405    -0.564860530252    12.000000000000
         C            2.540739957753     1.380317428405     0.868176469748    12.000000000000
         C            4.774740957753    -0.346523571595    -0.454214530252    12.000000000000
         C           -3.372993042247    -0.818216571595     0.446280469748    12.000000000000
         C           -2.337456542247     0.095958328405    -0.146841330252    12.000000000000
         C           -4.772598042247    -0.232167571595     0.325476469748    12.000000000000
         H            3.313804957753    -1.882122571595    -0.037214530252     1.007825032230
         H            3.867906957753    -1.007875571595     1.388376469748     1.007825032230
         H            1.237223957753    -1.429832571595    -0.760061530252     1.007825032230
         H           -0.214857042247     0.507841428405    -1.629537530252     1.007825032230
         H           -0.015749042247     1.327000428405    -0.081476530252     1.007825032230
         H            3.073926957753     1.300109428405     1.821716469748     1.007825032230
         H            3.137126957753     2.031904428405     0.220250469748     1.007825032230
         H            1.589940957753     1.881732428405     1.056855469748     1.007825032230
         H            5.120357957753     0.611031428405    -0.055944530252     1.007825032230
         H            4.504126957753    -0.200998571595    -1.504091530252     1.007825032230
         H            5.614051957753    -1.046845571595    -0.411841530252     1.007825032230
         H           -3.297958042247    -1.788057571595    -0.058052530252     1.007825032230
         H           -3.102919042247    -1.004341571595     1.491653469748     1.007825032230
         H           -4.836626042247     0.727366428405     0.842220469748     1.007825032230
         H           -5.032294042247    -0.062121571595    -0.721136530252     1.007825032230
         H           -5.508623042247    -0.912650571595     0.761386469748     1.007825032230

  Basis Set: AUG-CC-PVTZ
    Blend: AUG-CC-PVTZ
  Basis Set: (AUG-CC-PVTZ AUX)
    Blend: AUG-CC-PVTZ-JKFIT
	 Reference Energy          =    -500.0380902841536681 [Eh]
	 Singles Energy            =      -0.0000000000000000 [Eh]
	 Same-Spin Energy          =      -0.5097059317956343 [Eh]
	 Opposite-Spin Energy      =      -1.7169977749546961 [Eh]
	 Correlation Energy        =      -2.2267037067503304 [Eh]
	 Total Energy              =    -502.2647939909040247 [Eh]

	 ================> DF-SCS-MP2 Energies <==================
	-----------------------------------------------------------
	 SCS Same-Spin Scale       =       0.3333333333333333 [-]
	 SCS Opposite-Spin Scale   =       1.2000000000000000 [-]
	 SCS Same-Spin Energy      =      -0.1699019772652114 [Eh]
	 SCS Opposite-Spin Energy  =      -2.0603973299456353 [Eh]
	 SCS Correlation Energy    =      -2.2302993072108466 [Eh]
	 SCS Total Energy          =    -502.2683895913644960 [Eh]
	-----------------------------------------------------------

  Dipole Moment: [D]
     X:     1.2340      Y:    -1.1481      Z:     0.7863     Total:     1.8599

*** Psi4 exiting successfully. Buy a developer a beer!
