                               Psi4 1.3.2 release

  ==> Input File <==

--------------------------------------------------------------------------
#psi4
#
memory 32 gb

molecule  {
0 1
  O        1.0716460     0.4753830     0.0137820
  O        2.5311320    -1.1057930    -0.7123110
  C       -2.3993474    -0.0251384     0.2895543
  C       -3.5980660     0.7810210     0.4066790
  C       -1.2626340     0.3942960    -0.2965320
  C        0.0363121    -0.2662585    -0.5947208
  C       -2.5132090    -1.4745150     0.8629900
  C       -4.7090750     0.3554230    -0.5595870
  C        3.3545870     0.8742710     0.4380940
  C        2.3120420    -0.0450080    -0.1482500
  C        4.7580620     0.3036620     0.3135630
  H       -3.3290990     1.8240090     0.2046860
  H       -3.9789780     0.7461160     1.4360390
  H       -1.2730680     1.4248330    -0.6509560
  H        0.2030610    -0.4353830    -1.6357720
  H        0.0474490    -1.3311670    -0.1253770
  H       -2.7951440    -1.4155820     1.9226690
  H       -3.3106690    -2.0257820     0.3507100
  H       -1.6004590    -2.0681310     0.7873000
  H       -5.0436390    -0.6667330    -0.3605950
  H       -4.3535760     0.4008270    -1.5926810
  H       -5.5777020     1.0147490    -0.4669260
  H        3.2685340     1.8407540    -0.0713220
  H        3.0874670     1.0628020     1.4826470
  H        4.8339620    -0.6514900     0.8358700
  H        5.0104170     0.1293290    -0.7342450
  H        5.4905370     0.9935700     0.7404870
units angstrom
no_reorient  #important for SAPT in psi4, default
symmetry c1  #important for SAPT in psi4, default
}

set PROPERTIES_ORIGIN ["COM"]
properties('MP2/aug-cc-pvtz', properties = ['dipole'])
--------------------------------------------------------------------------

    Molecular point group: c1
  Charge       = 0
  Multiplicity = 1
  Basis Set: AUG-CC-PVTZ
    Blend: AUG-CC-PVTZ
  Basis Set: (AUG-CC-PVTZ AUX)
    Blend: AUG-CC-PVTZ-JKFIT

    Orbital Energies [Eh]
    ---------------------

    Doubly Occupied:

       1A    -20.602626     2A    -20.544203     3A    -11.379244
       4A    -11.289250     5A    -11.245051     6A    -11.244462
       7A    -11.226129     8A    -11.225332     9A    -11.222293
      10A    -11.220314    11A    -11.219431    12A     -1.459065
      13A     -1.354867    14A     -1.113901    15A     -1.067438
      16A     -1.022985    17A     -0.971551    18A     -0.920592
      19A     -0.883095    20A     -0.838163    21A     -0.773297
      22A     -0.722324    23A     -0.692428    24A     -0.683216
      25A     -0.665206    26A     -0.638444    27A     -0.628031
      28A     -0.607116    29A     -0.588907    30A     -0.572028
      31A     -0.548056    32A     -0.546839    33A     -0.531718
      34A     -0.522595    35A     -0.520154    36A     -0.515888
      37A     -0.508749    38A     -0.493359    39A     -0.484559
      40A     -0.463719    41A     -0.451559    42A     -0.443877
      43A     -0.346033

  @DF-RHF Final Energy:  -500.02698257612553

   => Energetics <=

    Nuclear Repulsion Energy =            603.3969876744341718
    One-Electron Energy =               -1876.8517437023404000
    Two-Electron Energy =                 773.4277734517805811
    Total Energy =                       -500.0269825761255333
  Basis Set: (AUG-CC-PVTZ AUX)
    Blend: AUG-CC-PVTZ-RI
    Molecular point group: c1

    Geometry (in Angstrom), charge = 0, multiplicity = 1:

       Center              X                  Y                   Z               Mass
    ------------   -----------------  -----------------  -----------------  -----------------
         O            1.071797532459     0.465524894755     0.016935333911    15.994914619570
         O            2.531283532459    -1.115651105245    -0.709157666089    15.994914619570
         C           -2.399195867541    -0.034996505245     0.292707633911    12.000000000000
         C           -3.597914467541     0.771162894755     0.409832333911    12.000000000000
         C           -1.262482467541     0.384437894755    -0.293378666089    12.000000000000
         C            0.036463632459    -0.276116605245    -0.591567466089    12.000000000000
         C           -2.513057467541    -1.484373105245     0.866143333911    12.000000000000
         C           -4.708923467541     0.345564894755    -0.556433666089    12.000000000000
         C            3.354738532459     0.864412894755     0.441247333911    12.000000000000
         C            2.312193532459    -0.054866105245    -0.145096666089    12.000000000000
         C            4.758213532459     0.293803894755     0.316716333911    12.000000000000
         H           -3.328947467541     1.814150894755     0.207839333911     1.007825032230
         H           -3.978826467541     0.736257894755     1.439192333911     1.007825032230
         H           -1.272916467541     1.414974894755    -0.647802666089     1.007825032230
         H            0.203212532459    -0.445241105245    -1.632618666089     1.007825032230
         H            0.047600532459    -1.341025105245    -0.122223666089     1.007825032230
         H           -2.794992467541    -1.425440105245     1.925822333911     1.007825032230
         H           -3.310517467541    -2.035640105245     0.353863333911     1.007825032230
         H           -1.600307467541    -2.077989105245     0.790453333911     1.007825032230
         H           -5.043487467541    -0.676591105245    -0.357441666089     1.007825032230
         H           -4.353424467541     0.390968894755    -1.589527666089     1.007825032230
         H           -5.577550467541     1.004890894755    -0.463772666089     1.007825032230
         H            3.268685532459     1.830895894755    -0.068168666089     1.007825032230
         H            3.087618532459     1.052943894755     1.485800333911     1.007825032230
         H            4.834113532459    -0.661348105245     0.839023333911     1.007825032230
         H            5.010568532459     0.119470894755    -0.731091666089     1.007825032230
         H            5.490688532459     0.983711894755     0.743640333911     1.007825032230

  Basis Set: AUG-CC-PVTZ
    Blend: AUG-CC-PVTZ
  Basis Set: (AUG-CC-PVTZ AUX)
    Blend: AUG-CC-PVTZ-JKFIT
	 Reference Energy          =    -500.0269825761255333 [Eh]
	 Singles Energy            =      -0.0000000000000000 [Eh]
	 Same-Spin Energy          =      -0.5101582179269338 [Eh]
	 Opposite-Spin Energy      =      -1.7173168094954880 [Eh]
	 Correlation Energy        =      -2.2274750274224218 [Eh]
	 Total Energy              =    -502.2544576035479622 [Eh]

	 ================> DF-SCS-MP2 Energies <==================
	-----------------------------------------------------------
	 SCS Same-Spin Scale       =       0.3333333333333333 [-]
	 SCS Opposite-Spin Scale   =       1.2000000000000000 [-]
	 SCS Same-Spin Energy      =      -0.1700527393089779 [Eh]
	 SCS Opposite-Spin Energy  =      -2.0607801713945855 [Eh]
	 SCS Correlation Energy    =      -2.2308329107035636 [Eh]
	 SCS Total Energy          =    -502.2578154868290881 [Eh]
	-----------------------------------------------------------

  Dipole Moment: [D]
     X:    -1.2757      Y:     1.3368      Z:     0.7758     Total:     2.0041

*** Psi4 exiting successfully. Buy a developer a beer!
