                               Psi4 1.3.2 release

  ==> Input File <==

--------------------------------------------------------------------------
#psi4
#
memory 32 gb

molecule  {
0 1
  O        1.0716460     0.4753830     0.0137820
  O        2.5311320    -1.1057930    -0.7123110
  C       -2.3693550    -0.0883010     0.2982860
  C       -3.5980660     0.7810210     0.4066790
  C       -1.2626340     0.3942960    -0.2965320
  C        0.0082920    -0.3313460    -0.5624280
  C       -2.5132090    -1.4745150     0.8629900
  C       -4.7090750     0.3554230    -0.5595870
  C        3.3545870     0.8742710     0.4380940
  C        2.2204903    -0.0065988    -0.1362907
  C        4.7580620     0.3036620     0.3135630
  H       -3.3290990     1.8240090     0.2046860
  H       -3.9789780     0.7461160     1.4360390
  H       -1.2730680     1.4248330    -0.6509560
  H        0.2030610    -0.4353830    -1.6357720
  H        0.0474490    -1.3311670    -0.1253770
  H       -2.7951440    -1.4155820     1.9226690
  H       -3.3106690    -2.0257820     0.3507100
  H       -1.6004590    -2.0681310     0.7873000
  H       -5.0436390    -0.6667330    -0.3605950
  H       -4.3535760     0.4008270    -1.5926810
  H       -5.5777020     1.0147490    -0.4669260
  H        3.2685340     1.8407540    -0.0713220
  H        3.0874670     1.0628020     1.4826470
  H        4.8339620    -0.6514900     0.8358700
  H        5.0104170     0.1293290    -0.7342450
  H        5.4905370     0.9935700     0.7404870
units angstrom
no_reorient  #important for SAPT in psi4, default
symmetry c1  #important for SAPT in psi4, default
}

set PROPERTIES_ORIGIN ["COM"]
properties('MP2/aug-cc-pvtz', properties = ['dipole'])
--------------------------------------------------------------------------

    Molecular point group: c1
  Charge       = 0
  Multiplicity = 1
  Basis Set: AUG-CC-PVTZ
    Blend: AUG-CC-PVTZ
  Basis Set: (AUG-CC-PVTZ AUX)
    Blend: AUG-CC-PVTZ-JKFIT

    Orbital Energies [Eh]
    ---------------------

    Doubly Occupied:

       1A    -20.621040     2A    -20.520836     3A    -11.373946
       4A    -11.298136     5A    -11.251127     6A    -11.238510
       7A    -11.232842     8A    -11.231061     9A    -11.229325
      10A    -11.222810    11A    -11.212757    12A     -1.491847
      13A     -1.314041    14A     -1.119791    15A     -1.058746
      16A     -1.027619    17A     -0.986771    18A     -0.927329
      19A     -0.876660    20A     -0.839493    21A     -0.788693
      22A     -0.728813    23A     -0.697972    24A     -0.676435
      25A     -0.668583    26A     -0.640976    27A     -0.624236
      28A     -0.607160    29A     -0.586104    30A     -0.576098
      31A     -0.557864    32A     -0.550984    33A     -0.537150
      34A     -0.522815    35A     -0.517808    36A     -0.515500
      37A     -0.501215    38A     -0.489004    39A     -0.487715
      40A     -0.471505    41A     -0.444582    42A     -0.426882
      43A     -0.352831

  @DF-RHF Final Energy:  -500.02496538200398

   => Energetics <=

    Nuclear Repulsion Energy =            603.7725709260705571
    One-Electron Energy =               -1877.5038474254936318
    Two-Electron Energy =                 773.7063111174190908
    Total Energy =                       -500.0249653820039839
  Basis Set: (AUG-CC-PVTZ AUX)
    Blend: AUG-CC-PVTZ-RI
    Molecular point group: c1

    Geometry (in Angstrom), charge = 0, multiplicity = 1:

       Center              X                  Y                   Z               Mass
    ------------   -----------------  -----------------  -----------------  -----------------
         O            1.078683178266     0.472430641125     0.012862660056    15.994914619570
         O            2.538169178266    -1.108745358875    -0.713230339944    15.994914619570
         C           -2.362317821734    -0.091253358875     0.297366660056    12.000000000000
         C           -3.591028821734     0.778068641125     0.405759660056    12.000000000000
         C           -1.255596821734     0.391343641125    -0.297451339944    12.000000000000
         C            0.015329178266    -0.334298358875    -0.563347339944    12.000000000000
         C           -2.506171821734    -1.477467358875     0.862070660056    12.000000000000
         C           -4.702037821734     0.352470641125    -0.560506339944    12.000000000000
         C            3.361624178266     0.871318641125     0.437174660056    12.000000000000
         C            2.227527478266    -0.009551158875    -0.137210039944    12.000000000000
         C            4.765099178266     0.300709641125     0.312643660056    12.000000000000
         H           -3.322061821734     1.821056641125     0.203766660056     1.007825032230
         H           -3.971940821734     0.743163641125     1.435119660056     1.007825032230
         H           -1.266030821734     1.421880641125    -0.651875339944     1.007825032230
         H            0.210098178266    -0.438335358875    -1.636691339944     1.007825032230
         H            0.054486178266    -1.334119358875    -0.126296339944     1.007825032230
         H           -2.788106821734    -1.418534358875     1.921749660056     1.007825032230
         H           -3.303631821734    -2.028734358875     0.349790660056     1.007825032230
         H           -1.593421821734    -2.071083358875     0.786380660056     1.007825032230
         H           -5.036601821734    -0.669685358875    -0.361514339944     1.007825032230
         H           -4.346538821734     0.397874641125    -1.593600339944     1.007825032230
         H           -5.570664821734     1.011796641125    -0.467845339944     1.007825032230
         H            3.275571178266     1.837801641125    -0.072241339944     1.007825032230
         H            3.094504178266     1.059849641125     1.481727660056     1.007825032230
         H            4.840999178266    -0.654442358875     0.834950660056     1.007825032230
         H            5.017454178266     0.126376641125    -0.735164339944     1.007825032230
         H            5.497574178266     0.990617641125     0.739567660056     1.007825032230

  Basis Set: AUG-CC-PVTZ
    Blend: AUG-CC-PVTZ
  Basis Set: (AUG-CC-PVTZ AUX)
    Blend: AUG-CC-PVTZ-JKFIT
	 Reference Energy          =    -500.0249653820039839 [Eh]
	 Singles Energy            =      -0.0000000000000000 [Eh]
	 Same-Spin Energy          =      -0.5099808886557353 [Eh]
	 Opposite-Spin Energy      =      -1.7169858115274506 [Eh]
	 Correlation Energy        =      -2.2269667001831861 [Eh]
	 Total Energy              =    -502.2519320821871815 [Eh]

	 ================> DF-SCS-MP2 Energies <==================
	-----------------------------------------------------------
	 SCS Same-Spin Scale       =       0.3333333333333333 [-]
	 SCS Opposite-Spin Scale   =       1.2000000000000000 [-]
	 SCS Same-Spin Energy      =      -0.1699936295519118 [Eh]
	 SCS Opposite-Spin Energy  =      -2.0603829738329407 [Eh]
	 SCS Correlation Energy    =      -2.2303766033848524 [Eh]
	 SCS Total Energy          =    -502.2553419853888386 [Eh]
	-----------------------------------------------------------

  Dipole Moment: [D]
     X:    -2.4716      Y:     1.4232      Z:     0.9165     Total:     2.9957

*** Psi4 exiting successfully. Buy a developer a beer!
