                               Psi4 1.3.2 release

  ==> Input File <==

--------------------------------------------------------------------------
#psi4
#
memory 32 gb

molecule  {
0 1
  O        1.0716460     0.4753830     0.0137820
  O        2.5311320    -1.1057930    -0.7123110
  C       -2.3693550    -0.0883010     0.2982860
  C       -3.6043753     0.7712364     0.4128330
  C       -1.2571694     0.3840946    -0.2945254
  C        0.0082920    -0.3313460    -0.5624280
  C       -2.5132090    -1.4745150     0.8629900
  C       -4.7090750     0.3554230    -0.5595870
  C        3.3545870     0.8742710     0.4380940
  C        2.3120420    -0.0450080    -0.1482500
  C        4.7580620     0.3036620     0.3135630
  H       -3.3290990     1.8240090     0.2046860
  H       -3.9789780     0.7461160     1.4360390
  H       -1.2730680     1.4248330    -0.6509560
  H        0.2030610    -0.4353830    -1.6357720
  H        0.0474490    -1.3311670    -0.1253770
  H       -2.7951440    -1.4155820     1.9226690
  H       -3.3106690    -2.0257820     0.3507100
  H       -1.6004590    -2.0681310     0.7873000
  H       -5.0436390    -0.6667330    -0.3605950
  H       -4.3535760     0.4008270    -1.5926810
  H       -5.5777020     1.0147490    -0.4669260
  H        3.2685340     1.8407540    -0.0713220
  H        3.0874670     1.0628020     1.4826470
  H        4.8339620    -0.6514900     0.8358700
  H        5.0104170     0.1293290    -0.7342450
  H        5.4905370     0.9935700     0.7404870
units angstrom
no_reorient  #important for SAPT in psi4, default
symmetry c1  #important for SAPT in psi4, default
}

set PROPERTIES_ORIGIN ["COM"]
properties('MP2/aug-cc-pvtz', properties = ['dipole'])
--------------------------------------------------------------------------

    Molecular point group: c1
  Charge       = 0
  Multiplicity = 1
  Basis Set: AUG-CC-PVTZ
    Blend: AUG-CC-PVTZ
  Basis Set: (AUG-CC-PVTZ AUX)
    Blend: AUG-CC-PVTZ-JKFIT

    Orbital Energies [Eh]
    ---------------------

    Doubly Occupied:

       1A    -20.597510     2A    -20.540861     3A    -11.375655
       4A    -11.286409     5A    -11.244455     6A    -11.242263
       7A    -11.228944     8A    -11.225811     9A    -11.223816
      10A    -11.219341    11A    -11.217914    12A     -1.448327
      13A     -1.347780    14A     -1.112905    15A     -1.064167
      16A     -1.023287    17A     -0.978449    18A     -0.918982
      19A     -0.879406    20A     -0.833927    21A     -0.767654
      22A     -0.722020    23A     -0.687545    24A     -0.680393
      25A     -0.660192    26A     -0.638216    27A     -0.624729
      28A     -0.605092    29A     -0.588422    30A     -0.575042
      31A     -0.552690    32A     -0.544944    33A     -0.533800
      34A     -0.522009    35A     -0.517196    36A     -0.515643
      37A     -0.511166    38A     -0.492243    39A     -0.483526
      40A     -0.465200    41A     -0.457358    42A     -0.444585
      43A     -0.346288

  @DF-RHF Final Energy:  -500.03772972059153

   => Energetics <=

    Nuclear Repulsion Energy =            603.1911856161351579
    One-Electron Energy =               -1876.5655139081698053
    Two-Electron Energy =                 773.3365985714430053
    Total Energy =                       -500.0377297205915283
  Basis Set: (AUG-CC-PVTZ AUX)
    Blend: AUG-CC-PVTZ-RI
    Molecular point group: c1

    Geometry (in Angstrom), charge = 0, multiplicity = 1:

       Center              X                  Y                   Z               Mass
    ------------   -----------------  -----------------  -----------------  -----------------
         O            1.071710857909     0.476919269805     0.013154652442    15.994914619570
         O            2.531196857909    -1.104256730195    -0.712938347558    15.994914619570
         C           -2.369290142091    -0.086764730195     0.297658652442    12.000000000000
         C           -3.604310442091     0.772772669805     0.412205652442    12.000000000000
         C           -1.257104542091     0.385630869805    -0.295152747558    12.000000000000
         C            0.008356857909    -0.329809730195    -0.563055347558    12.000000000000
         C           -2.513144142091    -1.472978730195     0.862362652442    12.000000000000
         C           -4.709010142091     0.356959269805    -0.560214347558    12.000000000000
         C            3.354651857909     0.875807269805     0.437466652442    12.000000000000
         C            2.312106857909    -0.043471730195    -0.148877347558    12.000000000000
         C            4.758126857909     0.305198269805     0.312935652442    12.000000000000
         H           -3.329034142091     1.825545269805     0.204058652442     1.007825032230
         H           -3.978913142091     0.747652269805     1.435411652442     1.007825032230
         H           -1.273003142091     1.426369269805    -0.651583347558     1.007825032230
         H            0.203125857909    -0.433846730195    -1.636399347558     1.007825032230
         H            0.047513857909    -1.329630730195    -0.126004347558     1.007825032230
         H           -2.795079142091    -1.414045730195     1.922041652442     1.007825032230
         H           -3.310604142091    -2.024245730195     0.350082652442     1.007825032230
         H           -1.600394142091    -2.066594730195     0.786672652442     1.007825032230
         H           -5.043574142091    -0.665196730195    -0.361222347558     1.007825032230
         H           -4.353511142091     0.402363269805    -1.593308347558     1.007825032230
         H           -5.577637142091     1.016285269805    -0.467553347558     1.007825032230
         H            3.268598857909     1.842290269805    -0.071949347558     1.007825032230
         H            3.087531857909     1.064338269805     1.482019652442     1.007825032230
         H            4.834026857909    -0.649953730195     0.835242652442     1.007825032230
         H            5.010481857909     0.130865269805    -0.734872347558     1.007825032230
         H            5.490601857909     0.995106269805     0.739859652442     1.007825032230

  Basis Set: AUG-CC-PVTZ
    Blend: AUG-CC-PVTZ
  Basis Set: (AUG-CC-PVTZ AUX)
    Blend: AUG-CC-PVTZ-JKFIT
	 Reference Energy          =    -500.0377297205915283 [Eh]
	 Singles Energy            =      -0.0000000000000000 [Eh]
	 Same-Spin Energy          =      -0.5098884689958085 [Eh]
	 Opposite-Spin Energy      =      -1.7169849691967252 [Eh]
	 Correlation Energy        =      -2.2268734381925337 [Eh]
	 Total Energy              =    -502.2646031587840412 [Eh]

	 ================> DF-SCS-MP2 Energies <==================
	-----------------------------------------------------------
	 SCS Same-Spin Scale       =       0.3333333333333333 [-]
	 SCS Opposite-Spin Scale   =       1.2000000000000000 [-]
	 SCS Same-Spin Energy      =      -0.1699628229986028 [Eh]
	 SCS Opposite-Spin Energy  =      -2.0603819630360700 [Eh]
	 SCS Correlation Energy    =      -2.2303447860346730 [Eh]
	 SCS Total Energy          =    -502.2680745066261920 [Eh]
	-----------------------------------------------------------

  Dipole Moment: [D]
     X:    -1.4492      Y:     1.1782      Z:     0.8325     Total:     2.0448

*** Psi4 exiting successfully. Buy a developer a beer!
