                               Psi4 1.4a3.dev225

  ==> Input File <==

--------------------------------------------------------------------------
#psi4
#
memory 32 gb

molecule  {
0 1
  O       -1.1411000    -0.4541930    -0.0251880
  O       -2.5814580     1.1752260    -0.6867450
  C        2.3134570     0.0186930     0.2462000
  C        3.5222300    -0.8802230     0.3222130
  C        1.1937340    -0.4134970    -0.3651820
  C       -0.0647290     0.3542590    -0.5783780
  C        2.4850690     1.3863280     0.8546590
  C        4.7190700    -0.3405130    -0.4677320
  C       -3.4286640    -0.8122060     0.4327630
  C       -2.3294642     0.0736891    -0.1534856
  C       -4.8282690    -0.2261570     0.3119590
  H        3.2581340    -1.8761120    -0.0507320
  H        3.8122360    -1.0018650     1.3748590
  H        1.1815530    -1.4238220    -0.7735790
  H       -0.2705280     0.5138520    -1.6430550
  H       -0.0714200     1.3330110    -0.0949940
  H        3.0182560     1.3061200     1.8081990
  H        3.0814560     2.0379150     0.2067330
  H        1.5342700     1.8877430     1.0433380
  H        5.0646870     0.6170420    -0.0694620
  H        4.4484560    -0.1949880    -1.5176090
  H        5.5583810    -1.0408350    -0.4253590
  H       -3.3536290    -1.7820470    -0.0715700
  H       -3.1585900    -0.9983310     1.4781360
  H       -4.8922970     0.7333770     0.8287030
  H       -5.0879650    -0.0561110    -0.7346540
  H       -5.5642940    -0.9066400     0.7478690
units angstrom
no_reorient  #important for SAPT in psi4, default
symmetry c1  #important for SAPT in psi4, default
}

set PROPERTIES_ORIGIN ["COM"]
properties('MP2/aug-cc-pvtz', properties = ['dipole'])
--------------------------------------------------------------------------

    Molecular point group: c1
  Charge       = 0
  Multiplicity = 1
  Basis Set: AUG-CC-PVTZ
    Blend: AUG-CC-PVTZ
  Basis Set: (AUG-CC-PVTZ AUX)
    Blend: AUG-CC-PVTZ-JKFIT

    Orbital Energies [Eh]
    ---------------------

    Doubly Occupied:

       1A    -20.609179     2A    -20.531111     3A    -11.375104
       4A    -11.292622     5A    -11.247964     6A    -11.240683
       7A    -11.230828     8A    -11.228495     9A    -11.226496
      10A    -11.221086    11A    -11.215627    12A     -1.464469
      13A     -1.333520    14A     -1.115675    15A     -1.059330
      16A     -1.025370    17A     -0.981485    18A     -0.923984
      19A     -0.878367    20A     -0.835914    21A     -0.776728
      22A     -0.724858    23A     -0.688195    24A     -0.681690
      25A     -0.662443    26A     -0.638691    27A     -0.623972
      28A     -0.606290    29A     -0.587840    30A     -0.573584
      31A     -0.556345    32A     -0.548758    33A     -0.534290
      34A     -0.521766    35A     -0.515411    36A     -0.515148
      37A     -0.509457    38A     -0.489708    39A     -0.486634
      40A     -0.468537    41A     -0.453440    42A     -0.436932
      43A     -0.349443

  @DF-RHF Final Energy:  -500.03525671098259

   => Energetics <=

    Nuclear Repulsion Energy =            602.8194403302966293
    One-Electron Energy =               -1875.7344568673240701
    Two-Electron Energy =                 772.8797598260448467
    Total Energy =                       -500.0352567109825941
  Basis Set: (AUG-CC-PVTZ AUX)
    Blend: AUG-CC-PVTZ-RI
    Molecular point group: c1

    Geometry (in Angstrom), charge = 0, multiplicity = 1:

       Center              X                  Y                   Z               Mass
    ------------   -----------------  -----------------  -----------------  -----------------
         O           -1.090322610798    -0.458029805235    -0.012198848378    15.994914619570
         O           -2.530680610798     1.171389194765    -0.673755848378    15.994914619570
         C            2.364234389202     0.014856194765     0.259189151622    12.000000000000
         C            3.573007389202    -0.884059805235     0.335202151622    12.000000000000
         C            1.244511389202    -0.417333805235    -0.352192848378    12.000000000000
         C           -0.013951610798     0.350422194765    -0.565388848378    12.000000000000
         C            2.535846389202     1.382491194765     0.867648151622    12.000000000000
         C            4.769847389202    -0.344349805235    -0.454742848378    12.000000000000
         C           -3.377886610798    -0.816042805235     0.445752151622    12.000000000000
         C           -2.278686810798     0.069852294765    -0.140496448378    12.000000000000
         C           -4.777491610798    -0.229993805235     0.324948151622    12.000000000000
         H            3.308911389202    -1.879948805235    -0.037742848378     1.007825032230
         H            3.863013389202    -1.005701805235     1.387848151622     1.007825032230
         H            1.232330389202    -1.427658805235    -0.760589848378     1.007825032230
         H           -0.219750610798     0.510015194765    -1.630065848378     1.007825032230
         H           -0.020642610798     1.329174194765    -0.082004848378     1.007825032230
         H            3.069033389202     1.302283194765     1.821188151622     1.007825032230
         H            3.132233389202     2.034078194765     0.219722151622     1.007825032230
         H            1.585047389202     1.883906194765     1.056327151622     1.007825032230
         H            5.115464389202     0.613205194765    -0.056472848378     1.007825032230
         H            4.499233389202    -0.198824805235    -1.504619848378     1.007825032230
         H            5.609158389202    -1.044671805235    -0.412369848378     1.007825032230
         H           -3.302851610798    -1.785883805235    -0.058580848378     1.007825032230
         H           -3.107812610798    -1.002167805235     1.491125151622     1.007825032230
         H           -4.841519610798     0.729540194765     0.841692151622     1.007825032230
         H           -5.037187610798    -0.059947805235    -0.721664848378     1.007825032230
         H           -5.513516610798    -0.910476805235     0.760858151622     1.007825032230

  Basis Set: AUG-CC-PVTZ
    Blend: AUG-CC-PVTZ
  Basis Set: (AUG-CC-PVTZ AUX)
    Blend: AUG-CC-PVTZ-JKFIT
	 Reference Energy          =    -500.0352567109825941 [Eh]
	 Singles Energy            =      -0.0000000000000000 [Eh]
	 Same-Spin Energy          =      -0.5097628335476299 [Eh]
	 Opposite-Spin Energy      =      -1.7169345039162476 [Eh]
	 Correlation Energy        =      -2.2266973374638774 [Eh]
	 Total Energy              =    -502.2619540484464551 [Eh]

	 ================> DF-SCS-MP2 Energies <==================
	-----------------------------------------------------------
	 SCS Same-Spin Scale       =       0.3333333333333333 [-]
	 SCS Opposite-Spin Scale   =       1.2000000000000000 [-]
	 SCS Same-Spin Energy      =      -0.1699209445158766 [Eh]
	 SCS Opposite-Spin Energy  =      -2.0603214046994971 [Eh]
	 SCS Correlation Energy    =      -2.2302423492153736 [Eh]
	 SCS Total Energy          =    -502.2654990601979534 [Eh]
	-----------------------------------------------------------

  Dipole Moment: [D]
     X:     1.9581      Y:    -1.3285      Z:     0.8297     Total:     2.5075

*** Psi4 exiting successfully. Buy a developer a beer!
