                               Psi4 1.3.2 release

  ==> Input File <==

--------------------------------------------------------------------------
#psi4
#
memory 32 gb

molecule  {
0 1
  O        1.0716460     0.4753830     0.0137820
  O        2.5311320    -1.1057930    -0.7123110
  C       -2.3693550    -0.0883010     0.2982860
  C       -3.5980660     0.7810210     0.4066790
  C       -1.2626340     0.3942960    -0.2965320
  C        0.0169010    -0.3398117    -0.5663232
  C       -2.5132090    -1.4745150     0.8629900
  C       -4.7090750     0.3554230    -0.5595870
  C        3.3545870     0.8742710     0.4380940
  C        2.3073705    -0.0542142    -0.1540133
  C        4.7580620     0.3036620     0.3135630
  H       -3.3290990     1.8240090     0.2046860
  H       -3.9789780     0.7461160     1.4360390
  H       -1.2730680     1.4248330    -0.6509560
  H        0.2030610    -0.4353830    -1.6357720
  H        0.0474490    -1.3311670    -0.1253770
  H       -2.7951440    -1.4155820     1.9226690
  H       -3.3106690    -2.0257820     0.3507100
  H       -1.6004590    -2.0681310     0.7873000
  H       -5.0436390    -0.6667330    -0.3605950
  H       -4.3535760     0.4008270    -1.5926810
  H       -5.5777020     1.0147490    -0.4669260
  H        3.2685340     1.8407540    -0.0713220
  H        3.0874670     1.0628020     1.4826470
  H        4.8339620    -0.6514900     0.8358700
  H        5.0104170     0.1293290    -0.7342450
  H        5.4905370     0.9935700     0.7404870
units angstrom
no_reorient  #important for SAPT in psi4, default
symmetry c1  #important for SAPT in psi4, default
}

set PROPERTIES_ORIGIN ["COM"]
properties('MP2/aug-cc-pvtz', properties = ['dipole'])
--------------------------------------------------------------------------

    Molecular point group: c1
  Charge       = 0
  Multiplicity = 1
  Basis Set: AUG-CC-PVTZ
    Blend: AUG-CC-PVTZ
  Basis Set: (AUG-CC-PVTZ AUX)
    Blend: AUG-CC-PVTZ-JKFIT

    Orbital Energies [Eh]
    ---------------------

    Doubly Occupied:

       1A    -20.597711     2A    -20.542319     3A    -11.374557
       4A    -11.286186     5A    -11.243661     6A    -11.241577
       7A    -11.228166     8A    -11.226303     9A    -11.223766
      10A    -11.219028    11A    -11.217283    12A     -1.450840
      13A     -1.353216    14A     -1.111590    15A     -1.061543
      16A     -1.020482    17A     -0.977427    18A     -0.919105
      19A     -0.877529    20A     -0.833529    21A     -0.768468
      22A     -0.721912    23A     -0.688282    24A     -0.681052
      25A     -0.661746    26A     -0.638021    27A     -0.623000
      28A     -0.605514    29A     -0.587857    30A     -0.574139
      31A     -0.553336    32A     -0.545029    33A     -0.534922
      34A     -0.521212    35A     -0.517958    36A     -0.514601
      37A     -0.512486    38A     -0.492877    39A     -0.483553
      40A     -0.464968    41A     -0.459965    42A     -0.443946
      43A     -0.345876

  @DF-RHF Final Energy:  -500.03900950969262

   => Energetics <=

    Nuclear Repulsion Energy =            603.0893821194329121
    One-Electron Energy =               -1876.3637113252755171
    Two-Electron Energy =                 773.2353196961499862
    Total Energy =                       -500.0390095096926188
  Basis Set: (AUG-CC-PVTZ AUX)
    Blend: AUG-CC-PVTZ-RI
    Molecular point group: c1

    Geometry (in Angstrom), charge = 0, multiplicity = 1:

       Center              X                  Y                   Z               Mass
    ------------   -----------------  -----------------  -----------------  -----------------
         O            1.071343267421     0.476741393274     0.014524342473    15.994914619570
         O            2.530829267421    -1.104434606726    -0.711568657527    15.994914619570
         C           -2.369657732579    -0.086942606726     0.299028342473    12.000000000000
         C           -3.598368732579     0.782379393274     0.407421342473    12.000000000000
         C           -1.262936732579     0.395654393274    -0.295789657527    12.000000000000
         C            0.016598267421    -0.338453306726    -0.565580857527    12.000000000000
         C           -2.513511732579    -1.473156606726     0.863732342473    12.000000000000
         C           -4.709377732579     0.356781393274    -0.558844657527    12.000000000000
         C            3.354284267421     0.875629393274     0.438836342473    12.000000000000
         C            2.307067767421    -0.052855806726    -0.153270957527    12.000000000000
         C            4.757759267421     0.305020393274     0.314305342473    12.000000000000
         H           -3.329401732579     1.825367393274     0.205428342473     1.007825032230
         H           -3.979280732579     0.747474393274     1.436781342473     1.007825032230
         H           -1.273370732579     1.426191393274    -0.650213657527     1.007825032230
         H            0.202758267421    -0.434024606726    -1.635029657527     1.007825032230
         H            0.047146267421    -1.329808606726    -0.124634657527     1.007825032230
         H           -2.795446732579    -1.414223606726     1.923411342473     1.007825032230
         H           -3.310971732579    -2.024423606726     0.351452342473     1.007825032230
         H           -1.600761732579    -2.066772606726     0.788042342473     1.007825032230
         H           -5.043941732579    -0.665374606726    -0.359852657527     1.007825032230
         H           -4.353878732579     0.402185393274    -1.591938657527     1.007825032230
         H           -5.578004732579     1.016107393274    -0.466183657527     1.007825032230
         H            3.268231267421     1.842112393274    -0.070579657527     1.007825032230
         H            3.087164267421     1.064160393274     1.483389342473     1.007825032230
         H            4.833659267421    -0.650131606726     0.836612342473     1.007825032230
         H            5.010114267421     0.130687393274    -0.733502657527     1.007825032230
         H            5.490234267421     0.994928393274     0.741229342473     1.007825032230

  Basis Set: AUG-CC-PVTZ
    Blend: AUG-CC-PVTZ
  Basis Set: (AUG-CC-PVTZ AUX)
    Blend: AUG-CC-PVTZ-JKFIT
	 Reference Energy          =    -500.0390095096926188 [Eh]
	 Singles Energy            =      -0.0000000000000000 [Eh]
	 Same-Spin Energy          =      -0.5094186164642085 [Eh]
	 Opposite-Spin Energy      =      -1.7163543722738255 [Eh]
	 Correlation Energy        =      -2.2257729887380338 [Eh]
	 Total Energy              =    -502.2647824984306340 [Eh]

	 ================> DF-SCS-MP2 Energies <==================
	-----------------------------------------------------------
	 SCS Same-Spin Scale       =       0.3333333333333333 [-]
	 SCS Opposite-Spin Scale   =       1.2000000000000000 [-]
	 SCS Same-Spin Energy      =      -0.1698062054880695 [Eh]
	 SCS Opposite-Spin Energy  =      -2.0596252467285905 [Eh]
	 SCS Correlation Energy    =      -2.2294314522166601 [Eh]
	 SCS Total Energy          =    -502.2684409619092776 [Eh]
	-----------------------------------------------------------

  Dipole Moment: [D]
     X:    -1.4382      Y:     1.1241      Z:     0.7934     Total:     1.9904

*** Psi4 exiting successfully. Buy a developer a beer!
