                               Psi4 1.4a3.dev225

  ==> Input File <==

--------------------------------------------------------------------------
#psi4
#
memory 32 gb

molecule  {
0 1
  O       -1.1411000    -0.4541930    -0.0251880
  O       -2.5814580     1.1752260    -0.6867450
  C        2.3134570     0.0186930     0.2462000
  C        3.5222300    -0.8802230     0.3222130
  C        1.1937340    -0.4134970    -0.3651820
  C       -0.0647290     0.3542590    -0.5783780
  C        2.4850690     1.3863280     0.8546590
  C        4.7190700    -0.3405130    -0.4677320
  C       -3.4286640    -0.8122060     0.4327630
  C       -2.3833943     0.1381660    -0.1800291
  C       -4.8282690    -0.2261570     0.3119590
  H        3.2581340    -1.8761120    -0.0507320
  H        3.8122360    -1.0018650     1.3748590
  H        1.1815530    -1.4238220    -0.7735790
  H       -0.2705280     0.5138520    -1.6430550
  H       -0.0714200     1.3330110    -0.0949940
  H        3.0182560     1.3061200     1.8081990
  H        3.0814560     2.0379150     0.2067330
  H        1.5342700     1.8877430     1.0433380
  H        5.0646870     0.6170420    -0.0694620
  H        4.4484560    -0.1949880    -1.5176090
  H        5.5583810    -1.0408350    -0.4253590
  H       -3.3536290    -1.7820470    -0.0715700
  H       -3.1585900    -0.9983310     1.4781360
  H       -4.8922970     0.7333770     0.8287030
  H       -5.0879650    -0.0561110    -0.7346540
  H       -5.5642940    -0.9066400     0.7478690
units angstrom
no_reorient  #important for SAPT in psi4, default
symmetry c1  #important for SAPT in psi4, default
}

set PROPERTIES_ORIGIN ["COM"]
properties('MP2/aug-cc-pvtz', properties = ['dipole'])
--------------------------------------------------------------------------

    Molecular point group: c1
  Charge       = 0
  Multiplicity = 1
  Basis Set: AUG-CC-PVTZ
    Blend: AUG-CC-PVTZ
  Basis Set: (AUG-CC-PVTZ AUX)
    Blend: AUG-CC-PVTZ-JKFIT

    Orbital Energies [Eh]
    ---------------------

    Doubly Occupied:

       1A    -20.589738     2A    -20.550837     3A    -11.372199
       4A    -11.283526     5A    -11.242591     6A    -11.241407
       7A    -11.227399     8A    -11.225073     9A    -11.221926
      10A    -11.218370    11A    -11.217382    12A     -1.456059
      13A     -1.365033    14A     -1.110122    15A     -1.057287
      16A     -1.019124    17A     -0.974164    18A     -0.916423
      19A     -0.874990    20A     -0.830127    21A     -0.763927
      22A     -0.722373    23A     -0.691443    24A     -0.677694
      25A     -0.665039    26A     -0.637437    27A     -0.624113
      28A     -0.602686    29A     -0.590320    30A     -0.570753
      31A     -0.554907    32A     -0.547082    33A     -0.537851
      34A     -0.521762    35A     -0.518605    36A     -0.512691
      37A     -0.512278    38A     -0.496075    39A     -0.483752
      40A     -0.465986    41A     -0.459698    42A     -0.442469
      43A     -0.343900

  @DF-RHF Final Energy:  -500.03727229547025

   => Energetics <=

    Nuclear Repulsion Energy =            602.6757894167377572
    One-Electron Energy =               -1875.5528896053531298
    Two-Electron Energy =                 772.8398278931449568
    Total Energy =                       -500.0372722954703022
  Basis Set: (AUG-CC-PVTZ AUX)
    Blend: AUG-CC-PVTZ-RI
    Molecular point group: c1

    Geometry (in Angstrom), charge = 0, multiplicity = 1:

       Center              X                  Y                   Z               Mass
    ------------   -----------------  -----------------  -----------------  -----------------
         O           -1.086177198271    -0.462985912287    -0.010158545144    15.994914619570
         O           -2.526535198271     1.166433087713    -0.671715545144    15.994914619570
         C            2.368379801729     0.009900087713     0.261229454856    12.000000000000
         C            3.577152801729    -0.889015912287     0.337242454856    12.000000000000
         C            1.248656801729    -0.422289912287    -0.350152545144    12.000000000000
         C           -0.009806198271     0.345466087713    -0.563348545144    12.000000000000
         C            2.539991801729     1.377535087713     0.869688454856    12.000000000000
         C            4.773992801729    -0.349305912287    -0.452702545144    12.000000000000
         C           -3.373741198271    -0.820998912287     0.447792454856    12.000000000000
         C           -2.328471498271     0.129373087713    -0.164999645144    12.000000000000
         C           -4.773346198271    -0.234949912287     0.326988454856    12.000000000000
         H            3.313056801729    -1.884904912287    -0.035702545144     1.007825032230
         H            3.867158801729    -1.010657912287     1.389888454856     1.007825032230
         H            1.236475801729    -1.432614912287    -0.758549545144     1.007825032230
         H           -0.215605198271     0.505059087713    -1.628025545144     1.007825032230
         H           -0.016497198271     1.324218087713    -0.079964545144     1.007825032230
         H            3.073178801729     1.297327087713     1.823228454856     1.007825032230
         H            3.136378801729     2.029122087713     0.221762454856     1.007825032230
         H            1.589192801729     1.878950087713     1.058367454856     1.007825032230
         H            5.119609801729     0.608249087713    -0.054432545144     1.007825032230
         H            4.503378801729    -0.203780912287    -1.502579545144     1.007825032230
         H            5.613303801729    -1.049627912287    -0.410329545144     1.007825032230
         H           -3.298706198271    -1.790839912287    -0.056540545144     1.007825032230
         H           -3.103667198271    -1.007123912287     1.493165454856     1.007825032230
         H           -4.837374198271     0.724584087713     0.843732454856     1.007825032230
         H           -5.033042198271    -0.064903912287    -0.719624545144     1.007825032230
         H           -5.509371198271    -0.915432912287     0.762898454856     1.007825032230

  Basis Set: AUG-CC-PVTZ
    Blend: AUG-CC-PVTZ
  Basis Set: (AUG-CC-PVTZ AUX)
    Blend: AUG-CC-PVTZ-JKFIT
	 Reference Energy          =    -500.0372722954702454 [Eh]
	 Singles Energy            =      -0.0000000000000000 [Eh]
	 Same-Spin Energy          =      -0.5088880375519791 [Eh]
	 Opposite-Spin Energy      =      -1.7155457838152237 [Eh]
	 Correlation Energy        =      -2.2244338213672030 [Eh]
	 Total Energy              =    -502.2617061168374448 [Eh]

	 ================> DF-SCS-MP2 Energies <==================
	-----------------------------------------------------------
	 SCS Same-Spin Scale       =       0.3333333333333333 [-]
	 SCS Opposite-Spin Scale   =       1.2000000000000000 [-]
	 SCS Same-Spin Energy      =      -0.1696293458506597 [Eh]
	 SCS Opposite-Spin Energy  =      -2.0586549405782684 [Eh]
	 SCS Correlation Energy    =      -2.2282842864289281 [Eh]
	 SCS Total Energy          =    -502.2655565818991477 [Eh]
	-----------------------------------------------------------

  Dipole Moment: [D]
     X:     1.2156      Y:    -0.9414      Z:     0.6743     Total:     1.6789

*** Psi4 exiting successfully. Buy a developer a beer!
