                               Psi4 1.3.2 release

  ==> Input File <==

--------------------------------------------------------------------------
#psi4
#
memory 32 gb

molecule  {
0 1
  O        1.0716460     0.4753830     0.0137820
  O        2.5311320    -1.1057930    -0.7123110
  C       -2.3693550    -0.0883010     0.2982860
  C       -3.5980660     0.7810210     0.4066790
  C       -1.2626340     0.3942960    -0.2965320
  C        0.0082920    -0.3313460    -0.5624280
  C       -2.5132090    -1.4745150     0.8629900
  C       -4.7090750     0.3554230    -0.5595870
  C        3.3545870     0.8742710     0.4380940
  C        2.3310334    -0.0620798    -0.1546610
  C        4.7480332     0.2822314     0.3015606
  H       -3.3290990     1.8240090     0.2046860
  H       -3.9789780     0.7461160     1.4360390
  H       -1.2730680     1.4248330    -0.6509560
  H        0.2030610    -0.4353830    -1.6357720
  H        0.0474490    -1.3311670    -0.1253770
  H       -2.7951440    -1.4155820     1.9226690
  H       -3.3106690    -2.0257820     0.3507100
  H       -1.6004590    -2.0681310     0.7873000
  H       -5.0436390    -0.6667330    -0.3605950
  H       -4.3535760     0.4008270    -1.5926810
  H       -5.5777020     1.0147490    -0.4669260
  H        3.2685340     1.8407540    -0.0713220
  H        3.0874670     1.0628020     1.4826470
  H        4.8339620    -0.6514900     0.8358700
  H        5.0104170     0.1293290    -0.7342450
  H        5.4905370     0.9935700     0.7404870
units angstrom
no_reorient  #important for SAPT in psi4, default
symmetry c1  #important for SAPT in psi4, default
}

set PROPERTIES_ORIGIN ["COM"]
properties('MP2/aug-cc-pvtz', properties = ['dipole'])
--------------------------------------------------------------------------

    Molecular point group: c1
  Charge       = 0
  Multiplicity = 1
  Basis Set: AUG-CC-PVTZ
    Blend: AUG-CC-PVTZ
  Basis Set: (AUG-CC-PVTZ AUX)
    Blend: AUG-CC-PVTZ-JKFIT

    Orbital Energies [Eh]
    ---------------------

    Doubly Occupied:

       1A    -20.590876     2A    -20.546437     3A    -11.374537
       4A    -11.283511     5A    -11.242953     6A    -11.242512
       7A    -11.227311     8A    -11.225279     9A    -11.221792
      10A    -11.218784    11A    -11.218319    12A     -1.446151
      13A     -1.354407    14A     -1.110749    15A     -1.064673
      16A     -1.019669    17A     -0.975629    18A     -0.917404
      19A     -0.878380    20A     -0.831760    21A     -0.763612
      22A     -0.722319    23A     -0.689111    24A     -0.677467
      25A     -0.661399    26A     -0.639418    27A     -0.623689
      28A     -0.605144    29A     -0.587553    30A     -0.572981
      31A     -0.552015    32A     -0.542473    33A     -0.536070
      34A     -0.524123    35A     -0.516707    36A     -0.512489
      37A     -0.510543    38A     -0.498029    39A     -0.483018
      40A     -0.464982    41A     -0.457710    42A     -0.445536
      43A     -0.344284

  @DF-RHF Final Energy:  -500.03728854719645

   => Energetics <=

    Nuclear Repulsion Energy =            603.1794801992740531
    One-Electron Energy =               -1876.5899258068395739
    Two-Electron Energy =                 773.3731570603691807
    Total Energy =                       -500.0372885471964537
  Basis Set: (AUG-CC-PVTZ AUX)
    Blend: AUG-CC-PVTZ-RI
    Molecular point group: c1

    Geometry (in Angstrom), charge = 0, multiplicity = 1:

       Center              X                  Y                   Z               Mass
    ------------   -----------------  -----------------  -----------------  -----------------
         O            1.070957006085     0.478342558776     0.015197300101    15.994914619570
         O            2.530443006085    -1.102833441224    -0.710895699899    15.994914619570
         C           -2.370043993915    -0.085341441224     0.299701300101    12.000000000000
         C           -3.598754993915     0.783980558776     0.408094300101    12.000000000000
         C           -1.263322993915     0.397255558776    -0.295116699899    12.000000000000
         C            0.007603006085    -0.328386441224    -0.561012699899    12.000000000000
         C           -2.513897993915    -1.471555441224     0.864405300101    12.000000000000
         C           -4.709763993915     0.358382558776    -0.558171699899    12.000000000000
         C            3.353898006085     0.877230558776     0.439509300101    12.000000000000
         C            2.330344406085    -0.059120241224    -0.153245699899    12.000000000000
         C            4.747344206085     0.285190958776     0.302975900101    12.000000000000
         H           -3.329787993915     1.826968558776     0.206101300101     1.007825032230
         H           -3.979666993915     0.749075558776     1.437454300101     1.007825032230
         H           -1.273756993915     1.427792558776    -0.649540699899     1.007825032230
         H            0.202372006085    -0.432423441224    -1.634356699899     1.007825032230
         H            0.046760006085    -1.328207441224    -0.123961699899     1.007825032230
         H           -2.795832993915    -1.412622441224     1.924084300101     1.007825032230
         H           -3.311357993915    -2.022822441224     0.352125300101     1.007825032230
         H           -1.601147993915    -2.065171441224     0.788715300101     1.007825032230
         H           -5.044327993915    -0.663773441224    -0.359179699899     1.007825032230
         H           -4.354264993915     0.403786558776    -1.591265699899     1.007825032230
         H           -5.578390993915     1.017708558776    -0.465510699899     1.007825032230
         H            3.267845006085     1.843713558776    -0.069906699899     1.007825032230
         H            3.086778006085     1.065761558776     1.484062300101     1.007825032230
         H            4.833273006085    -0.648530441224     0.837285300101     1.007825032230
         H            5.009728006085     0.132288558776    -0.732829699899     1.007825032230
         H            5.489848006085     0.996529558776     0.741902300101     1.007825032230

  Basis Set: AUG-CC-PVTZ
    Blend: AUG-CC-PVTZ
  Basis Set: (AUG-CC-PVTZ AUX)
    Blend: AUG-CC-PVTZ-JKFIT
	 Reference Energy          =    -500.0372885471964537 [Eh]
	 Singles Energy            =      -0.0000000000000000 [Eh]
	 Same-Spin Energy          =      -0.5096142922055440 [Eh]
	 Opposite-Spin Energy      =      -1.7166323265465635 [Eh]
	 Correlation Energy        =      -2.2262466187521075 [Eh]
	 Total Energy              =    -502.2635351659485536 [Eh]

	 ================> DF-SCS-MP2 Energies <==================
	-----------------------------------------------------------
	 SCS Same-Spin Scale       =       0.3333333333333333 [-]
	 SCS Opposite-Spin Scale   =       1.2000000000000000 [-]
	 SCS Same-Spin Energy      =      -0.1698714307351813 [Eh]
	 SCS Opposite-Spin Energy  =      -2.0599587918558759 [Eh]
	 SCS Correlation Energy    =      -2.2298302225910573 [Eh]
	 SCS Total Energy          =    -502.2671187697874871 [Eh]
	-----------------------------------------------------------

  Dipole Moment: [D]
     X:    -1.2023      Y:     1.0769      Z:     0.7854     Total:     1.7950

*** Psi4 exiting successfully. Buy a developer a beer!
