                               Psi4 1.3.2 release

  ==> Input File <==

--------------------------------------------------------------------------
#psi4
#
memory 32 gb

molecule  {
0 1
  O        1.0716460     0.4753830     0.0137820
  O        2.5311320    -1.1057930    -0.7123110
  C       -2.3693550    -0.0883010     0.2982860
  C       -3.5980660     0.7810210     0.4066790
  C       -1.2626340     0.3942960    -0.2965320
  C        0.0082920    -0.3313460    -0.5624280
  C       -2.5132090    -1.4745150     0.8629900
  C       -4.7090750     0.3554230    -0.5595870
  C        3.3545870     0.8742710     0.4380940
  C        2.3120420    -0.0450080    -0.1482500
  C        4.5734120     0.3787349     0.3299471
  H       -3.3290990     1.8240090     0.2046860
  H       -3.9789780     0.7461160     1.4360390
  H       -1.2730680     1.4248330    -0.6509560
  H        0.2030610    -0.4353830    -1.6357720
  H        0.0474490    -1.3311670    -0.1253770
  H       -2.7951440    -1.4155820     1.9226690
  H       -3.3106690    -2.0257820     0.3507100
  H       -1.6004590    -2.0681310     0.7873000
  H       -5.0436390    -0.6667330    -0.3605950
  H       -4.3535760     0.4008270    -1.5926810
  H       -5.5777020     1.0147490    -0.4669260
  H        3.2685340     1.8407540    -0.0713220
  H        3.0874670     1.0628020     1.4826470
  H        4.8339620    -0.6514900     0.8358700
  H        5.0104170     0.1293290    -0.7342450
  H        5.4905370     0.9935700     0.7404870
units angstrom
no_reorient  #important for SAPT in psi4, default
symmetry c1  #important for SAPT in psi4, default
}

set PROPERTIES_ORIGIN ["COM"]
properties('MP2/aug-cc-pvtz', properties = ['dipole'])
--------------------------------------------------------------------------

    Molecular point group: c1
  Charge       = 0
  Multiplicity = 1
  Basis Set: AUG-CC-PVTZ
    Blend: AUG-CC-PVTZ
  Basis Set: (AUG-CC-PVTZ AUX)
    Blend: AUG-CC-PVTZ-JKFIT

    Orbital Energies [Eh]
    ---------------------

    Doubly Occupied:

       1A    -20.598508     2A    -20.543040     3A    -11.377101
       4A    -11.287298     5A    -11.244786     6A    -11.234286
       7A    -11.228999     8A    -11.228782     9A    -11.226792
      10A    -11.223776    11A    -11.219512    12A     -1.449789
      13A     -1.349585    14A     -1.115199    15A     -1.104260
      16A     -1.025952    17A     -0.979528    18A     -0.918598
      19A     -0.867201    20A     -0.829784    21A     -0.767313
      22A     -0.726516    23A     -0.694585    24A     -0.683192
      25A     -0.666645    26A     -0.645584    27A     -0.625989
      28A     -0.609338    29A     -0.597314    30A     -0.584139
      31A     -0.569192    32A     -0.551010    33A     -0.540047
      34A     -0.530972    35A     -0.515687    36A     -0.511328
      37A     -0.484397    38A     -0.480062    39A     -0.466325
      40A     -0.461945    41A     -0.449379    42A     -0.440964
      43A     -0.346618

  @DF-RHF Final Energy:  -499.98674512016709

   => Energetics <=

    Nuclear Repulsion Energy =            606.3747495763504958
    One-Electron Energy =               -1882.7203579719277968
    Two-Electron Energy =                 776.3588632754102719
    Total Energy =                       -499.9867451201670292
  Basis Set: (AUG-CC-PVTZ AUX)
    Blend: AUG-CC-PVTZ-RI
    Molecular point group: c1

    Geometry (in Angstrom), charge = 0, multiplicity = 1:

       Center              X                  Y                   Z               Mass
    ------------   -----------------  -----------------  -----------------  -----------------
         O            1.085839309241     0.469612434571     0.012522541619    15.994914619570
         O            2.545325309241    -1.111563565429    -0.713570458381    15.994914619570
         C           -2.355161690759    -0.094071565429     0.297026541619    12.000000000000
         C           -3.583872690759     0.775250434571     0.405419541619    12.000000000000
         C           -1.248440690759     0.388525434571    -0.297791458381    12.000000000000
         C            0.022485309241    -0.337116565429    -0.563687458381    12.000000000000
         C           -2.499015690759    -1.480285565429     0.861730541619    12.000000000000
         C           -4.694881690759     0.349652434571    -0.560846458381    12.000000000000
         C            3.368780309241     0.868500434571     0.436834541619    12.000000000000
         C            2.326235309241    -0.050778565429    -0.149509458381    12.000000000000
         C            4.587605309241     0.372964334571     0.328687641619    12.000000000000
         H           -3.314905690759     1.818238434571     0.203426541619     1.007825032230
         H           -3.964784690759     0.740345434571     1.434779541619     1.007825032230
         H           -1.258874690759     1.419062434571    -0.652215458381     1.007825032230
         H            0.217254309241    -0.441153565429    -1.637031458381     1.007825032230
         H            0.061642309241    -1.336937565429    -0.126636458381     1.007825032230
         H           -2.780950690759    -1.421352565429     1.921409541619     1.007825032230
         H           -3.296475690759    -2.031552565429     0.349450541619     1.007825032230
         H           -1.586265690759    -2.073901565429     0.786040541619     1.007825032230
         H           -5.029445690759    -0.672503565429    -0.361854458381     1.007825032230
         H           -4.339382690759     0.395056434571    -1.593940458381     1.007825032230
         H           -5.563508690759     1.008978434571    -0.468185458381     1.007825032230
         H            3.282727309241     1.834983434571    -0.072581458381     1.007825032230
         H            3.101660309241     1.057031434571     1.481387541619     1.007825032230
         H            4.848155309241    -0.657260565429     0.834610541619     1.007825032230
         H            5.024610309241     0.123558434571    -0.735504458381     1.007825032230
         H            5.504730309241     0.987799434571     0.739227541619     1.007825032230

  Basis Set: AUG-CC-PVTZ
    Blend: AUG-CC-PVTZ
  Basis Set: (AUG-CC-PVTZ AUX)
    Blend: AUG-CC-PVTZ-JKFIT
	 Reference Energy          =    -499.9867451201670860 [Eh]
	 Singles Energy            =      -0.0000000000000000 [Eh]
	 Same-Spin Energy          =      -0.5126395723635384 [Eh]
	 Opposite-Spin Energy      =      -1.7209316225352254 [Eh]
	 Correlation Energy        =      -2.2335711948987638 [Eh]
	 Total Energy              =    -502.2203163150658725 [Eh]

	 ================> DF-SCS-MP2 Energies <==================
	-----------------------------------------------------------
	 SCS Same-Spin Scale       =       0.3333333333333333 [-]
	 SCS Opposite-Spin Scale   =       1.2000000000000000 [-]
	 SCS Same-Spin Energy      =      -0.1708798574545128 [Eh]
	 SCS Opposite-Spin Energy  =      -2.0651179470422703 [Eh]
	 SCS Correlation Energy    =      -2.2359978044967832 [Eh]
	 SCS Total Energy          =    -502.2227429246638621 [Eh]
	-----------------------------------------------------------

  Dipole Moment: [D]
     X:    -1.5404      Y:     1.1757      Z:     0.8192     Total:     2.1039

*** Psi4 exiting successfully. Buy a developer a beer!
