                               Psi4 1.3.2 release

  ==> Input File <==

--------------------------------------------------------------------------
#psi4
#
memory 32 gb

molecule  {
0 1
  O        1.0716460     0.4753830     0.0137820
  O        2.5311320    -1.1057930    -0.7123110
  C       -2.3935802    -0.1162714     0.2607998
  C       -3.5980660     0.7810210     0.4066790
  C       -1.2626340     0.3942960    -0.2965320
  C        0.0082920    -0.3313460    -0.5624280
  C       -2.5132090    -1.4745150     0.8629900
  C       -4.6773808     0.3160992    -0.5772274
  C        3.3545870     0.8742710     0.4380940
  C        2.3120420    -0.0450080    -0.1482500
  C        4.7580620     0.3036620     0.3135630
  H       -3.3290990     1.8240090     0.2046860
  H       -3.9789780     0.7461160     1.4360390
  H       -1.2730680     1.4248330    -0.6509560
  H        0.2030610    -0.4353830    -1.6357720
  H        0.0474490    -1.3311670    -0.1253770
  H       -2.7951440    -1.4155820     1.9226690
  H       -3.3106690    -2.0257820     0.3507100
  H       -1.6004590    -2.0681310     0.7873000
  H       -5.0436390    -0.6667330    -0.3605950
  H       -4.3535760     0.4008270    -1.5926810
  H       -5.5777020     1.0147490    -0.4669260
  H        3.2685340     1.8407540    -0.0713220
  H        3.0874670     1.0628020     1.4826470
  H        4.8339620    -0.6514900     0.8358700
  H        5.0104170     0.1293290    -0.7342450
  H        5.4905370     0.9935700     0.7404870
units angstrom
no_reorient  #important for SAPT in psi4, default
symmetry c1  #important for SAPT in psi4, default
}

set PROPERTIES_ORIGIN ["COM"]
properties('MP2/aug-cc-pvtz', properties = ['dipole'])
--------------------------------------------------------------------------

    Molecular point group: c1
  Charge       = 0
  Multiplicity = 1
  Basis Set: AUG-CC-PVTZ
    Blend: AUG-CC-PVTZ
  Basis Set: (AUG-CC-PVTZ AUX)
    Blend: AUG-CC-PVTZ-JKFIT

    Orbital Energies [Eh]
    ---------------------

    Doubly Occupied:

       1A    -20.597010     2A    -20.540533     3A    -11.375305
       4A    -11.285836     5A    -11.245189     6A    -11.242067
       7A    -11.229124     8A    -11.226446     9A    -11.224266
      10A    -11.219111    11A    -11.217771    12A     -1.447825
      13A     -1.347336    14A     -1.112880    15A     -1.063961
      16A     -1.021513    17A     -0.979432    18A     -0.918088
      19A     -0.878479    20A     -0.832442    21A     -0.767137
      22A     -0.723567    23A     -0.687885    24A     -0.680368
      25A     -0.659948    26A     -0.639064    27A     -0.626102
      28A     -0.604192    29A     -0.587936    30A     -0.577191
      31A     -0.554001    32A     -0.538923    33A     -0.533455
      34A     -0.522070    35A     -0.518693    36A     -0.517425
      37A     -0.510286    38A     -0.492298    39A     -0.489881
      40A     -0.461175    41A     -0.456882    42A     -0.443874
      43A     -0.341394

  @DF-RHF Final Energy:  -500.03273771165505

   => Energetics <=

    Nuclear Repulsion Energy =            603.3610354167251444
    One-Electron Energy =               -1876.9108199207405505
    Two-Electron Energy =                 773.5170467923603610
    Total Energy =                       -500.0327377116550451
  Basis Set: (AUG-CC-PVTZ AUX)
    Blend: AUG-CC-PVTZ-RI
    Molecular point group: c1

    Geometry (in Angstrom), charge = 0, multiplicity = 1:

       Center              X                  Y                   Z               Mass
    ------------   -----------------  -----------------  -----------------  -----------------
         O            1.071071813737     0.480555680732     0.018019311541    15.994914619570
         O            2.530557813737    -1.100620319268    -0.708073688459    15.994914619570
         C           -2.394154386263    -0.111098719268     0.265037111541    12.000000000000
         C           -3.598640186263     0.786193680732     0.410916311541    12.000000000000
         C           -1.263208186263     0.399468680732    -0.292294688459    12.000000000000
         C            0.007717813737    -0.326173319268    -0.558190688459    12.000000000000
         C           -2.513783186263    -1.469342319268     0.867227311541    12.000000000000
         C           -4.677954986263     0.321271880732    -0.572990088459    12.000000000000
         C            3.354012813737     0.879443680732     0.442331311541    12.000000000000
         C            2.311467813737    -0.039835319268    -0.144012688459    12.000000000000
         C            4.757487813737     0.308834680732     0.317800311541    12.000000000000
         H           -3.329673186263     1.829181680732     0.208923311541     1.007825032230
         H           -3.979552186263     0.751288680732     1.440276311541     1.007825032230
         H           -1.273642186263     1.430005680732    -0.646718688459     1.007825032230
         H            0.202486813737    -0.430210319268    -1.631534688459     1.007825032230
         H            0.046874813737    -1.325994319268    -0.121139688459     1.007825032230
         H           -2.795718186263    -1.410409319268     1.926906311541     1.007825032230
         H           -3.311243186263    -2.020609319268     0.354947311541     1.007825032230
         H           -1.601033186263    -2.062958319268     0.791537311541     1.007825032230
         H           -5.044213186263    -0.661560319268    -0.356357688459     1.007825032230
         H           -4.354150186263     0.405999680732    -1.588443688459     1.007825032230
         H           -5.578276186263     1.019921680732    -0.462688688459     1.007825032230
         H            3.267959813737     1.845926680732    -0.067084688459     1.007825032230
         H            3.086892813737     1.067974680732     1.486884311541     1.007825032230
         H            4.833387813737    -0.646317319268     0.840107311541     1.007825032230
         H            5.009842813737     0.134501680732    -0.730007688459     1.007825032230
         H            5.489962813737     0.998742680732     0.744724311541     1.007825032230

  Basis Set: AUG-CC-PVTZ
    Blend: AUG-CC-PVTZ
  Basis Set: (AUG-CC-PVTZ AUX)
    Blend: AUG-CC-PVTZ-JKFIT
	 Reference Energy          =    -500.0327377116550451 [Eh]
	 Singles Energy            =      -0.0000000000000000 [Eh]
	 Same-Spin Energy          =      -0.5102327819956972 [Eh]
	 Opposite-Spin Energy      =      -1.7177333279846105 [Eh]
	 Correlation Energy        =      -2.2279661099803079 [Eh]
	 Total Energy              =    -502.2607038216353317 [Eh]

	 ================> DF-SCS-MP2 Energies <==================
	-----------------------------------------------------------
	 SCS Same-Spin Scale       =       0.3333333333333333 [-]
	 SCS Opposite-Spin Scale   =       1.2000000000000000 [-]
	 SCS Same-Spin Energy      =      -0.1700775939985657 [Eh]
	 SCS Opposite-Spin Energy  =      -2.0612799935815325 [Eh]
	 SCS Correlation Energy    =      -2.2313575875800984 [Eh]
	 SCS Total Energy          =    -502.2640952992351231 [Eh]
	-----------------------------------------------------------

  Dipole Moment: [D]
     X:    -1.4416      Y:     1.1743      Z:     0.8818     Total:     2.0578

*** Psi4 exiting successfully. Buy a developer a beer!
