                               Psi4 1.3.2 release

  ==> Input File <==

--------------------------------------------------------------------------
#psi4
#
memory 32 gb

molecule  {
0 1
  O        1.0716460     0.4753830     0.0137820
  O        2.5311320    -1.1057930    -0.7123110
  C       -2.3363291    -0.1501409     0.3053874
  C       -3.5980660     0.7810210     0.4066790
  C       -1.2626340     0.3942960    -0.2965320
  C       -0.0232117    -0.3944446    -0.5294064
  C       -2.5132090    -1.4745150     0.8629900
  C       -4.7090750     0.3554230    -0.5595870
  C        3.3545870     0.8742710     0.4380940
  C        2.3120420    -0.0450080    -0.1482500
  C        4.7580620     0.3036620     0.3135630
  H       -3.3290990     1.8240090     0.2046860
  H       -3.9789780     0.7461160     1.4360390
  H       -1.2730680     1.4248330    -0.6509560
  H        0.2030610    -0.4353830    -1.6357720
  H        0.0474490    -1.3311670    -0.1253770
  H       -2.7951440    -1.4155820     1.9226690
  H       -3.3106690    -2.0257820     0.3507100
  H       -1.6004590    -2.0681310     0.7873000
  H       -5.0436390    -0.6667330    -0.3605950
  H       -4.3535760     0.4008270    -1.5926810
  H       -5.5777020     1.0147490    -0.4669260
  H        3.2685340     1.8407540    -0.0713220
  H        3.0874670     1.0628020     1.4826470
  H        4.8339620    -0.6514900     0.8358700
  H        5.0104170     0.1293290    -0.7342450
  H        5.4905370     0.9935700     0.7404870
units angstrom
no_reorient  #important for SAPT in psi4, default
symmetry c1  #important for SAPT in psi4, default
}

set PROPERTIES_ORIGIN ["COM"]
properties('MP2/aug-cc-pvtz', properties = ['dipole'])
--------------------------------------------------------------------------

    Molecular point group: c1
  Charge       = 0
  Multiplicity = 1
  Basis Set: AUG-CC-PVTZ
    Blend: AUG-CC-PVTZ
  Basis Set: (AUG-CC-PVTZ AUX)
    Blend: AUG-CC-PVTZ-JKFIT

    Orbital Energies [Eh]
    ---------------------

    Doubly Occupied:

       1A    -20.591601     2A    -20.537215     3A    -11.371636
       4A    -11.286084     5A    -11.244698     6A    -11.239834
       7A    -11.230488     8A    -11.227261     9A    -11.226190
      10A    -11.218439    11A    -11.216209    12A     -1.437924
      13A     -1.339818    14A     -1.114858    15A     -1.060633
      16A     -1.021095    17A     -0.985982    18A     -0.918134
      19A     -0.876345    20A     -0.830390    21A     -0.764858
      22A     -0.724434    23A     -0.683598    24A     -0.677168
      25A     -0.654501    26A     -0.637608    27A     -0.620861
      28A     -0.606199    29A     -0.590092    30A     -0.575261
      31A     -0.558703    32A     -0.545133    33A     -0.536605
      34A     -0.529153    35A     -0.518237    36A     -0.512245
      37A     -0.510362    38A     -0.491408    39A     -0.486089
      40A     -0.457114    41A     -0.451978    42A     -0.440792
      43A     -0.346233

  @DF-RHF Final Energy:  -500.02522212826204

   => Energetics <=

    Nuclear Repulsion Energy =            602.7969281387009914
    One-Electron Energy =               -1875.8573717280685287
    Two-Electron Energy =                 773.0352214611053796
    Total Energy =                       -500.0252221282620440
  Basis Set: (AUG-CC-PVTZ AUX)
    Blend: AUG-CC-PVTZ-RI
    Molecular point group: c1

    Geometry (in Angstrom), charge = 0, multiplicity = 1:

       Center              X                  Y                   Z               Mass
    ------------   -----------------  -----------------  -----------------  -----------------
         O            1.071528922832     0.484986590434     0.010697817885    15.994914619570
         O            2.531014922832    -1.096189409566    -0.715395182115    15.994914619570
         C           -2.336446177168    -0.140537309566     0.302303217885    12.000000000000
         C           -3.598183077168     0.790624590434     0.403594817885    12.000000000000
         C           -1.262751077168     0.403899590434    -0.299616182115    12.000000000000
         C           -0.023328777168    -0.384841009566    -0.532490582115    12.000000000000
         C           -2.513326077168    -1.464911409566     0.859905817885    12.000000000000
         C           -4.709192077168     0.365026590434    -0.562671182115    12.000000000000
         C            3.354469922832     0.883874590434     0.435009817885    12.000000000000
         C            2.311924922832    -0.035404409566    -0.151334182115    12.000000000000
         C            4.757944922832     0.313265590434     0.310478817885    12.000000000000
         H           -3.329216077168     1.833612590434     0.201601817885     1.007825032230
         H           -3.979095077168     0.755719590434     1.432954817885     1.007825032230
         H           -1.273185077168     1.434436590434    -0.654040182115     1.007825032230
         H            0.202943922832    -0.425779409566    -1.638856182115     1.007825032230
         H            0.047331922832    -1.321563409566    -0.128461182115     1.007825032230
         H           -2.795261077168    -1.405978409566     1.919584817885     1.007825032230
         H           -3.310786077168    -2.016178409566     0.347625817885     1.007825032230
         H           -1.600576077168    -2.058527409566     0.784215817885     1.007825032230
         H           -5.043756077168    -0.657129409566    -0.363679182115     1.007825032230
         H           -4.353693077168     0.410430590434    -1.595765182115     1.007825032230
         H           -5.577819077168     1.024352590434    -0.470010182115     1.007825032230
         H            3.268416922832     1.850357590434    -0.074406182115     1.007825032230
         H            3.087349922832     1.072405590434     1.479562817885     1.007825032230
         H            4.833844922832    -0.641886409566     0.832785817885     1.007825032230
         H            5.010299922832     0.138932590434    -0.737329182115     1.007825032230
         H            5.490419922832     1.003173590434     0.737402817885     1.007825032230

  Basis Set: AUG-CC-PVTZ
    Blend: AUG-CC-PVTZ
  Basis Set: (AUG-CC-PVTZ AUX)
    Blend: AUG-CC-PVTZ-JKFIT
	 Reference Energy          =    -500.0252221282620440 [Eh]
	 Singles Energy            =      -0.0000000000000000 [Eh]
	 Same-Spin Energy          =      -0.5102169544659940 [Eh]
	 Opposite-Spin Energy      =      -1.7180169392689479 [Eh]
	 Correlation Energy        =      -2.2282338937349420 [Eh]
	 Total Energy              =    -502.2534560219970103 [Eh]

	 ================> DF-SCS-MP2 Energies <==================
	-----------------------------------------------------------
	 SCS Same-Spin Scale       =       0.3333333333333333 [-]
	 SCS Opposite-Spin Scale   =       1.2000000000000000 [-]
	 SCS Same-Spin Energy      =      -0.1700723181553313 [Eh]
	 SCS Opposite-Spin Energy  =      -2.0616203271227374 [Eh]
	 SCS Correlation Energy    =      -2.2316926452780685 [Eh]
	 SCS Total Energy          =    -502.2569147735401316 [Eh]
	-----------------------------------------------------------

  Dipole Moment: [D]
     X:    -1.6285      Y:     1.0546      Z:     0.8849     Total:     2.1324

*** Psi4 exiting successfully. Buy a developer a beer!
