                               Psi4 1.3.2 release

  ==> Input File <==

--------------------------------------------------------------------------
#psi4
#
memory 32 gb

molecule  {
0 1
  O        1.0641833     0.4950022    -0.0004730
  O        2.5311320    -1.1057930    -0.7123110
  C       -2.3693550    -0.0883010     0.2982860
  C       -3.5980660     0.7810210     0.4066790
  C       -1.2626340     0.3942960    -0.2965320
  C        0.0082920    -0.3313460    -0.5624280
  C       -2.5132090    -1.4745150     0.8629900
  C       -4.7090750     0.3554230    -0.5595870
  C        3.3545870     0.8742710     0.4380940
  C        2.3120420    -0.0450080    -0.1482500
  C        4.7580620     0.3036620     0.3135630
  H       -3.3290990     1.8240090     0.2046860
  H       -3.9789780     0.7461160     1.4360390
  H       -1.2730680     1.4248330    -0.6509560
  H        0.2030610    -0.4353830    -1.6357720
  H        0.0324809    -1.3362284    -0.1360302
  H       -2.7951440    -1.4155820     1.9226690
  H       -3.3106690    -2.0257820     0.3507100
  H       -1.6004590    -2.0681310     0.7873000
  H       -5.0436390    -0.6667330    -0.3605950
  H       -4.3535760     0.4008270    -1.5926810
  H       -5.5777020     1.0147490    -0.4669260
  H        3.2685340     1.8407540    -0.0713220
  H        3.0874670     1.0628020     1.4826470
  H        4.8339620    -0.6514900     0.8358700
  H        5.0104170     0.1293290    -0.7342450
  H        5.4905370     0.9935700     0.7404870
units angstrom
no_reorient  #important for SAPT in psi4, default
symmetry c1  #important for SAPT in psi4, default
}

set PROPERTIES_ORIGIN ["COM"]
properties('MP2/aug-cc-pvtz', properties = ['dipole'])
--------------------------------------------------------------------------

    Molecular point group: c1
  Charge       = 0
  Multiplicity = 1
  Basis Set: AUG-CC-PVTZ
    Blend: AUG-CC-PVTZ
  Basis Set: (AUG-CC-PVTZ AUX)
    Blend: AUG-CC-PVTZ-JKFIT

    Orbital Energies [Eh]
    ---------------------

    Doubly Occupied:

       1A    -20.597622     2A    -20.543584     3A    -11.377572
       4A    -11.285660     5A    -11.243366     6A    -11.242931
       7A    -11.227917     8A    -11.226090     9A    -11.222494
      10A    -11.218816    11A    -11.218443    12A     -1.444701
      13A     -1.348581    14A     -1.111811    15A     -1.064144
      16A     -1.021034    17A     -0.977114    18A     -0.918764
      19A     -0.879489    20A     -0.832808    21A     -0.767229
      22A     -0.721778    23A     -0.687418    24A     -0.678987
      25A     -0.659757    26A     -0.638131    27A     -0.623457
      28A     -0.604912    29A     -0.587871    30A     -0.574038
      31A     -0.552822    32A     -0.544264    33A     -0.533268
      34A     -0.522509    35A     -0.518272    36A     -0.514949
      37A     -0.512253    38A     -0.492725    39A     -0.483469
      40A     -0.464975    41A     -0.458151    42A     -0.445480
      43A     -0.345189

  @DF-RHF Final Energy:  -500.03692905175478

   => Energetics <=

    Nuclear Repulsion Energy =            602.7949178567873787
    One-Electron Energy =               -1875.7940007610995963
    Two-Electron Energy =                 772.9621538525574351
    Total Energy =                       -500.0369290517547824
  Basis Set: (AUG-CC-PVTZ AUX)
    Blend: AUG-CC-PVTZ-RI
    Molecular point group: c1

    Geometry (in Angstrom), charge = 0, multiplicity = 1:

       Center              X                  Y                   Z               Mass
    ------------   -----------------  -----------------  -----------------  -----------------
         O            1.065044455840     0.493024788745     0.001056211423    15.994914619570
         O            2.531993155840    -1.107770411255    -0.710781788577    15.994914619570
         C           -2.368493844160    -0.090278411255     0.299815211423    12.000000000000
         C           -3.597204844160     0.779043588745     0.408208211423    12.000000000000
         C           -1.261772844160     0.392318588745    -0.295002788577    12.000000000000
         C            0.009153155840    -0.333323411255    -0.560898788577    12.000000000000
         C           -2.512347844160    -1.476492411255     0.864519211423    12.000000000000
         C           -4.708213844160     0.353445588745    -0.558057788577    12.000000000000
         C            3.355448155840     0.872293588745     0.439623211423    12.000000000000
         C            2.312903155840    -0.046985411255    -0.146720788577    12.000000000000
         C            4.758923155840     0.301684588745     0.315092211423    12.000000000000
         H           -3.328237844160     1.822031588745     0.206215211423     1.007825032230
         H           -3.978116844160     0.744138588745     1.437568211423     1.007825032230
         H           -1.272206844160     1.422855588745    -0.649426788577     1.007825032230
         H            0.203922155840    -0.437360411255    -1.634242788577     1.007825032230
         H            0.033342055840    -1.338205811255    -0.134500988577     1.007825032230
         H           -2.794282844160    -1.417559411255     1.924198211423     1.007825032230
         H           -3.309807844160    -2.027759411255     0.352239211423     1.007825032230
         H           -1.599597844160    -2.070108411255     0.788829211423     1.007825032230
         H           -5.042777844160    -0.668710411255    -0.359065788577     1.007825032230
         H           -4.352714844160     0.398849588745    -1.591151788577     1.007825032230
         H           -5.576840844160     1.012771588745    -0.465396788577     1.007825032230
         H            3.269395155840     1.838776588745    -0.069792788577     1.007825032230
         H            3.088328155840     1.060824588745     1.484176211423     1.007825032230
         H            4.834823155840    -0.653467411255     0.837399211423     1.007825032230
         H            5.011278155840     0.127351588745    -0.732715788577     1.007825032230
         H            5.491398155840     0.991592588745     0.742016211423     1.007825032230

  Basis Set: AUG-CC-PVTZ
    Blend: AUG-CC-PVTZ
  Basis Set: (AUG-CC-PVTZ AUX)
    Blend: AUG-CC-PVTZ-JKFIT
	 Reference Energy          =    -500.0369290517547824 [Eh]
	 Singles Energy            =      -0.0000000000000000 [Eh]
	 Same-Spin Energy          =      -0.5099962179759308 [Eh]
	 Opposite-Spin Energy      =      -1.7174639356596102 [Eh]
	 Correlation Energy        =      -2.2274601536355410 [Eh]
	 Total Energy              =    -502.2643892053903301 [Eh]

	 ================> DF-SCS-MP2 Energies <==================
	-----------------------------------------------------------
	 SCS Same-Spin Scale       =       0.3333333333333333 [-]
	 SCS Opposite-Spin Scale   =       1.2000000000000000 [-]
	 SCS Same-Spin Energy      =      -0.1699987393253102 [Eh]
	 SCS Opposite-Spin Energy  =      -2.0609567227915320 [Eh]
	 SCS Correlation Energy    =      -2.2309554621168424 [Eh]
	 SCS Total Energy          =    -502.2678845138716497 [Eh]
	-----------------------------------------------------------

  Dipole Moment: [D]
     X:    -1.3448      Y:     1.1378      Z:     0.8379     Total:     1.9507

*** Psi4 exiting successfully. Buy a developer a beer!
