                               Psi4 1.3.2 release

  ==> Input File <==

--------------------------------------------------------------------------
#psi4
#
memory 32 gb

molecule  {
0 1
  O        1.0716460     0.4753830     0.0137820
  O        2.5311320    -1.1057930    -0.7123110
  C       -2.3693550    -0.0883010     0.2982860
  C       -3.5980660     0.7810210     0.4066790
  C       -1.2626340     0.3942960    -0.2965320
  C       -0.0226501    -0.3939734    -0.5280080
  C       -2.5132090    -1.4745150     0.8629900
  C       -4.7090750     0.3554230    -0.5595870
  C        3.3545870     0.8742710     0.4380940
  C        2.3120420    -0.0450080    -0.1482500
  C        4.7580620     0.3036620     0.3135630
  H       -3.3290990     1.8240090     0.2046860
  H       -3.9789780     0.7461160     1.4360390
  H       -1.3262748     1.4296080    -0.6309130
  H        0.2030610    -0.4353830    -1.6357720
  H        0.0474490    -1.3311670    -0.1253770
  H       -2.7951440    -1.4155820     1.9226690
  H       -3.3106690    -2.0257820     0.3507100
  H       -1.6004590    -2.0681310     0.7873000
  H       -5.0436390    -0.6667330    -0.3605950
  H       -4.3535760     0.4008270    -1.5926810
  H       -5.5777020     1.0147490    -0.4669260
  H        3.2685340     1.8407540    -0.0713220
  H        3.0874670     1.0628020     1.4826470
  H        4.8339620    -0.6514900     0.8358700
  H        5.0104170     0.1293290    -0.7342450
  H        5.4905370     0.9935700     0.7404870
units angstrom
no_reorient  #important for SAPT in psi4, default
symmetry c1  #important for SAPT in psi4, default
}

set PROPERTIES_ORIGIN ["COM"]
properties('MP2/aug-cc-pvtz', properties = ['dipole'])
--------------------------------------------------------------------------

    Molecular point group: c1
  Charge       = 0
  Multiplicity = 1
  Basis Set: AUG-CC-PVTZ
    Blend: AUG-CC-PVTZ
  Basis Set: (AUG-CC-PVTZ AUX)
    Blend: AUG-CC-PVTZ-JKFIT

    Orbital Energies [Eh]
    ---------------------

    Doubly Occupied:

       1A    -20.592666     2A    -20.537848     3A    -11.372313
       4A    -11.289234     5A    -11.243582     6A    -11.240199
       7A    -11.229086     8A    -11.227574     9A    -11.224978
      10A    -11.219931    11A    -11.216473    12A     -1.438870
      13A     -1.340638    14A     -1.114811    15A     -1.061426
      16A     -1.023276    17A     -0.977732    18A     -0.920058
      19A     -0.879365    20A     -0.835561    21A     -0.764844
      22A     -0.721438    23A     -0.684033    24A     -0.677612
      25A     -0.655584    26A     -0.636734    27A     -0.625116
      28A     -0.604769    29A     -0.588672    30A     -0.573626
      31A     -0.556665    32A     -0.544737    33A     -0.532913
      34A     -0.521424    35A     -0.518478    36A     -0.514552
      37A     -0.511174    38A     -0.491771    39A     -0.484430
      40A     -0.469398    41A     -0.456402    42A     -0.441901
      43A     -0.345813

  @DF-RHF Final Energy:  -500.03022589275355

   => Energetics <=

    Nuclear Repulsion Energy =            602.7020781605623370
    One-Electron Energy =               -1875.6491939638015083
    Two-Electron Energy =                 772.9168899104856791
    Total Energy =                       -500.0302258927536059
  Basis Set: (AUG-CC-PVTZ AUX)
    Blend: AUG-CC-PVTZ-RI
    Molecular point group: c1

    Geometry (in Angstrom), charge = 0, multiplicity = 1:

       Center              X                  Y                   Z               Mass
    ------------   -----------------  -----------------  -----------------  -----------------
         O            1.074367821467     0.480166134865     0.011006796226    15.994914619570
         O            2.533853821467    -1.101009865135    -0.715086203774    15.994914619570
         C           -2.366633178533    -0.083517865135     0.295510796226    12.000000000000
         C           -3.595344178533     0.785804134865     0.403903796226    12.000000000000
         C           -1.259912178533     0.399079134865    -0.299307203774    12.000000000000
         C           -0.019928278533    -0.389190265135    -0.530783203774    12.000000000000
         C           -2.510487178533    -1.469731865135     0.860214796226    12.000000000000
         C           -4.706353178533     0.360206134865    -0.562362203774    12.000000000000
         C            3.357308821467     0.879054134865     0.435318796226    12.000000000000
         C            2.314763821467    -0.040224865135    -0.151025203774    12.000000000000
         C            4.760783821467     0.308445134865     0.310787796226    12.000000000000
         H           -3.326377178533     1.828792134865     0.201910796226     1.007825032230
         H           -3.976256178533     0.750899134865     1.433263796226     1.007825032230
         H           -1.323552978533     1.434391134865    -0.633688203774     1.007825032230
         H            0.205782821467    -0.430599865135    -1.638547203774     1.007825032230
         H            0.050170821467    -1.326383865135    -0.128152203774     1.007825032230
         H           -2.792422178533    -1.410798865135     1.919893796226     1.007825032230
         H           -3.307947178533    -2.020998865135     0.347934796226     1.007825032230
         H           -1.597737178533    -2.063347865135     0.784524796226     1.007825032230
         H           -5.040917178533    -0.661949865135    -0.363370203774     1.007825032230
         H           -4.350854178533     0.405610134865    -1.595456203774     1.007825032230
         H           -5.574980178533     1.019532134865    -0.469701203774     1.007825032230
         H            3.271255821467     1.845537134865    -0.074097203774     1.007825032230
         H            3.090188821467     1.067585134865     1.479871796226     1.007825032230
         H            4.836683821467    -0.646706865135     0.833094796226     1.007825032230
         H            5.013138821467     0.134112134865    -0.737020203774     1.007825032230
         H            5.493258821467     0.998353134865     0.737711796226     1.007825032230

  Basis Set: AUG-CC-PVTZ
    Blend: AUG-CC-PVTZ
  Basis Set: (AUG-CC-PVTZ AUX)
    Blend: AUG-CC-PVTZ-JKFIT
	 Reference Energy          =    -500.0302258927535490 [Eh]
	 Singles Energy            =      -0.0000000000000000 [Eh]
	 Same-Spin Energy          =      -0.5100597853348541 [Eh]
	 Opposite-Spin Energy      =      -1.7177023942314520 [Eh]
	 Correlation Energy        =      -2.2277621795663061 [Eh]
	 Total Energy              =    -502.2579880723198471 [Eh]

	 ================> DF-SCS-MP2 Energies <==================
	-----------------------------------------------------------
	 SCS Same-Spin Scale       =       0.3333333333333333 [-]
	 SCS Opposite-Spin Scale   =       1.2000000000000000 [-]
	 SCS Same-Spin Energy      =      -0.1700199284449513 [Eh]
	 SCS Opposite-Spin Energy  =      -2.0612428730777421 [Eh]
	 SCS Correlation Energy    =      -2.2312628015226936 [Eh]
	 SCS Total Energy          =    -502.2614886942762382 [Eh]
	-----------------------------------------------------------

  Dipole Moment: [D]
     X:    -1.6379      Y:     1.1110      Z:     0.8631     Total:     2.1592

*** Psi4 exiting successfully. Buy a developer a beer!
