                               Psi4 1.3.2 release

  ==> Input File <==

--------------------------------------------------------------------------
#psi4
#
memory 32 gb

molecule  {
0 1
  O        1.0716460     0.4753830     0.0137820
  O        2.5311320    -1.1057930    -0.7123110
  C       -2.3693550    -0.0883010     0.2982860
  C       -3.5980660     0.7810210     0.4066790
  C       -1.2626340     0.3942960    -0.2965320
  C        0.0082920    -0.3313460    -0.5624280
  C       -2.5132090    -1.4745150     0.8629900
  C       -4.7090750     0.3554230    -0.5595870
  C        3.3545870     0.8742710     0.4380940
  C        2.2750175    -0.0100296    -0.1348941
  C        4.7768341     0.3470382     0.3376778
  H       -3.3290990     1.8240090     0.2046860
  H       -3.9789780     0.7461160     1.4360390
  H       -1.2730680     1.4248330    -0.6509560
  H        0.2030610    -0.4353830    -1.6357720
  H        0.0474490    -1.3311670    -0.1253770
  H       -2.7951440    -1.4155820     1.9226690
  H       -3.3106690    -2.0257820     0.3507100
  H       -1.6004590    -2.0681310     0.7873000
  H       -5.0436390    -0.6667330    -0.3605950
  H       -4.3535760     0.4008270    -1.5926810
  H       -5.5777020     1.0147490    -0.4669260
  H        3.2685340     1.8407540    -0.0713220
  H        3.0874670     1.0628020     1.4826470
  H        4.8339620    -0.6514900     0.8358700
  H        5.0104170     0.1293290    -0.7342450
  H        5.4905370     0.9935700     0.7404870
units angstrom
no_reorient  #important for SAPT in psi4, default
symmetry c1  #important for SAPT in psi4, default
}

set PROPERTIES_ORIGIN ["COM"]
properties('MP2/aug-cc-pvtz', properties = ['dipole'])
--------------------------------------------------------------------------

    Molecular point group: c1
  Charge       = 0
  Multiplicity = 1
  Basis Set: AUG-CC-PVTZ
    Blend: AUG-CC-PVTZ
  Basis Set: (AUG-CC-PVTZ AUX)
    Blend: AUG-CC-PVTZ-JKFIT

    Orbital Energies [Eh]
    ---------------------

    Doubly Occupied:

       1A    -20.609692     2A    -20.529178     3A    -11.377456
       4A    -11.292531     5A    -11.247743     6A    -11.241507
       7A    -11.230631     8A    -11.228649     9A    -11.226280
      10A    -11.220986    11A    -11.216931    12A     -1.464203
      13A     -1.324056    14A     -1.116127    15A     -1.063656
      16A     -1.026074    17A     -0.982648    18A     -0.924423
      19A     -0.881247    20A     -0.837299    21A     -0.776612
      22A     -0.724964    23A     -0.688378    24A     -0.682701
      25A     -0.661303    26A     -0.638921    27A     -0.623656
      28A     -0.604893    29A     -0.588685    30A     -0.578028
      31A     -0.558201    32A     -0.549520    33A     -0.532147
      34A     -0.525405    35A     -0.516934    36A     -0.512221
      37A     -0.510166    38A     -0.486080    39A     -0.482064
      40A     -0.468396    41A     -0.449423    42A     -0.437530
      43A     -0.349647

  @DF-RHF Final Energy:  -500.02947502291249

   => Energetics <=

    Nuclear Repulsion Energy =            602.9397965931680119
    One-Electron Energy =               -1875.9641565761244237
    Two-Electron Energy =                 772.9948849600439189
    Total Energy =                       -500.0294750229124929
  Basis Set: (AUG-CC-PVTZ AUX)
    Blend: AUG-CC-PVTZ-RI
    Molecular point group: c1

    Geometry (in Angstrom), charge = 0, multiplicity = 1:

       Center              X                  Y                   Z               Mass
    ------------   -----------------  -----------------  -----------------  -----------------
         O            1.073048925104     0.469360182113     0.010901690632    15.994914619570
         O            2.532534925104    -1.111815817887    -0.715191309368    15.994914619570
         C           -2.367952074896    -0.094323817887     0.295405690632    12.000000000000
         C           -3.596663074896     0.774998182113     0.403798690632    12.000000000000
         C           -1.261231074896     0.388273182113    -0.299412309368    12.000000000000
         C            0.009694925104    -0.337368817887    -0.565308309368    12.000000000000
         C           -2.511806074896    -1.480537817887     0.860109690632    12.000000000000
         C           -4.707672074896     0.349400182113    -0.562467309368    12.000000000000
         C            3.355989925104     0.868248182113     0.435213690632    12.000000000000
         C            2.276420425104    -0.016052417887    -0.137774409368    12.000000000000
         C            4.778237025104     0.341015382113     0.334797490632    12.000000000000
         H           -3.327696074896     1.817986182113     0.201805690632     1.007825032230
         H           -3.977575074896     0.740093182113     1.433158690632     1.007825032230
         H           -1.271665074896     1.418810182113    -0.653836309368     1.007825032230
         H            0.204463925104    -0.441405817887    -1.638652309368     1.007825032230
         H            0.048851925104    -1.337189817887    -0.128257309368     1.007825032230
         H           -2.793741074896    -1.421604817887     1.919788690632     1.007825032230
         H           -3.309266074896    -2.031804817887     0.347829690632     1.007825032230
         H           -1.599056074896    -2.074153817887     0.784419690632     1.007825032230
         H           -5.042236074896    -0.672755817887    -0.363475309368     1.007825032230
         H           -4.352173074896     0.394804182113    -1.595561309368     1.007825032230
         H           -5.576299074896     1.008726182113    -0.469806309368     1.007825032230
         H            3.269936925104     1.834731182113    -0.074202309368     1.007825032230
         H            3.088869925104     1.056779182113     1.479766690632     1.007825032230
         H            4.835364925104    -0.657512817887     0.832989690632     1.007825032230
         H            5.011819925104     0.123306182113    -0.737125309368     1.007825032230
         H            5.491939925104     0.987547182113     0.737606690632     1.007825032230

  Basis Set: AUG-CC-PVTZ
    Blend: AUG-CC-PVTZ
  Basis Set: (AUG-CC-PVTZ AUX)
    Blend: AUG-CC-PVTZ-JKFIT
	 Reference Energy          =    -500.0294750229124929 [Eh]
	 Singles Energy            =      -0.0000000000000000 [Eh]
	 Same-Spin Energy          =      -0.5102339673483280 [Eh]
	 Opposite-Spin Energy      =      -1.7176279474647131 [Eh]
	 Correlation Energy        =      -2.2278619148130412 [Eh]
	 Total Energy              =    -502.2573369377255403 [Eh]

	 ================> DF-SCS-MP2 Energies <==================
	-----------------------------------------------------------
	 SCS Same-Spin Scale       =       0.3333333333333333 [-]
	 SCS Opposite-Spin Scale   =       1.2000000000000000 [-]
	 SCS Same-Spin Energy      =      -0.1700779891161093 [Eh]
	 SCS Opposite-Spin Energy  =      -2.0611535369576557 [Eh]
	 SCS Correlation Energy    =      -2.2312315260737652 [Eh]
	 SCS Total Energy          =    -502.2607065489862634 [Eh]
	-----------------------------------------------------------

  Dipole Moment: [D]
     X:    -1.9288      Y:     1.3903      Z:     0.9248     Total:     2.5512

*** Psi4 exiting successfully. Buy a developer a beer!
