                               Psi4 1.3.2 release

  ==> Input File <==

--------------------------------------------------------------------------
#psi4
#
memory 32 gb

molecule  {
0 1
  O        1.0716460     0.4753830     0.0137820
  O        2.5311320    -1.1057930    -0.7123110
  C       -2.3693550    -0.0883010     0.2982860
  C       -3.5916632     0.7907394     0.4005167
  C       -1.2681829     0.4044606    -0.2984933
  C        0.0082920    -0.3313460    -0.5624280
  C       -2.5132090    -1.4745150     0.8629900
  C       -4.7090750     0.3554230    -0.5595870
  C        3.3545870     0.8742710     0.4380940
  C        2.3120420    -0.0450080    -0.1482500
  C        4.7580620     0.3036620     0.3135630
  H       -3.3290990     1.8240090     0.2046860
  H       -3.9789780     0.7461160     1.4360390
  H       -1.2730680     1.4248330    -0.6509560
  H        0.2030610    -0.4353830    -1.6357720
  H        0.0474490    -1.3311670    -0.1253770
  H       -2.7951440    -1.4155820     1.9226690
  H       -3.3106690    -2.0257820     0.3507100
  H       -1.6004590    -2.0681310     0.7873000
  H       -5.0436390    -0.6667330    -0.3605950
  H       -4.3535760     0.4008270    -1.5926810
  H       -5.5777020     1.0147490    -0.4669260
  H        3.2685340     1.8407540    -0.0713220
  H        3.0874670     1.0628020     1.4826470
  H        4.8339620    -0.6514900     0.8358700
  H        5.0104170     0.1293290    -0.7342450
  H        5.4905370     0.9935700     0.7404870
units angstrom
no_reorient  #important for SAPT in psi4, default
symmetry c1  #important for SAPT in psi4, default
}

set PROPERTIES_ORIGIN ["COM"]
properties('MP2/aug-cc-pvtz', properties = ['dipole'])
--------------------------------------------------------------------------

    Molecular point group: c1
  Charge       = 0
  Multiplicity = 1
  Basis Set: AUG-CC-PVTZ
    Blend: AUG-CC-PVTZ
  Basis Set: (AUG-CC-PVTZ AUX)
    Blend: AUG-CC-PVTZ-JKFIT

    Orbital Energies [Eh]
    ---------------------

    Doubly Occupied:

       1A    -20.597098     2A    -20.540652     3A    -11.375372
       4A    -11.286595     5A    -11.244140     6A    -11.242120
       7A    -11.227968     8A    -11.227027     9A    -11.222807
      10A    -11.219118    11A    -11.217816    12A     -1.447904
      13A     -1.347413    14A     -1.112168    15A     -1.063661
      16A     -1.020320    17A     -0.977526    18A     -0.920343
      19A     -0.878858    20A     -0.833215    21A     -0.767203
      22A     -0.723540    23A     -0.688121    24A     -0.679747
      25A     -0.660071    26A     -0.639119    27A     -0.622662
      28A     -0.605383    29A     -0.587640    30A     -0.573849
      31A     -0.553021    32A     -0.544301    33A     -0.533646
      34A     -0.522508    35A     -0.518011    36A     -0.514094
      37A     -0.512185    38A     -0.492296    39A     -0.484453
      40A     -0.465455    41A     -0.457216    42A     -0.444257
      43A     -0.345914

  @DF-RHF Final Energy:  -500.03825359773248

   => Energetics <=

    Nuclear Repulsion Energy =            602.9683167077961343
    One-Electron Energy =               -1876.1395166078107195
    Two-Electron Energy =                 773.1329463022819937
    Total Energy =                       -500.0382535977324778
  Basis Set: (AUG-CC-PVTZ AUX)
    Blend: AUG-CC-PVTZ-RI
    Molecular point group: c1

    Geometry (in Angstrom), charge = 0, multiplicity = 1:

       Center              X                  Y                   Z               Mass
    ------------   -----------------  -----------------  -----------------  -----------------
         O            1.071580292646     0.473854683386     0.014406360239    15.994914619570
         O            2.531066292646    -1.107321316614    -0.711686639761    15.994914619570
         C           -2.369420707354    -0.089829316614     0.298910360239    12.000000000000
         C           -3.591728907354     0.789211083386     0.401141060239    12.000000000000
         C           -1.268248607354     0.402932283386    -0.297868939761    12.000000000000
         C            0.008226292646    -0.332874316614    -0.561803639761    12.000000000000
         C           -2.513274707354    -1.476043316614     0.863614360239    12.000000000000
         C           -4.709140707354     0.353894683386    -0.558962639761    12.000000000000
         C            3.354521292646     0.872742683386     0.438718360239    12.000000000000
         C            2.311976292646    -0.046536316614    -0.147625639761    12.000000000000
         C            4.757996292646     0.302133683386     0.314187360239    12.000000000000
         H           -3.329164707354     1.822480683386     0.205310360239     1.007825032230
         H           -3.979043707354     0.744587683386     1.436663360239     1.007825032230
         H           -1.273133707354     1.423304683386    -0.650331639761     1.007825032230
         H            0.202995292646    -0.436911316614    -1.635147639761     1.007825032230
         H            0.047383292646    -1.332695316614    -0.124752639761     1.007825032230
         H           -2.795209707354    -1.417110316614     1.923293360239     1.007825032230
         H           -3.310734707354    -2.027310316614     0.351334360239     1.007825032230
         H           -1.600524707354    -2.069659316614     0.787924360239     1.007825032230
         H           -5.043704707354    -0.668261316614    -0.359970639761     1.007825032230
         H           -4.353641707354     0.399298683386    -1.592056639761     1.007825032230
         H           -5.577767707354     1.013220683386    -0.466301639761     1.007825032230
         H            3.268468292646     1.839225683386    -0.070697639761     1.007825032230
         H            3.087401292646     1.061273683386     1.483271360239     1.007825032230
         H            4.833896292646    -0.653018316614     0.836494360239     1.007825032230
         H            5.010351292646     0.127800683386    -0.733620639761     1.007825032230
         H            5.490471292646     0.992041683386     0.741111360239     1.007825032230

  Basis Set: AUG-CC-PVTZ
    Blend: AUG-CC-PVTZ
  Basis Set: (AUG-CC-PVTZ AUX)
    Blend: AUG-CC-PVTZ-JKFIT
	 Reference Energy          =    -500.0382535977324778 [Eh]
	 Singles Energy            =      -0.0000000000000000 [Eh]
	 Same-Spin Energy          =      -0.5096423963033244 [Eh]
	 Opposite-Spin Energy      =      -1.7167078151383466 [Eh]
	 Correlation Energy        =      -2.2263502114416709 [Eh]
	 Total Energy              =    -502.2646038091741616 [Eh]

	 ================> DF-SCS-MP2 Energies <==================
	-----------------------------------------------------------
	 SCS Same-Spin Scale       =       0.3333333333333333 [-]
	 SCS Opposite-Spin Scale   =       1.2000000000000000 [-]
	 SCS Same-Spin Energy      =      -0.1698807987677748 [Eh]
	 SCS Opposite-Spin Energy  =      -2.0600493781660156 [Eh]
	 SCS Correlation Energy    =      -2.2299301769337903 [Eh]
	 SCS Total Energy          =    -502.2681837746662836 [Eh]
	-----------------------------------------------------------

  Dipole Moment: [D]
     X:    -1.4456      Y:     1.1845      Z:     0.8315     Total:     2.0456

*** Psi4 exiting successfully. Buy a developer a beer!
