                               Psi4 1.3.2 release

  ==> Input File <==

--------------------------------------------------------------------------
#psi4
#
memory 32 gb

molecule  {
0 1
  O        1.0670360     0.4659566     0.0083339
  O        2.5311320    -1.1057930    -0.7123110
  C       -2.3693550    -0.0883010     0.2982860
  C       -3.5980660     0.7810210     0.4066790
  C       -1.2626340     0.3942960    -0.2965320
  C        0.0082920    -0.3313460    -0.5624280
  C       -2.5132090    -1.4745150     0.8629900
  C       -4.7090750     0.3554230    -0.5595870
  C        3.3640014     0.8658151     0.4344643
  C        2.3120420    -0.0450080    -0.1482500
  C        4.7580620     0.3036620     0.3135630
  H       -3.3290990     1.8240090     0.2046860
  H       -3.9789780     0.7461160     1.4360390
  H       -1.2730680     1.4248330    -0.6509560
  H        0.2030610    -0.4353830    -1.6357720
  H        0.0474490    -1.3311670    -0.1253770
  H       -2.7951440    -1.4155820     1.9226690
  H       -3.3106690    -2.0257820     0.3507100
  H       -1.6004590    -2.0681310     0.7873000
  H       -5.0436390    -0.6667330    -0.3605950
  H       -4.3535760     0.4008270    -1.5926810
  H       -5.5777020     1.0147490    -0.4669260
  H        3.2685340     1.8407540    -0.0713220
  H        3.0874670     1.0628020     1.4826470
  H        4.8339620    -0.6514900     0.8358700
  H        5.0104170     0.1293290    -0.7342450
  H        5.4905370     0.9935700     0.7404870
units angstrom
no_reorient  #important for SAPT in psi4, default
symmetry c1  #important for SAPT in psi4, default
}

set PROPERTIES_ORIGIN ["COM"]
properties('MP2/aug-cc-pvtz', properties = ['dipole'])
--------------------------------------------------------------------------

    Molecular point group: c1
  Charge       = 0
  Multiplicity = 1
  Basis Set: AUG-CC-PVTZ
    Blend: AUG-CC-PVTZ
  Basis Set: (AUG-CC-PVTZ AUX)
    Blend: AUG-CC-PVTZ-JKFIT

    Orbital Energies [Eh]
    ---------------------

    Doubly Occupied:

       1A    -20.597033     2A    -20.540219     3A    -11.375793
       4A    -11.285495     5A    -11.243980     6A    -11.243718
       7A    -11.228238     8A    -11.226145     9A    -11.222985
      10A    -11.219050    11A    -11.217958    12A     -1.449816
      13A     -1.348119    14A     -1.112250    15A     -1.065736
      16A     -1.022174    17A     -0.978206    18A     -0.920284
      19A     -0.879146    20A     -0.833566    21A     -0.767723
      22A     -0.722804    23A     -0.688793    24A     -0.680788
      25A     -0.660343    26A     -0.638224    27A     -0.623825
      28A     -0.605619    29A     -0.588466    30A     -0.574669
      31A     -0.552703    32A     -0.544447    33A     -0.533582
      34A     -0.525935    35A     -0.517091    36A     -0.515003
      37A     -0.511753    38A     -0.489992    39A     -0.483729
      40A     -0.465336    41A     -0.456401    42A     -0.444201
      43A     -0.345906

  @DF-RHF Final Energy:  -500.03858621118508

   => Energetics <=

    Nuclear Repulsion Energy =            603.3204800417594242
    One-Electron Energy =               -1876.8236467068611546
    Two-Electron Energy =                 773.4645804539165965
    Total Energy =                       -500.0385862111850201
  Basis Set: (AUG-CC-PVTZ AUX)
    Blend: AUG-CC-PVTZ-RI
    Molecular point group: c1

    Geometry (in Angstrom), charge = 0, multiplicity = 1:

       Center              X                  Y                   Z               Mass
    ------------   -----------------  -----------------  -----------------  -----------------
         O            1.066784599803     0.467572383374     0.009171020628    15.994914619570
         O            2.530880599803    -1.104177216626    -0.711473879372    15.994914619570
         C           -2.369606400197    -0.086685216626     0.299123120628    12.000000000000
         C           -3.598317400197     0.782636783374     0.407516120628    12.000000000000
         C           -1.262885400197     0.395911783374    -0.295694879372    12.000000000000
         C            0.008040599803    -0.329730216626    -0.561590879372    12.000000000000
         C           -2.513460400197    -1.472899216626     0.863827120628    12.000000000000
         C           -4.709326400197     0.357038783374    -0.558749879372    12.000000000000
         C            3.363749999803     0.867430883374     0.435301420628    12.000000000000
         C            2.311790599803    -0.043392216626    -0.147412879372    12.000000000000
         C            4.757810599803     0.305277783374     0.314400120628    12.000000000000
         H           -3.329350400197     1.825624783374     0.205523120628     1.007825032230
         H           -3.979229400197     0.747731783374     1.436876120628     1.007825032230
         H           -1.273319400197     1.426448783374    -0.650118879372     1.007825032230
         H            0.202809599803    -0.433767216626    -1.634934879372     1.007825032230
         H            0.047197599803    -1.329551216626    -0.124539879372     1.007825032230
         H           -2.795395400197    -1.413966216626     1.923506120628     1.007825032230
         H           -3.310920400197    -2.024166216626     0.351547120628     1.007825032230
         H           -1.600710400197    -2.066515216626     0.788137120628     1.007825032230
         H           -5.043890400197    -0.665117216626    -0.359757879372     1.007825032230
         H           -4.353827400197     0.402442783374    -1.591843879372     1.007825032230
         H           -5.577953400197     1.016364783374    -0.466088879372     1.007825032230
         H            3.268282599803     1.842369783374    -0.070484879372     1.007825032230
         H            3.087215599803     1.064417783374     1.483484120628     1.007825032230
         H            4.833710599803    -0.649874216626     0.836707120628     1.007825032230
         H            5.010165599803     0.130944783374    -0.733407879372     1.007825032230
         H            5.490285599803     0.995185783374     0.741324120628     1.007825032230

  Basis Set: AUG-CC-PVTZ
    Blend: AUG-CC-PVTZ
  Basis Set: (AUG-CC-PVTZ AUX)
    Blend: AUG-CC-PVTZ-JKFIT
	 Reference Energy          =    -500.0385862111850770 [Eh]
	 Singles Energy            =      -0.0000000000000000 [Eh]
	 Same-Spin Energy          =      -0.5097180596334678 [Eh]
	 Opposite-Spin Energy      =      -1.7165045416256222 [Eh]
	 Correlation Energy        =      -2.2262226012590900 [Eh]
	 Total Energy              =    -502.2648088124441870 [Eh]

	 ================> DF-SCS-MP2 Energies <==================
	-----------------------------------------------------------
	 SCS Same-Spin Scale       =       0.3333333333333333 [-]
	 SCS Opposite-Spin Scale   =       1.2000000000000000 [-]
	 SCS Same-Spin Energy      =      -0.1699060198778226 [Eh]
	 SCS Opposite-Spin Energy  =      -2.0598054499507463 [Eh]
	 SCS Correlation Energy    =      -2.2297114698285689 [Eh]
	 SCS Total Energy          =    -502.2682976810136211 [Eh]
	-----------------------------------------------------------

  Dipole Moment: [D]
     X:    -1.3960      Y:     1.2060      Z:     0.8488     Total:     2.0307

*** Psi4 exiting successfully. Buy a developer a beer!
