                               Psi4 1.3.2 release

  ==> Input File <==

--------------------------------------------------------------------------
#psi4
#
memory 32 gb

molecule  {
0 1
  O        1.0716460     0.4753830     0.0137820
  O        2.5311320    -1.1057930    -0.7123110
  C       -2.3640590    -0.0987041     0.2995834
  C       -3.5980660     0.7810210     0.4066790
  C       -1.2626340     0.3942960    -0.2965320
  C        0.0032811    -0.3420053    -0.5569726
  C       -2.5132090    -1.4745150     0.8629900
  C       -4.7090750     0.3554230    -0.5595870
  C        3.3545870     0.8742710     0.4380940
  C        2.3120420    -0.0450080    -0.1482500
  C        4.7580620     0.3036620     0.3135630
  H       -3.3290990     1.8240090     0.2046860
  H       -3.9789780     0.7461160     1.4360390
  H       -1.2730680     1.4248330    -0.6509560
  H        0.2030610    -0.4353830    -1.6357720
  H        0.0474490    -1.3311670    -0.1253770
  H       -2.7951440    -1.4155820     1.9226690
  H       -3.3106690    -2.0257820     0.3507100
  H       -1.6004590    -2.0681310     0.7873000
  H       -5.0436390    -0.6667330    -0.3605950
  H       -4.3535760     0.4008270    -1.5926810
  H       -5.5777020     1.0147490    -0.4669260
  H        3.2685340     1.8407540    -0.0713220
  H        3.0874670     1.0628020     1.4826470
  H        4.8339620    -0.6514900     0.8358700
  H        5.0104170     0.1293290    -0.7342450
  H        5.4905370     0.9935700     0.7404870
units angstrom
no_reorient  #important for SAPT in psi4, default
symmetry c1  #important for SAPT in psi4, default
}

set PROPERTIES_ORIGIN ["COM"]
properties('MP2/aug-cc-pvtz', properties = ['dipole'])
--------------------------------------------------------------------------

    Molecular point group: c1
  Charge       = 0
  Multiplicity = 1
  Basis Set: AUG-CC-PVTZ
    Blend: AUG-CC-PVTZ
  Basis Set: (AUG-CC-PVTZ AUX)
    Blend: AUG-CC-PVTZ-JKFIT

    Orbital Energies [Eh]
    ---------------------

    Doubly Occupied:

       1A    -20.596387     2A    -20.540176     3A    -11.374880
       4A    -11.286276     5A    -11.244250     6A    -11.241806
       7A    -11.228791     8A    -11.226553     9A    -11.223639
      10A    -11.219062    11A    -11.217596    12A     -1.446364
      13A     -1.346334    14A     -1.112635    15A     -1.063342
      16A     -1.021647    17A     -0.979206    18A     -0.919416
      19A     -0.878576    20A     -0.832895    21A     -0.766745
      22A     -0.722926    23A     -0.687093    24A     -0.679546
      25A     -0.659243    26A     -0.638542    27A     -0.623103
      28A     -0.605179    29A     -0.588133    30A     -0.574705
      31A     -0.553905    32A     -0.544342    33A     -0.534039
      34A     -0.522306    35A     -0.517748    36A     -0.514203
      37A     -0.512686    38A     -0.492210    39A     -0.484212
      40A     -0.464437    41A     -0.457484    42A     -0.443933
      43A     -0.346116

  @DF-RHF Final Energy:  -500.03794171504808

   => Energetics <=

    Nuclear Repulsion Energy =            603.0289718272127857
    One-Electron Energy =               -1876.2684915881218330
    Two-Electron Energy =                 773.2015780458608560
    Total Energy =                       -500.0379417150480776
  Basis Set: (AUG-CC-PVTZ AUX)
    Blend: AUG-CC-PVTZ-RI
    Molecular point group: c1

    Geometry (in Angstrom), charge = 0, multiplicity = 1:

       Center              X                  Y                   Z               Mass
    ------------   -----------------  -----------------  -----------------  -----------------
         O            1.071624014253     0.477002008796     0.013262864957    15.994914619570
         O            2.531110014253    -1.104173991204    -0.712830135043    15.994914619570
         C           -2.364080985747    -0.097085091204     0.299064264957    12.000000000000
         C           -3.598087985747     0.782640008796     0.406159864957    12.000000000000
         C           -1.262655985747     0.395915008796    -0.297051135043    12.000000000000
         C            0.003259114253    -0.340386291204    -0.557491735043    12.000000000000
         C           -2.513230985747    -1.472895991204     0.862470864957    12.000000000000
         C           -4.709096985747     0.357042008796    -0.560106135043    12.000000000000
         C            3.354565014253     0.875890008796     0.437574864957    12.000000000000
         C            2.312020014253    -0.043388991204    -0.148769135043    12.000000000000
         C            4.758040014253     0.305281008796     0.313043864957    12.000000000000
         H           -3.329120985747     1.825628008796     0.204166864957     1.007825032230
         H           -3.978999985747     0.747735008796     1.435519864957     1.007825032230
         H           -1.273089985747     1.426452008796    -0.651475135043     1.007825032230
         H            0.203039014253    -0.433763991204    -1.636291135043     1.007825032230
         H            0.047427014253    -1.329547991204    -0.125896135043     1.007825032230
         H           -2.795165985747    -1.413962991204     1.922149864957     1.007825032230
         H           -3.310690985747    -2.024162991204     0.350190864957     1.007825032230
         H           -1.600480985747    -2.066511991204     0.786780864957     1.007825032230
         H           -5.043660985747    -0.665113991204    -0.361114135043     1.007825032230
         H           -4.353597985747     0.402446008796    -1.593200135043     1.007825032230
         H           -5.577723985747     1.016368008796    -0.467445135043     1.007825032230
         H            3.268512014253     1.842373008796    -0.071841135043     1.007825032230
         H            3.087445014253     1.064421008796     1.482127864957     1.007825032230
         H            4.833940014253    -0.649870991204     0.835350864957     1.007825032230
         H            5.010395014253     0.130948008796    -0.734764135043     1.007825032230
         H            5.490515014253     0.995189008796     0.739967864957     1.007825032230

  Basis Set: AUG-CC-PVTZ
    Blend: AUG-CC-PVTZ
  Basis Set: (AUG-CC-PVTZ AUX)
    Blend: AUG-CC-PVTZ-JKFIT
	 Reference Energy          =    -500.0379417150480776 [Eh]
	 Singles Energy            =      -0.0000000000000000 [Eh]
	 Same-Spin Energy          =      -0.5097728222610056 [Eh]
	 Opposite-Spin Energy      =      -1.7169035982519181 [Eh]
	 Correlation Energy        =      -2.2266764205129235 [Eh]
	 Total Energy              =    -502.2646181355610224 [Eh]

	 ================> DF-SCS-MP2 Energies <==================
	-----------------------------------------------------------
	 SCS Same-Spin Scale       =       0.3333333333333333 [-]
	 SCS Opposite-Spin Scale   =       1.2000000000000000 [-]
	 SCS Same-Spin Energy      =      -0.1699242740870019 [Eh]
	 SCS Opposite-Spin Energy  =      -2.0602843179023016 [Eh]
	 SCS Correlation Energy    =      -2.2302085919893035 [Eh]
	 SCS Total Energy          =    -502.2681503070373878 [Eh]
	-----------------------------------------------------------

  Dipole Moment: [D]
     X:    -1.4768      Y:     1.1589      Z:     0.8411     Total:     2.0570

*** Psi4 exiting successfully. Buy a developer a beer!
