                               Psi4 1.4a3.dev225

  ==> Input File <==

--------------------------------------------------------------------------
#psi4
#
memory 32 gb

molecule  {
0 1
  O       -1.1411000    -0.4541930    -0.0251880
  O       -2.5814580     1.1752260    -0.6867450
  C        2.3134570     0.0186930     0.2462000
  C        3.5222300    -0.8802230     0.3222130
  C        1.1937340    -0.4134970    -0.3651820
  C       -0.0277505     0.3820332    -0.5973827
  C        2.4850690     1.3863280     0.8546590
  C        4.7190700    -0.3405130    -0.4677320
  C       -3.4286640    -0.8122060     0.4327630
  C       -2.3749380     0.0938890    -0.1583950
  C       -4.8282690    -0.2261570     0.3119590
  H        3.2581340    -1.8761120    -0.0507320
  H        3.8122360    -1.0018650     1.3748590
  H        1.1815530    -1.4238220    -0.7735790
  H       -0.2705280     0.5138520    -1.6430550
  H       -0.0714200     1.3330110    -0.0949940
  H        3.0182560     1.3061200     1.8081990
  H        3.0814560     2.0379150     0.2067330
  H        1.5342700     1.8877430     1.0433380
  H        5.0646870     0.6170420    -0.0694620
  H        4.4484560    -0.1949880    -1.5176090
  H        5.5583810    -1.0408350    -0.4253590
  H       -3.3536290    -1.7820470    -0.0715700
  H       -3.1585900    -0.9983310     1.4781360
  H       -4.8922970     0.7333770     0.8287030
  H       -5.0879650    -0.0561110    -0.7346540
  H       -5.5642940    -0.9066400     0.7478690
units angstrom
no_reorient  #important for SAPT in psi4, default
symmetry c1  #important for SAPT in psi4, default
}

set PROPERTIES_ORIGIN ["COM"]
properties('MP2/aug-cc-pvtz', properties = ['dipole'])
--------------------------------------------------------------------------

    Molecular point group: c1
  Charge       = 0
  Multiplicity = 1
  Basis Set: AUG-CC-PVTZ
    Blend: AUG-CC-PVTZ
  Basis Set: (AUG-CC-PVTZ AUX)
    Blend: AUG-CC-PVTZ-JKFIT

    Orbital Energies [Eh]
    ---------------------

    Doubly Occupied:

       1A    -20.590971     2A    -20.537155     3A    -11.371936
       4A    -11.288021     5A    -11.246605     6A    -11.240199
       7A    -11.229866     8A    -11.227787     9A    -11.224601
      10A    -11.220575    11A    -11.216459    12A     -1.436105
      13A     -1.339092    14A     -1.114889    15A     -1.060264
      16A     -1.024513    17A     -0.978093    18A     -0.919453
      19A     -0.879541    20A     -0.834106    21A     -0.760765
      22A     -0.722787    23A     -0.683576    24A     -0.677047
      25A     -0.654152    26A     -0.637898    27A     -0.625955
      28A     -0.602890    29A     -0.590010    30A     -0.572231
      31A     -0.554582    32A     -0.546648    33A     -0.536387
      34A     -0.521014    35A     -0.517364    36A     -0.514588
      37A     -0.508393    38A     -0.491311    39A     -0.486123
      40A     -0.469197    41A     -0.456037    42A     -0.440919
      43A     -0.347688

  @DF-RHF Final Energy:  -500.03580407263473

   => Energetics <=

    Nuclear Repulsion Energy =            601.9820500966427517
    One-Electron Energy =               -1874.2401206073263893
    Two-Electron Energy =                 772.2222664380489050
    Total Energy =                       -500.0358040726347326
  Basis Set: (AUG-CC-PVTZ AUX)
    Blend: AUG-CC-PVTZ-RI
    Molecular point group: c1

    Geometry (in Angstrom), charge = 0, multiplicity = 1:

       Center              X                  Y                   Z               Mass
    ------------   -----------------  -----------------  -----------------  -----------------
         O           -1.089669607688    -0.461717401496    -0.010360657651    15.994914619570
         O           -2.530027607688     1.167701598504    -0.671917657651    15.994914619570
         C            2.364887392312     0.011168598504     0.261027342349    12.000000000000
         C            3.573660392312    -0.887747401496     0.337040342349    12.000000000000
         C            1.245164392312    -0.421021401496    -0.350354657651    12.000000000000
         C            0.023679892312     0.374508798504    -0.582555357651    12.000000000000
         C            2.536499392312     1.378803598504     0.869486342349    12.000000000000
         C            4.770500392312    -0.348037401496    -0.452904657651    12.000000000000
         C           -3.377233607688    -0.819730401496     0.447590342349    12.000000000000
         C           -2.323507607688     0.086364598504    -0.143567657651    12.000000000000
         C           -4.776838607688    -0.233681401496     0.326786342349    12.000000000000
         H            3.309564392312    -1.883636401496    -0.035904657651     1.007825032230
         H            3.863666392312    -1.009389401496     1.389686342349     1.007825032230
         H            1.232983392312    -1.431346401496    -0.758751657651     1.007825032230
         H           -0.219097607688     0.506327598504    -1.628227657651     1.007825032230
         H           -0.019989607688     1.325486598504    -0.080166657651     1.007825032230
         H            3.069686392312     1.298595598504     1.823026342349     1.007825032230
         H            3.132886392312     2.030390598504     0.221560342349     1.007825032230
         H            1.585700392312     1.880218598504     1.058165342349     1.007825032230
         H            5.116117392312     0.609517598504    -0.054634657651     1.007825032230
         H            4.499886392312    -0.202512401496    -1.502781657651     1.007825032230
         H            5.609811392312    -1.048359401496    -0.410531657651     1.007825032230
         H           -3.302198607688    -1.789571401496    -0.056742657651     1.007825032230
         H           -3.107159607688    -1.005855401496     1.492963342349     1.007825032230
         H           -4.840866607688     0.725852598504     0.843530342349     1.007825032230
         H           -5.036534607688    -0.063635401496    -0.719826657651     1.007825032230
         H           -5.512863607688    -0.914164401496     0.762696342349     1.007825032230

  Basis Set: AUG-CC-PVTZ
    Blend: AUG-CC-PVTZ
  Basis Set: (AUG-CC-PVTZ AUX)
    Blend: AUG-CC-PVTZ-JKFIT
	 Reference Energy          =    -500.0358040726347326 [Eh]
	 Singles Energy            =      -0.0000000000000000 [Eh]
	 Same-Spin Energy          =      -0.5099458863215893 [Eh]
	 Opposite-Spin Energy      =      -1.7176384468897643 [Eh]
	 Correlation Energy        =      -2.2275843332113539 [Eh]
	 Total Energy              =    -502.2633884058460580 [Eh]

	 ================> DF-SCS-MP2 Energies <==================
	-----------------------------------------------------------
	 SCS Same-Spin Scale       =       0.3333333333333333 [-]
	 SCS Opposite-Spin Scale   =       1.2000000000000000 [-]
	 SCS Same-Spin Energy      =      -0.1699819621071964 [Eh]
	 SCS Opposite-Spin Energy  =      -2.0611661362677172 [Eh]
	 SCS Correlation Energy    =      -2.2311480983749137 [Eh]
	 SCS Total Energy          =    -502.2669521710096205 [Eh]
	-----------------------------------------------------------

  Dipole Moment: [D]
     X:     1.6984      Y:    -1.1504      Z:     0.7541     Total:     2.1855

*** Psi4 exiting successfully. Buy a developer a beer!
