                               Psi4 1.3.2 release

  ==> Input File <==

--------------------------------------------------------------------------
#psi4
#
memory 32 gb

molecule  {
0 1
  O        1.0716460     0.4753830     0.0137820
  O        2.5311320    -1.1057930    -0.7123110
  C       -2.3693550    -0.0883010     0.2982860
  C       -3.5980660     0.7810210     0.4066790
  C       -1.2626340     0.3942960    -0.2965320
  C        0.0082920    -0.3313460    -0.5624280
  C       -2.5132090    -1.4745150     0.8629900
  C       -4.7090750     0.3554230    -0.5595870
  C        3.3545870     0.8742710     0.4380940
  C        2.3120420    -0.0450080    -0.1482500
  C        4.7580620     0.3036620     0.3135630
  H       -3.3290990     1.8240090     0.2046860
  H       -3.9789780     0.7461160     1.4360390
  H       -1.2730680     1.4248330    -0.6509560
  H        0.2030610    -0.4353830    -1.6357720
  H        0.0474490    -1.3311670    -0.1253770
  H       -2.7951440    -1.4155820     1.9226690
  H       -3.3106690    -2.0257820     0.3507100
  H       -1.6004590    -2.0681310     0.7873000
  H       -5.0436390    -0.6667330    -0.3605950
  H       -4.3535760     0.4008270    -1.5926810
  H       -5.5777020     1.0147490    -0.4669260
  H        3.2685340     1.8407540    -0.0713220
  H        3.1118721     1.0455771     1.3872128
  H        4.8339620    -0.6514900     0.8358700
  H        5.0104170     0.1293290    -0.7342450
  H        5.4905370     0.9935700     0.7404870
units angstrom
no_reorient  #important for SAPT in psi4, default
symmetry c1  #important for SAPT in psi4, default
}

set PROPERTIES_ORIGIN ["COM"]
properties('MP2/aug-cc-pvtz', properties = ['dipole'])
--------------------------------------------------------------------------

    Molecular point group: c1
  Charge       = 0
  Multiplicity = 1
  Basis Set: AUG-CC-PVTZ
    Blend: AUG-CC-PVTZ
  Basis Set: (AUG-CC-PVTZ AUX)
    Blend: AUG-CC-PVTZ-JKFIT

    Orbital Energies [Eh]
    ---------------------

    Doubly Occupied:

       1A    -20.597538     2A    -20.540290     3A    -11.374847
       4A    -11.286592     5A    -11.244338     6A    -11.230185
       7A    -11.228477     8A    -11.226467     9A    -11.223355
      10A    -11.219255    11A    -11.217103    12A     -1.448118
      13A     -1.347345    14A     -1.112669    15A     -1.069439
      16A     -1.022356    17A     -0.978033    18A     -0.919850
      19A     -0.881709    20A     -0.834811    21A     -0.769873
      22A     -0.725332    23A     -0.689683    24A     -0.681041
      25A     -0.662034    26A     -0.642221    27A     -0.623663
      28A     -0.608103    29A     -0.588188    30A     -0.574423
      31A     -0.552871    32A     -0.544509    33A     -0.533553
      34A     -0.523702    35A     -0.518823    36A     -0.514474
      37A     -0.512218    38A     -0.496620    39A     -0.483967
      40A     -0.465753    41A     -0.457251    42A     -0.444467
      43A     -0.346159

  @DF-RHF Final Energy:  -500.03234383750890

   => Energetics <=

    Nuclear Repulsion Energy =            603.5715358489060236
    One-Electron Energy =               -1877.2843458864533659
    Two-Electron Energy =                 773.6804662000383814
    Total Energy =                       -500.0323438375089609
  Basis Set: (AUG-CC-PVTZ AUX)
    Blend: AUG-CC-PVTZ-RI
    Molecular point group: c1

    Geometry (in Angstrom), charge = 0, multiplicity = 1:

       Center              X                  Y                   Z               Mass
    ------------   -----------------  -----------------  -----------------  -----------------
         O            1.071488377916     0.475494216017     0.014398018798    15.994914619570
         O            2.530974377916    -1.105681783983    -0.711694981202    15.994914619570
         C           -2.369512622084    -0.088189783983     0.298902018798    12.000000000000
         C           -3.598223622084     0.781132216017     0.407295018798    12.000000000000
         C           -1.262791622084     0.394407216017    -0.295915981202    12.000000000000
         C            0.008134377916    -0.331234783983    -0.561811981202    12.000000000000
         C           -2.513366622084    -1.474403783983     0.863606018798    12.000000000000
         C           -4.709232622084     0.355534216017    -0.558970981202    12.000000000000
         C            3.354429377916     0.874382216017     0.438710018798    12.000000000000
         C            2.311884377916    -0.044896783983    -0.147633981202    12.000000000000
         C            4.757904377916     0.303773216017     0.314179018798    12.000000000000
         H           -3.329256622084     1.824120216017     0.205302018798     1.007825032230
         H           -3.979135622084     0.746227216017     1.436655018798     1.007825032230
         H           -1.273225622084     1.424944216017    -0.650339981202     1.007825032230
         H            0.202903377916    -0.435271783983    -1.635155981202     1.007825032230
         H            0.047291377916    -1.331055783983    -0.124760981202     1.007825032230
         H           -2.795301622084    -1.415470783983     1.923285018798     1.007825032230
         H           -3.310826622084    -2.025670783983     0.351326018798     1.007825032230
         H           -1.600616622084    -2.068019783983     0.787916018798     1.007825032230
         H           -5.043796622084    -0.666621783983    -0.359978981202     1.007825032230
         H           -4.353733622084     0.400938216017    -1.592064981202     1.007825032230
         H           -5.577859622084     1.014860216017    -0.466309981202     1.007825032230
         H            3.268376377916     1.840865216017    -0.070705981202     1.007825032230
         H            3.111714477916     1.045688316017     1.387828818798     1.007825032230
         H            4.833804377916    -0.651378783983     0.836486018798     1.007825032230
         H            5.010259377916     0.129440216017    -0.733628981202     1.007825032230
         H            5.490379377916     0.993681216017     0.741103018798     1.007825032230

  Basis Set: AUG-CC-PVTZ
    Blend: AUG-CC-PVTZ
  Basis Set: (AUG-CC-PVTZ AUX)
    Blend: AUG-CC-PVTZ-JKFIT
	 Reference Energy          =    -500.0323438375089040 [Eh]
	 Singles Energy            =      -0.0000000000000000 [Eh]
	 Same-Spin Energy          =      -0.5097480813447134 [Eh]
	 Opposite-Spin Energy      =      -1.7163405133616920 [Eh]
	 Correlation Energy        =      -2.2260885947064053 [Eh]
	 Total Energy              =    -502.2584324322153293 [Eh]

	 ================> DF-SCS-MP2 Energies <==================
	-----------------------------------------------------------
	 SCS Same-Spin Scale       =       0.3333333333333333 [-]
	 SCS Opposite-Spin Scale   =       1.2000000000000000 [-]
	 SCS Same-Spin Energy      =      -0.1699160271149044 [Eh]
	 SCS Opposite-Spin Energy  =      -2.0596086160340303 [Eh]
	 SCS Correlation Energy    =      -2.2295246431489346 [Eh]
	 SCS Total Energy          =    -502.2618684806578244 [Eh]
	-----------------------------------------------------------

  Dipole Moment: [D]
     X:    -1.4669      Y:     1.1927      Z:     0.8519     Total:     2.0736

*** Psi4 exiting successfully. Buy a developer a beer!
