                               Psi4 1.3.2 release

  ==> Input File <==

--------------------------------------------------------------------------
#psi4
#
memory 32 gb

molecule  {
0 1
  O        1.0716460     0.4753830     0.0137820
  O        2.5311320    -1.1057930    -0.7123110
  C       -2.3639734    -0.0986303     0.2998026
  C       -3.5980660     0.7810210     0.4066790
  C       -1.2626340     0.3942960    -0.2965320
  C        0.0082920    -0.3313460    -0.5624280
  C       -2.5132090    -1.4745150     0.8629900
  C       -4.7090750     0.3554230    -0.5595870
  C        3.3545870     0.8742710     0.4380940
  C        2.3120420    -0.0450080    -0.1482500
  C        4.7580620     0.3036620     0.3135630
  H       -3.3290990     1.8240090     0.2046860
  H       -3.9789780     0.7461160     1.4360390
  H       -1.2641323     1.4238157    -0.6540494
  H        0.2030610    -0.4353830    -1.6357720
  H        0.0474490    -1.3311670    -0.1253770
  H       -2.7951440    -1.4155820     1.9226690
  H       -3.3106690    -2.0257820     0.3507100
  H       -1.6004590    -2.0681310     0.7873000
  H       -5.0436390    -0.6667330    -0.3605950
  H       -4.3535760     0.4008270    -1.5926810
  H       -5.5777020     1.0147490    -0.4669260
  H        3.2685340     1.8407540    -0.0713220
  H        3.0874670     1.0628020     1.4826470
  H        4.8339620    -0.6514900     0.8358700
  H        5.0104170     0.1293290    -0.7342450
  H        5.4905370     0.9935700     0.7404870
units angstrom
no_reorient  #important for SAPT in psi4, default
symmetry c1  #important for SAPT in psi4, default
}

set PROPERTIES_ORIGIN ["COM"]
properties('MP2/aug-cc-pvtz', properties = ['dipole'])
--------------------------------------------------------------------------

    Molecular point group: c1
  Charge       = 0
  Multiplicity = 1
  Basis Set: AUG-CC-PVTZ
    Blend: AUG-CC-PVTZ
  Basis Set: (AUG-CC-PVTZ AUX)
    Blend: AUG-CC-PVTZ-JKFIT

    Orbital Energies [Eh]
    ---------------------

    Doubly Occupied:

       1A    -20.597163     2A    -20.540668     3A    -11.375419
       4A    -11.285965     5A    -11.244391     6A    -11.242143
       7A    -11.228696     8A    -11.226357     9A    -11.223427
      10A    -11.218956    11A    -11.217829    12A     -1.447998
      13A     -1.347496    14A     -1.112290    15A     -1.063774
      16A     -1.021454    17A     -0.979278    18A     -0.919464
      19A     -0.878544    20A     -0.832678    21A     -0.767370
      22A     -0.723223    23A     -0.687792    24A     -0.679937
      25A     -0.659961    26A     -0.638815    27A     -0.623068
      28A     -0.605270    29A     -0.588067    30A     -0.574882
      31A     -0.553387    32A     -0.544517    33A     -0.534055
      34A     -0.522555    35A     -0.517812    36A     -0.514389
      37A     -0.511881    38A     -0.492197    39A     -0.484108
      40A     -0.463892    41A     -0.457192    42A     -0.444326
      43A     -0.346159

  @DF-RHF Final Energy:  -500.03815943366214

   => Energetics <=

    Nuclear Repulsion Energy =            603.0942825937183898
    One-Electron Energy =               -1876.3871918059728614
    Two-Electron Energy =                 773.2547497785923269
    Total Energy =                       -500.0381594336621447
  Basis Set: (AUG-CC-PVTZ AUX)
    Blend: AUG-CC-PVTZ-RI
    Molecular point group: c1

    Geometry (in Angstrom), charge = 0, multiplicity = 1:

       Center              X                  Y                   Z               Mass
    ------------   -----------------  -----------------  -----------------  -----------------
         O            1.071174578845     0.476183561400     0.013685322718    15.994914619570
         O            2.530660578845    -1.104992438600    -0.712407677282    15.994914619570
         C           -2.364444821155    -0.097829738600     0.299705922718    12.000000000000
         C           -3.598537421155     0.781821561400     0.406582322718    12.000000000000
         C           -1.263105421155     0.395096561400    -0.296628677282    12.000000000000
         C            0.007820578845    -0.330545438600    -0.562524677282    12.000000000000
         C           -2.513680421155    -1.473714438600     0.862893322718    12.000000000000
         C           -4.709546421155     0.356223561400    -0.559683677282    12.000000000000
         C            3.354115578845     0.875071561400     0.437997322718    12.000000000000
         C            2.311570578845    -0.044207438600    -0.148346677282    12.000000000000
         C            4.757590578844     0.304462561400     0.313466322718    12.000000000000
         H           -3.329570421155     1.824809561400     0.204589322718     1.007825032230
         H           -3.979449421155     0.746916561400     1.435942322718     1.007825032230
         H           -1.264603721155     1.424616261400    -0.654146077282     1.007825032230
         H            0.202589578845    -0.434582438600    -1.635868677282     1.007825032230
         H            0.046977578845    -1.330366438600    -0.125473677282     1.007825032230
         H           -2.795615421155    -1.414781438600     1.922572322718     1.007825032230
         H           -3.311140421155    -2.024981438600     0.350613322718     1.007825032230
         H           -1.600930421155    -2.067330438600     0.787203322718     1.007825032230
         H           -5.044110421155    -0.665932438600    -0.360691677282     1.007825032230
         H           -4.354047421155     0.401627561400    -1.592777677282     1.007825032230
         H           -5.578173421155     1.015549561400    -0.467022677282     1.007825032230
         H            3.268062578845     1.841554561400    -0.071418677282     1.007825032230
         H            3.086995578845     1.063602561400     1.482550322718     1.007825032230
         H            4.833490578844    -0.650689438600     0.835773322718     1.007825032230
         H            5.009945578845     0.130129561400    -0.734341677282     1.007825032230
         H            5.490065578845     0.994370561400     0.740390322718     1.007825032230

  Basis Set: AUG-CC-PVTZ
    Blend: AUG-CC-PVTZ
  Basis Set: (AUG-CC-PVTZ AUX)
    Blend: AUG-CC-PVTZ-JKFIT
	 Reference Energy          =    -500.0381594336621447 [Eh]
	 Singles Energy            =      -0.0000000000000000 [Eh]
	 Same-Spin Energy          =      -0.5097530461966079 [Eh]
	 Opposite-Spin Energy      =      -1.7168216306911641 [Eh]
	 Correlation Energy        =      -2.2265746768877719 [Eh]
	 Total Energy              =    -502.2647341105499095 [Eh]

	 ================> DF-SCS-MP2 Energies <==================
	-----------------------------------------------------------
	 SCS Same-Spin Scale       =       0.3333333333333333 [-]
	 SCS Opposite-Spin Scale   =       1.2000000000000000 [-]
	 SCS Same-Spin Energy      =      -0.1699176820655360 [Eh]
	 SCS Opposite-Spin Energy  =      -2.0601859568293968 [Eh]
	 SCS Correlation Energy    =      -2.2301036388949327 [Eh]
	 SCS Total Energy          =    -502.2682630725570903 [Eh]
	-----------------------------------------------------------

  Dipole Moment: [D]
     X:    -1.4449      Y:     1.1723      Z:     0.8363     Total:     2.0399

*** Psi4 exiting successfully. Buy a developer a beer!
