                               Psi4 1.3.2 release

  ==> Input File <==

--------------------------------------------------------------------------
#psi4
#
memory 32 gb

molecule  {
0 1
  O        1.0716460     0.4753830     0.0137820
  O        2.5311320    -1.1057930    -0.7123110
  C       -2.3693550    -0.0883010     0.2982860
  C       -3.5980660     0.7810210     0.4066790
  C       -1.2626340     0.3942960    -0.2965320
  C        0.0131125    -0.3207100    -0.5680963
  C       -2.5132090    -1.4745150     0.8629900
  C       -4.7090750     0.3554230    -0.5595870
  C        3.3545870     0.8742710     0.4380940
  C        2.3120420    -0.0450080    -0.1482500
  C        4.7580620     0.3036620     0.3135630
  H       -3.3290990     1.8240090     0.2046860
  H       -3.9789780     0.7461160     1.4360390
  H       -1.2641935     1.4237621    -0.6542035
  H        0.2030610    -0.4353830    -1.6357720
  H        0.0474490    -1.3311670    -0.1253770
  H       -2.7951440    -1.4155820     1.9226690
  H       -3.3106690    -2.0257820     0.3507100
  H       -1.6004590    -2.0681310     0.7873000
  H       -5.0436390    -0.6667330    -0.3605950
  H       -4.3535760     0.4008270    -1.5926810
  H       -5.5777020     1.0147490    -0.4669260
  H        3.2685340     1.8407540    -0.0713220
  H        3.0874670     1.0628020     1.4826470
  H        4.8339620    -0.6514900     0.8358700
  H        5.0104170     0.1293290    -0.7342450
  H        5.4905370     0.9935700     0.7404870
units angstrom
no_reorient  #important for SAPT in psi4, default
symmetry c1  #important for SAPT in psi4, default
}

set PROPERTIES_ORIGIN ["COM"]
properties('MP2/aug-cc-pvtz', properties = ['dipole'])
--------------------------------------------------------------------------

    Molecular point group: c1
  Charge       = 0
  Multiplicity = 1
  Basis Set: AUG-CC-PVTZ
    Blend: AUG-CC-PVTZ
  Basis Set: (AUG-CC-PVTZ AUX)
    Blend: AUG-CC-PVTZ-JKFIT

    Orbital Energies [Eh]
    ---------------------

    Doubly Occupied:

       1A    -20.598049     2A    -20.541232     3A    -11.376034
       4A    -11.286257     5A    -11.244427     6A    -11.242516
       7A    -11.228335     8A    -11.226221     9A    -11.223114
      10A    -11.219111    11A    -11.218089    12A     -1.449723
      13A     -1.348712    14A     -1.112190    15A     -1.064328
      16A     -1.021628    17A     -0.978059    18A     -0.919709
      19A     -0.879115    20A     -0.833354    21A     -0.768106
      22A     -0.723018    23A     -0.688523    24A     -0.680422
      25A     -0.660821    26A     -0.638876    27A     -0.623750
      28A     -0.605323    29A     -0.588001    30A     -0.574575
      31A     -0.552318    32A     -0.544848    33A     -0.533674
      34A     -0.522536    35A     -0.517863    36A     -0.514560
      37A     -0.511079    38A     -0.492216    39A     -0.483817
      40A     -0.465197    41A     -0.456746    42A     -0.444780
      43A     -0.346151

  @DF-RHF Final Energy:  -500.03819570289977

   => Energetics <=

    Nuclear Repulsion Energy =            603.1410246574042731
    One-Electron Energy =               -1876.4636308386925521
    Two-Electron Energy =                 773.2844104783886223
    Total Energy =                       -500.0381957028997704
  Basis Set: (AUG-CC-PVTZ AUX)
    Blend: AUG-CC-PVTZ-RI
    Molecular point group: c1

    Geometry (in Angstrom), charge = 0, multiplicity = 1:

       Center              X                  Y                   Z               Mass
    ------------   -----------------  -----------------  -----------------  -----------------
         O            1.071218103667     0.474572380330     0.014238594917    15.994914619570
         O            2.530704103667    -1.106603619670    -0.711854405083    15.994914619570
         C           -2.369782896333    -0.089111619670     0.298742594917    12.000000000000
         C           -3.598493896333     0.780210380330     0.407135594917    12.000000000000
         C           -1.263061896333     0.393485380330    -0.296075405083    12.000000000000
         C            0.012684603667    -0.321520619670    -0.567639705083    12.000000000000
         C           -2.513636896333    -1.475325619670     0.863446594917    12.000000000000
         C           -4.709502896333     0.354612380330    -0.559130405083    12.000000000000
         C            3.354159103667     0.873460380330     0.438550594917    12.000000000000
         C            2.311614103667    -0.045818619670    -0.147793405083    12.000000000000
         C            4.757634103667     0.302851380330     0.314019594917    12.000000000000
         H           -3.329526896333     1.823198380330     0.205142594917     1.007825032230
         H           -3.979405896333     0.745305380330     1.436495594917     1.007825032230
         H           -1.264621396333     1.422951480330    -0.653746905083     1.007825032230
         H            0.202633103667    -0.436193619670    -1.635315405083     1.007825032230
         H            0.047021103667    -1.331977619670    -0.124920405083     1.007825032230
         H           -2.795571896333    -1.416392619670     1.923125594917     1.007825032230
         H           -3.311096896333    -2.026592619670     0.351166594917     1.007825032230
         H           -1.600886896333    -2.068941619670     0.787756594917     1.007825032230
         H           -5.044066896333    -0.667543619670    -0.360138405083     1.007825032230
         H           -4.354003896333     0.400016380330    -1.592224405083     1.007825032230
         H           -5.578129896333     1.013938380330    -0.466469405083     1.007825032230
         H            3.268106103667     1.839943380330    -0.070865405083     1.007825032230
         H            3.087039103667     1.061991380330     1.483103594917     1.007825032230
         H            4.833534103667    -0.652300619670     0.836326594917     1.007825032230
         H            5.009989103667     0.128518380330    -0.733788405083     1.007825032230
         H            5.490109103667     0.992759380330     0.740943594917     1.007825032230

  Basis Set: AUG-CC-PVTZ
    Blend: AUG-CC-PVTZ
  Basis Set: (AUG-CC-PVTZ AUX)
    Blend: AUG-CC-PVTZ-JKFIT
	 Reference Energy          =    -500.0381957028997704 [Eh]
	 Singles Energy            =      -0.0000000000000000 [Eh]
	 Same-Spin Energy          =      -0.5097468031578880 [Eh]
	 Opposite-Spin Energy      =      -1.7167671645252232 [Eh]
	 Correlation Energy        =      -2.2265139676831112 [Eh]
	 Total Energy              =    -502.2647096705828744 [Eh]

	 ================> DF-SCS-MP2 Energies <==================
	-----------------------------------------------------------
	 SCS Same-Spin Scale       =       0.3333333333333333 [-]
	 SCS Opposite-Spin Scale   =       1.2000000000000000 [-]
	 SCS Same-Spin Energy      =      -0.1699156010526293 [Eh]
	 SCS Opposite-Spin Energy  =      -2.0601205974302679 [Eh]
	 SCS Correlation Energy    =      -2.2300361984828974 [Eh]
	 SCS Total Energy          =    -502.2682319013826486 [Eh]
	-----------------------------------------------------------

  Dipole Moment: [D]
     X:    -1.4165      Y:     1.1957      Z:     0.8270     Total:     2.0298

*** Psi4 exiting successfully. Buy a developer a beer!
