                               Psi4 1.3.2 release

  ==> Input File <==

--------------------------------------------------------------------------
#psi4
#
memory 32 gb

molecule  {
0 1
  O        1.0716460     0.4753830     0.0137820
  O        2.5935538    -1.0963520    -0.7021968
  C       -2.3693550    -0.0883010     0.2982860
  C       -3.5980660     0.7810210     0.4066790
  C       -1.2626340     0.3942960    -0.2965320
  C        0.0082920    -0.3313460    -0.5624280
  C       -2.5132090    -1.4745150     0.8629900
  C       -4.7090750     0.3554230    -0.5595870
  C        3.4099606     0.8231542     0.4144598
  C        2.3120420    -0.0450080    -0.1482500
  C        4.7580620     0.3036620     0.3135630
  H       -3.3290990     1.8240090     0.2046860
  H       -3.9789780     0.7461160     1.4360390
  H       -1.2730680     1.4248330    -0.6509560
  H        0.2030610    -0.4353830    -1.6357720
  H        0.0474490    -1.3311670    -0.1253770
  H       -2.7951440    -1.4155820     1.9226690
  H       -3.3106690    -2.0257820     0.3507100
  H       -1.6004590    -2.0681310     0.7873000
  H       -5.0436390    -0.6667330    -0.3605950
  H       -4.3535760     0.4008270    -1.5926810
  H       -5.5777020     1.0147490    -0.4669260
  H        3.2685340     1.8407540    -0.0713220
  H        3.0874670     1.0628020     1.4826470
  H        4.8339620    -0.6514900     0.8358700
  H        5.0104170     0.1293290    -0.7342450
  H        5.4905370     0.9935700     0.7404870
units angstrom
no_reorient  #important for SAPT in psi4, default
symmetry c1  #important for SAPT in psi4, default
}

set PROPERTIES_ORIGIN ["COM"]
properties('MP2/aug-cc-pvtz', properties = ['dipole'])
--------------------------------------------------------------------------

    Molecular point group: c1
  Charge       = 0
  Multiplicity = 1
  Basis Set: AUG-CC-PVTZ
    Blend: AUG-CC-PVTZ
  Basis Set: (AUG-CC-PVTZ AUX)
    Blend: AUG-CC-PVTZ-JKFIT

    Orbital Energies [Eh]
    ---------------------

    Doubly Occupied:

       1A    -20.602568     2A    -20.538982     3A    -11.375259
       4A    -11.289800     5A    -11.246059     6A    -11.243279
       7A    -11.229528     8A    -11.227647     9A    -11.224970
      10A    -11.220130    11A    -11.212759    12A     -1.447810
      13A     -1.351385    14A     -1.113947    15A     -1.069464
      16A     -1.025257    17A     -0.980162    18A     -0.921306
      19A     -0.877988    20A     -0.833873    21A     -0.767292
      22A     -0.721872    23A     -0.688541    24A     -0.680936
      25A     -0.659867    26A     -0.637060    27A     -0.624751
      28A     -0.604607    29A     -0.590201    30A     -0.576955
      31A     -0.556605    32A     -0.548848    33A     -0.539175
      34A     -0.533652    35A     -0.517007    36A     -0.513893
      37A     -0.510838    38A     -0.485101    39A     -0.473191
      40A     -0.467257    41A     -0.459227    42A     -0.438660
      43A     -0.347842

  @DF-RHF Final Energy:  -500.02954963913612

   => Energetics <=

    Nuclear Repulsion Energy =            603.0476155999791672
    One-Electron Energy =               -1876.2032258927188195
    Two-Electron Energy =                 773.1260606536036448
    Total Energy =                       -500.0295496391361212
  Basis Set: (AUG-CC-PVTZ AUX)
    Blend: AUG-CC-PVTZ-RI
    Molecular point group: c1

    Geometry (in Angstrom), charge = 0, multiplicity = 1:

       Center              X                  Y                   Z               Mass
    ------------   -----------------  -----------------  -----------------  -----------------
         O            1.060994074496     0.478344895585     0.014562344161    15.994914619570
         O            2.582901874496    -1.093390104415    -0.701416455839    15.994914619570
         C           -2.380006925504    -0.085339104415     0.299066344161    12.000000000000
         C           -3.608717925504     0.783982895585     0.407459344161    12.000000000000
         C           -1.273285925504     0.397257895585    -0.295751655839    12.000000000000
         C           -0.002359925504    -0.328384104415    -0.561647655839    12.000000000000
         C           -2.523860925504    -1.471553104415     0.863770344161    12.000000000000
         C           -4.719726925504     0.358384895585    -0.558806655839    12.000000000000
         C            3.399308674496     0.826116095585     0.415240144161    12.000000000000
         C            2.301390074496    -0.042046104415    -0.147469655839    12.000000000000
         C            4.747410074496     0.306623895585     0.314343344161    12.000000000000
         H           -3.339750925504     1.826970895585     0.205466344161     1.007825032230
         H           -3.989629925504     0.749077895585     1.436819344161     1.007825032230
         H           -1.283719925504     1.427794895585    -0.650175655839     1.007825032230
         H            0.192409074496    -0.432421104415    -1.634991655839     1.007825032230
         H            0.036797074496    -1.328205104415    -0.124596655839     1.007825032230
         H           -2.805795925504    -1.412620104415     1.923449344161     1.007825032230
         H           -3.321320925504    -2.022820104415     0.351490344161     1.007825032230
         H           -1.611110925504    -2.065169104415     0.788080344161     1.007825032230
         H           -5.054290925504    -0.663771104415    -0.359814655839     1.007825032230
         H           -4.364227925504     0.403788895585    -1.591900655839     1.007825032230
         H           -5.588353925504     1.017710895585    -0.466145655839     1.007825032230
         H            3.257882074496     1.843715895585    -0.070541655839     1.007825032230
         H            3.076815074496     1.065763895585     1.483427344161     1.007825032230
         H            4.823310074496    -0.648528104415     0.836650344161     1.007825032230
         H            4.999765074496     0.132290895585    -0.733464655839     1.007825032230
         H            5.479885074496     0.996531895585     0.741267344161     1.007825032230

  Basis Set: AUG-CC-PVTZ
    Blend: AUG-CC-PVTZ
  Basis Set: (AUG-CC-PVTZ AUX)
    Blend: AUG-CC-PVTZ-JKFIT
	 Reference Energy          =    -500.0295496391361212 [Eh]
	 Singles Energy            =      -0.0000000000000000 [Eh]
	 Same-Spin Energy          =      -0.5103494308994956 [Eh]
	 Opposite-Spin Energy      =      -1.7175107713726478 [Eh]
	 Correlation Energy        =      -2.2278602022721437 [Eh]
	 Total Energy              =    -502.2574098414082755 [Eh]

	 ================> DF-SCS-MP2 Energies <==================
	-----------------------------------------------------------
	 SCS Same-Spin Scale       =       0.3333333333333333 [-]
	 SCS Opposite-Spin Scale   =       1.2000000000000000 [-]
	 SCS Same-Spin Energy      =      -0.1701164769664985 [Eh]
	 SCS Opposite-Spin Energy  =      -2.0610129256471774 [Eh]
	 SCS Correlation Energy    =      -2.2311294026136759 [Eh]
	 SCS Total Energy          =    -502.2606790417498246 [Eh]
	-----------------------------------------------------------

  Dipole Moment: [D]
     X:    -1.6472      Y:     1.1275      Z:     0.7969     Total:     2.1493

*** Psi4 exiting successfully. Buy a developer a beer!
