                               Psi4 1.3.2 release

  ==> Input File <==

--------------------------------------------------------------------------
#psi4
#
memory 32 gb

molecule  {
0 1
  O        1.0716460     0.4753830     0.0137820
  O        2.5311320    -1.1057930    -0.7123110
  C       -2.3756346    -0.0783426     0.3217417
  C       -3.5980660     0.7810210     0.4066790
  C       -1.2626340     0.3942960    -0.2965320
  C        0.0082920    -0.3313460    -0.5624280
  C       -2.5132090    -1.4745150     0.8629900
  C       -4.7090750     0.3554230    -0.5595870
  C        3.3545870     0.8742710     0.4380940
  C        2.3120420    -0.0450080    -0.1482500
  C        4.7580620     0.3036620     0.3135630
  H       -3.3290990     1.8240090     0.2046860
  H       -3.9789780     0.7461160     1.4360390
  H       -1.2730680     1.4248330    -0.6509560
  H        0.2030610    -0.4353830    -1.6357720
  H        0.0474490    -1.3311670    -0.1253770
  H       -2.7949174    -1.3964538     1.9214922
  H       -3.3106690    -2.0257820     0.3507100
  H       -1.6004590    -2.0681310     0.7873000
  H       -5.0436390    -0.6667330    -0.3605950
  H       -4.3535760     0.4008270    -1.5926810
  H       -5.5777020     1.0147490    -0.4669260
  H        3.2685340     1.8407540    -0.0713220
  H        3.0874670     1.0628020     1.4826470
  H        4.8339620    -0.6514900     0.8358700
  H        5.0104170     0.1293290    -0.7342450
  H        5.4905370     0.9935700     0.7404870
units angstrom
no_reorient  #important for SAPT in psi4, default
symmetry c1  #important for SAPT in psi4, default
}

set PROPERTIES_ORIGIN ["COM"]
properties('MP2/aug-cc-pvtz', properties = ['dipole'])
--------------------------------------------------------------------------

    Molecular point group: c1
  Charge       = 0
  Multiplicity = 1
  Basis Set: AUG-CC-PVTZ
    Blend: AUG-CC-PVTZ
  Basis Set: (AUG-CC-PVTZ AUX)
    Blend: AUG-CC-PVTZ-JKFIT

    Orbital Energies [Eh]
    ---------------------

    Doubly Occupied:

       1A    -20.597166     2A    -20.540668     3A    -11.375417
       4A    -11.286647     5A    -11.245477     6A    -11.242108
       7A    -11.228230     8A    -11.226498     9A    -11.224422
      10A    -11.219883    11A    -11.217802    12A     -1.448010
      13A     -1.347501    14A     -1.112475    15A     -1.064006
      16A     -1.021695    17A     -0.978327    18A     -0.918650
      19A     -0.879860    20A     -0.833749    21A     -0.767250
      22A     -0.722270    23A     -0.687783    24A     -0.680126
      25A     -0.659992    26A     -0.638732    27A     -0.624245
      28A     -0.605125    29A     -0.588185    30A     -0.575730
      31A     -0.552696    32A     -0.544773    33A     -0.533561
      34A     -0.521507    35A     -0.516975    36A     -0.514236
      37A     -0.511691    38A     -0.492184    39A     -0.483475
      40A     -0.469317    41A     -0.457223    42A     -0.444381
      43A     -0.342976

  @DF-RHF Final Energy:  -500.03710846537172

   => Energetics <=

    Nuclear Repulsion Energy =            603.0024114066582115
    One-Electron Energy =               -1876.1929910196208766
    Two-Electron Energy =                 773.1534711475909489
    Total Energy =                       -500.0371084653717162
  Basis Set: (AUG-CC-PVTZ AUX)
    Blend: AUG-CC-PVTZ-RI
    Molecular point group: c1

    Geometry (in Angstrom), charge = 0, multiplicity = 1:

       Center              X                  Y                   Z               Mass
    ------------   -----------------  -----------------  -----------------  -----------------
         O            1.072127156243     0.474494066547     0.011986570216    15.994914619570
         O            2.531613156243    -1.106681933453    -0.714106429784    15.994914619570
         C           -2.375153443757    -0.079231533453     0.319946270216    12.000000000000
         C           -3.597584843757     0.780132066547     0.404883570216    12.000000000000
         C           -1.262152843757     0.393407066547    -0.298327429784    12.000000000000
         C            0.008773156243    -0.332234933453    -0.564223429784    12.000000000000
         C           -2.512727843757    -1.475403933453     0.861194570216    12.000000000000
         C           -4.708593843757     0.354534066547    -0.561382429784    12.000000000000
         C            3.355068156243     0.873382066547     0.436298570216    12.000000000000
         C            2.312523156243    -0.045896933453    -0.150045429784    12.000000000000
         C            4.758543156243     0.302773066547     0.311767570216    12.000000000000
         H           -3.328617843757     1.823120066547     0.202890570216     1.007825032230
         H           -3.978496843757     0.745227066547     1.434243570216     1.007825032230
         H           -1.272586843757     1.423944066547    -0.652751429784     1.007825032230
         H            0.203542156243    -0.436271933453    -1.637567429784     1.007825032230
         H            0.047930156243    -1.332055933453    -0.127172429784     1.007825032230
         H           -2.794436243757    -1.397342733453     1.919696770216     1.007825032230
         H           -3.310187843757    -2.026670933453     0.348914570216     1.007825032230
         H           -1.599977843757    -2.069019933453     0.785504570216     1.007825032230
         H           -5.043157843757    -0.667621933453    -0.362390429784     1.007825032230
         H           -4.353094843757     0.399938066547    -1.594476429784     1.007825032230
         H           -5.577220843757     1.013860066547    -0.468721429784     1.007825032230
         H            3.269015156243     1.839865066547    -0.073117429784     1.007825032230
         H            3.087948156243     1.061913066547     1.480851570216     1.007825032230
         H            4.834443156243    -0.652378933453     0.834074570216     1.007825032230
         H            5.010898156243     0.128440066547    -0.736040429784     1.007825032230
         H            5.491018156243     0.992681066547     0.738691570216     1.007825032230

  Basis Set: AUG-CC-PVTZ
    Blend: AUG-CC-PVTZ
  Basis Set: (AUG-CC-PVTZ AUX)
    Blend: AUG-CC-PVTZ-JKFIT
	 Reference Energy          =    -500.0371084653717162 [Eh]
	 Singles Energy            =      -0.0000000000000000 [Eh]
	 Same-Spin Energy          =      -0.5100223198688245 [Eh]
	 Opposite-Spin Energy      =      -1.7172536387697488 [Eh]
	 Correlation Energy        =      -2.2272759586385735 [Eh]
	 Total Energy              =    -502.2643844240103022 [Eh]

	 ================> DF-SCS-MP2 Energies <==================
	-----------------------------------------------------------
	 SCS Same-Spin Scale       =       0.3333333333333333 [-]
	 SCS Opposite-Spin Scale   =       1.2000000000000000 [-]
	 SCS Same-Spin Energy      =      -0.1700074399562748 [Eh]
	 SCS Opposite-Spin Energy  =      -2.0607043665236984 [Eh]
	 SCS Correlation Energy    =      -2.2307118064799734 [Eh]
	 SCS Total Energy          =    -502.2678202718516900 [Eh]
	-----------------------------------------------------------

  Dipole Moment: [D]
     X:    -1.4714      Y:     1.1802      Z:     0.8129     Total:     2.0539

*** Psi4 exiting successfully. Buy a developer a beer!
