                               Psi4 1.4a3.dev225

  ==> Input File <==

--------------------------------------------------------------------------
#psi4
#
memory 32 gb

molecule  {
0 1
  O       -1.1411000    -0.4541930    -0.0251880
  O       -2.5814580     1.1752260    -0.6867450
  C        2.3134570     0.0186930     0.2462000
  C        3.5222300    -0.8802230     0.3222130
  C        1.1937340    -0.4134970    -0.3651820
  C       -0.0647290     0.3542590    -0.5783780
  C        2.4850690     1.3863280     0.8546590
  C        4.7190700    -0.3405130    -0.4677320
  C       -3.4286640    -0.8122060     0.4327630
  C       -2.3749380     0.0938890    -0.1583950
  C       -4.8282690    -0.2261570     0.3119590
  H        3.2581340    -1.8761120    -0.0507320
  H        3.8122360    -1.0018650     1.3748590
  H        1.1815530    -1.4238220    -0.7735790
  H       -0.2705280     0.5138520    -1.6430550
  H       -0.0714200     1.3330110    -0.0949940
  H        3.0182560     1.3061200     1.8081990
  H        3.0814560     2.0379150     0.2067330
  H        1.5342700     1.8877430     1.0433380
  H        5.0646870     0.6170420    -0.0694620
  H        4.4484560    -0.1949880    -1.5176090
  H        5.5583810    -1.0408350    -0.4253590
  H       -3.3536290    -1.7820470    -0.0715700
  H       -3.1709151    -0.9898370     1.4304292
  H       -4.8922970     0.7333770     0.8287030
  H       -5.0879650    -0.0561110    -0.7346540
  H       -5.5642940    -0.9066400     0.7478690
units angstrom
no_reorient  #important for SAPT in psi4, default
symmetry c1  #important for SAPT in psi4, default
}

set PROPERTIES_ORIGIN ["COM"]
properties('MP2/aug-cc-pvtz', properties = ['dipole'])
--------------------------------------------------------------------------

    Molecular point group: c1
  Charge       = 0
  Multiplicity = 1
  Basis Set: AUG-CC-PVTZ
    Blend: AUG-CC-PVTZ
  Basis Set: (AUG-CC-PVTZ AUX)
    Blend: AUG-CC-PVTZ-JKFIT

    Orbital Energies [Eh]
    ---------------------

    Doubly Occupied:

       1A    -20.597315     2A    -20.540610     3A    -11.375381
       4A    -11.286895     5A    -11.244588     6A    -11.236674
       7A    -11.228656     8A    -11.226212     9A    -11.223537
      10A    -11.219331    11A    -11.217781    12A     -1.446992
      13A     -1.347271    14A     -1.112230    15A     -1.065509
      16A     -1.022179    17A     -0.977043    18A     -0.920423
      19A     -0.880808    20A     -0.833345    21A     -0.767954
      22A     -0.723623    23A     -0.688512    24A     -0.679855
      25A     -0.660648    26A     -0.640025    27A     -0.624013
      28A     -0.606166    29A     -0.589431    30A     -0.571841
      31A     -0.553819    32A     -0.545630    33A     -0.533316
      34A     -0.522625    35A     -0.518121    36A     -0.513441
      37A     -0.512738    38A     -0.494760    39A     -0.484653
      40A     -0.465911    41A     -0.457113    42A     -0.444304
      43A     -0.346089

  @DF-RHF Final Energy:  -500.03758075899384

   => Energetics <=

    Nuclear Repulsion Energy =            602.7446765619179132
    One-Electron Energy =               -1875.6697752255367959
    Two-Electron Energy =                 772.8875179046250423
    Total Energy =                       -500.0375807589938404
  Basis Set: (AUG-CC-PVTZ AUX)
    Blend: AUG-CC-PVTZ-RI
    Molecular point group: c1

    Geometry (in Angstrom), charge = 0, multiplicity = 1:

       Center              X                  Y                   Z               Mass
    ------------   -----------------  -----------------  -----------------  -----------------
         O           -1.086747636978    -0.459637333134    -0.011513501763    15.994914619570
         O           -2.527105636978     1.169781666866    -0.673070501763    15.994914619570
         C            2.367809363022     0.013248666866     0.259874498237    12.000000000000
         C            3.576582363022    -0.885667333134     0.335887498237    12.000000000000
         C            1.248086363022    -0.418941333134    -0.351507501763    12.000000000000
         C           -0.010376636978     0.348814666866    -0.564703501763    12.000000000000
         C            2.539421363022     1.380883666866     0.868333498237    12.000000000000
         C            4.773422363022    -0.345957333134    -0.454057501763    12.000000000000
         C           -3.374311636978    -0.817650333134     0.446437498237    12.000000000000
         C           -2.320585636978     0.088444666866    -0.144720501763    12.000000000000
         C           -4.773916636978    -0.231601333134     0.325633498237    12.000000000000
         H            3.312486363022    -1.881556333134    -0.037057501763     1.007825032230
         H            3.866588363022    -1.007309333134     1.388533498237     1.007825032230
         H            1.235905363022    -1.429266333134    -0.759904501763     1.007825032230
         H           -0.216175636978     0.508407666866    -1.629380501763     1.007825032230
         H           -0.017067636978     1.327566666866    -0.081319501763     1.007825032230
         H            3.072608363022     1.300675666866     1.821873498237     1.007825032230
         H            3.135808363022     2.032470666866     0.220407498237     1.007825032230
         H            1.588622363022     1.882298666866     1.057012498237     1.007825032230
         H            5.119039363022     0.611597666866    -0.055787501763     1.007825032230
         H            4.502808363022    -0.200432333134    -1.503934501763     1.007825032230
         H            5.612733363022    -1.046279333134    -0.411684501763     1.007825032230
         H           -3.299276636978    -1.787491333134    -0.057895501763     1.007825032230
         H           -3.116562736978    -0.995281333134     1.444103698237     1.007825032230
         H           -4.837944636978     0.727932666866     0.842377498237     1.007825032230
         H           -5.033612636978    -0.061555333134    -0.720979501763     1.007825032230
         H           -5.509941636978    -0.912084333134     0.761543498237     1.007825032230

  Basis Set: AUG-CC-PVTZ
    Blend: AUG-CC-PVTZ
  Basis Set: (AUG-CC-PVTZ AUX)
    Blend: AUG-CC-PVTZ-JKFIT
	 Reference Energy          =    -500.0375807589938404 [Eh]
	 Singles Energy            =      -0.0000000000000000 [Eh]
	 Same-Spin Energy          =      -0.5096849985221865 [Eh]
	 Opposite-Spin Energy      =      -1.7166496683633587 [Eh]
	 Correlation Energy        =      -2.2263346668855455 [Eh]
	 Total Energy              =    -502.2639154258793610 [Eh]

	 ================> DF-SCS-MP2 Energies <==================
	-----------------------------------------------------------
	 SCS Same-Spin Scale       =       0.3333333333333333 [-]
	 SCS Opposite-Spin Scale   =       1.2000000000000000 [-]
	 SCS Same-Spin Energy      =      -0.1698949995073955 [Eh]
	 SCS Opposite-Spin Energy  =      -2.0599796020360306 [Eh]
	 SCS Correlation Energy    =      -2.2298746015434259 [Eh]
	 SCS Total Energy          =    -502.2674553605372694 [Eh]
	-----------------------------------------------------------

  Dipole Moment: [D]
     X:     1.4533      Y:    -1.2051      Z:     0.8097     Total:     2.0543

*** Psi4 exiting successfully. Buy a developer a beer!
