                               Psi4 1.3.2 release

  ==> Input File <==

--------------------------------------------------------------------------
#psi4
#
memory 32 gb

molecule  {
0 1
  O        1.0716460     0.4753830     0.0137820
  O        2.5311320    -1.1057930    -0.7123110
  C       -2.3569292    -0.1094815     0.2518976
  C       -3.5980660     0.7810210     0.4066790
  C       -1.2626340     0.3942960    -0.2965320
  C        0.0082920    -0.3313460    -0.5624280
  C       -2.5132090    -1.4745150     0.8629900
  C       -4.7090750     0.3554230    -0.5595870
  C        3.3545870     0.8742710     0.4380940
  C        2.3120420    -0.0450080    -0.1482500
  C        4.7580620     0.3036620     0.3135630
  H       -3.3290990     1.8240090     0.2046860
  H       -3.9789780     0.7461160     1.4360390
  H       -1.2730680     1.4248330    -0.6509560
  H        0.2030610    -0.4353830    -1.6357720
  H        0.0474490    -1.3311670    -0.1253770
  H       -2.7953395    -1.4538863     1.9240540
  H       -3.3106690    -2.0257820     0.3507100
  H       -1.6004590    -2.0681310     0.7873000
  H       -5.0436390    -0.6667330    -0.3605950
  H       -4.3535760     0.4008270    -1.5926810
  H       -5.5777020     1.0147490    -0.4669260
  H        3.2685340     1.8407540    -0.0713220
  H        3.0874670     1.0628020     1.4826470
  H        4.8339620    -0.6514900     0.8358700
  H        5.0104170     0.1293290    -0.7342450
  H        5.4905370     0.9935700     0.7404870
units angstrom
no_reorient  #important for SAPT in psi4, default
symmetry c1  #important for SAPT in psi4, default
}

set PROPERTIES_ORIGIN ["COM"]
properties('MP2/aug-cc-pvtz', properties = ['dipole'])
--------------------------------------------------------------------------

    Molecular point group: c1
  Charge       = 0
  Multiplicity = 1
  Basis Set: AUG-CC-PVTZ
    Blend: AUG-CC-PVTZ
  Basis Set: (AUG-CC-PVTZ AUX)
    Blend: AUG-CC-PVTZ-JKFIT

    Orbital Energies [Eh]
    ---------------------

    Doubly Occupied:

       1A    -20.597611     2A    -20.540971     3A    -11.375736
       4A    -11.286283     5A    -11.242381     6A    -11.242250
       7A    -11.228829     8A    -11.226333     9A    -11.221503
      10A    -11.218008    11A    -11.217827    12A     -1.448369
      13A     -1.347828    14A     -1.112898    15A     -1.063721
      16A     -1.021823    17A     -0.977364    18A     -0.921688
      19A     -0.877831    20A     -0.832626    21A     -0.767838
      22A     -0.723594    23A     -0.688045    24A     -0.679863
      25A     -0.660566    26A     -0.638428    27A     -0.622700
      28A     -0.605420    29A     -0.588016    30A     -0.571266
      31A     -0.553423    32A     -0.544384    33A     -0.534183
      34A     -0.524478    35A     -0.518803    36A     -0.514851
      37A     -0.511779    38A     -0.492494    39A     -0.484172
      40A     -0.458902    41A     -0.455966    42A     -0.444514
      43A     -0.352058

  @DF-RHF Final Energy:  -500.03734516498315

   => Energetics <=

    Nuclear Repulsion Energy =            603.2040349680843292
    One-Electron Energy =               -1876.6075154233953981
    Two-Electron Energy =                 773.3661352903279749
    Total Energy =                       -500.0373451649832077
  Basis Set: (AUG-CC-PVTZ AUX)
    Blend: AUG-CC-PVTZ-RI
    Molecular point group: c1

    Geometry (in Angstrom), charge = 0, multiplicity = 1:

       Center              X                  Y                   Z               Mass
    ------------   -----------------  -----------------  -----------------  -----------------
         O            1.070692064456     0.477258366127     0.017338696498    15.994914619570
         O            2.530178064456    -1.103917633873    -0.708754303502    15.994914619570
         C           -2.357883135544    -0.107606133873     0.255454296498    12.000000000000
         C           -3.599019935544     0.782896366127     0.410235696498    12.000000000000
         C           -1.263587935544     0.396171366127    -0.292975303502    12.000000000000
         C            0.007338064456    -0.329470633873    -0.558871303502    12.000000000000
         C           -2.514162935544    -1.472639633873     0.866546696498    12.000000000000
         C           -4.710028935544     0.357298366127    -0.556030303502    12.000000000000
         C            3.353633064456     0.876146366127     0.441650696498    12.000000000000
         C            2.311088064456    -0.043132633873    -0.144693303502    12.000000000000
         C            4.757108064456     0.305537366127     0.317119696498    12.000000000000
         H           -3.330052935544     1.825884366127     0.208242696498     1.007825032230
         H           -3.979931935544     0.747991366127     1.439595696498     1.007825032230
         H           -1.274021935544     1.426708366127    -0.647399303502     1.007825032230
         H            0.202107064456    -0.433507633873    -1.632215303502     1.007825032230
         H            0.046495064456    -1.329291633873    -0.121820303502     1.007825032230
         H           -2.796293435544    -1.452010933873     1.927610696498     1.007825032230
         H           -3.311622935544    -2.023906633873     0.354266696498     1.007825032230
         H           -1.601412935544    -2.066255633873     0.790856696498     1.007825032230
         H           -5.044592935544    -0.664857633873    -0.357038303502     1.007825032230
         H           -4.354529935544     0.402702366127    -1.589124303502     1.007825032230
         H           -5.578655935544     1.016624366127    -0.463369303502     1.007825032230
         H            3.267580064456     1.842629366127    -0.067765303502     1.007825032230
         H            3.086513064456     1.064677366127     1.486203696498     1.007825032230
         H            4.833008064456    -0.649614633873     0.839426696498     1.007825032230
         H            5.009463064456     0.131204366127    -0.730688303502     1.007825032230
         H            5.489583064456     0.995445366127     0.744043696498     1.007825032230

  Basis Set: AUG-CC-PVTZ
    Blend: AUG-CC-PVTZ
  Basis Set: (AUG-CC-PVTZ AUX)
    Blend: AUG-CC-PVTZ-JKFIT
	 Reference Energy          =    -500.0373451649831509 [Eh]
	 Singles Energy            =      -0.0000000000000000 [Eh]
	 Same-Spin Energy          =      -0.5093892208477658 [Eh]
	 Opposite-Spin Energy      =      -1.7163306996077030 [Eh]
	 Correlation Energy        =      -2.2257199204554690 [Eh]
	 Total Energy              =    -502.2630650854385976 [Eh]

	 ================> DF-SCS-MP2 Energies <==================
	-----------------------------------------------------------
	 SCS Same-Spin Scale       =       0.3333333333333333 [-]
	 SCS Opposite-Spin Scale   =       1.2000000000000000 [-]
	 SCS Same-Spin Energy      =      -0.1697964069492553 [Eh]
	 SCS Opposite-Spin Energy  =      -2.0595968395292434 [Eh]
	 SCS Correlation Energy    =      -2.2293932464784989 [Eh]
	 SCS Total Energy          =    -502.2667384114616311 [Eh]
	-----------------------------------------------------------

  Dipole Moment: [D]
     X:    -1.3911      Y:     1.1861      Z:     0.8669     Total:     2.0232

*** Psi4 exiting successfully. Buy a developer a beer!
