                               Psi4 1.3.2 release

  ==> Input File <==

--------------------------------------------------------------------------
#psi4
#
memory 32 gb

molecule  {
0 1
  O        1.0716460     0.4753830     0.0137820
  O        2.5311320    -1.1057930    -0.7123110
  C       -2.3275871    -0.0235161     0.2809655
  C       -3.5980660     0.7810210     0.4066790
  C       -1.2626340     0.3942960    -0.2965320
  C        0.0082920    -0.3313460    -0.5624280
  C       -2.5132090    -1.4745150     0.8629900
  C       -4.7090750     0.3554230    -0.5595870
  C        3.3545870     0.8742710     0.4380940
  C        2.3120420    -0.0450080    -0.1482500
  C        4.7580620     0.3036620     0.3135630
  H       -3.2748923     1.8069304     0.1968291
  H       -3.9789780     0.7461160     1.4360390
  H       -1.2730680     1.4248330    -0.6509560
  H        0.2030610    -0.4353830    -1.6357720
  H        0.0474490    -1.3311670    -0.1253770
  H       -2.7951440    -1.4155820     1.9226690
  H       -3.3106690    -2.0257820     0.3507100
  H       -1.6004590    -2.0681310     0.7873000
  H       -5.0436390    -0.6667330    -0.3605950
  H       -4.3535760     0.4008270    -1.5926810
  H       -5.5777020     1.0147490    -0.4669260
  H        3.2685340     1.8407540    -0.0713220
  H        3.0874670     1.0628020     1.4826470
  H        4.8339620    -0.6514900     0.8358700
  H        5.0104170     0.1293290    -0.7342450
  H        5.4905370     0.9935700     0.7404870
units angstrom
no_reorient  #important for SAPT in psi4, default
symmetry c1  #important for SAPT in psi4, default
}

set PROPERTIES_ORIGIN ["COM"]
properties('MP2/aug-cc-pvtz', properties = ['dipole'])
--------------------------------------------------------------------------

    Molecular point group: c1
  Charge       = 0
  Multiplicity = 1
  Basis Set: AUG-CC-PVTZ
    Blend: AUG-CC-PVTZ
  Basis Set: (AUG-CC-PVTZ AUX)
    Blend: AUG-CC-PVTZ-JKFIT

    Orbital Energies [Eh]
    ---------------------

    Doubly Occupied:

       1A    -20.598611     2A    -20.541582     3A    -11.376412
       4A    -11.288420     5A    -11.242790     6A    -11.237261
       7A    -11.228316     8A    -11.226282     9A    -11.220266
      10A    -11.218303    11A    -11.215943    12A     -1.449207
      13A     -1.348552    14A     -1.116524    15A     -1.064133
      16A     -1.024171    17A     -0.968851    18A     -0.925132
      19A     -0.880613    20A     -0.839404    21A     -0.768512
      22A     -0.720422    23A     -0.687964    24A     -0.677950
      25A     -0.661233    26A     -0.636690    27A     -0.626515
      28A     -0.604463    29A     -0.588539    30A     -0.571952
      31A     -0.548540    32A     -0.545345    33A     -0.532802
      34A     -0.522931    35A     -0.518612    36A     -0.517087
      37A     -0.512464    38A     -0.492872    39A     -0.488634
      40A     -0.458827    41A     -0.446486    42A     -0.445459
      43A     -0.363981

  @DF-RHF Final Energy:  -500.03247837448669

   => Energetics <=

    Nuclear Repulsion Energy =            603.5422433146380854
    One-Electron Energy =               -1877.2513369735511333
    Two-Electron Energy =                 773.6766152844262479
    Total Energy =                       -500.0324783744866863
  Basis Set: (AUG-CC-PVTZ AUX)
    Blend: AUG-CC-PVTZ-RI
    Molecular point group: c1

    Geometry (in Angstrom), charge = 0, multiplicity = 1:

       Center              X                  Y                   Z               Mass
    ------------   -----------------  -----------------  -----------------  -----------------
         O            1.068085440997     0.470513489651     0.015164014263    15.994914619570
         O            2.527571440997    -1.110662510349    -0.710928985737    15.994914619570
         C           -2.331147659003    -0.028385610349     0.282347514263    12.000000000000
         C           -3.601626559003     0.776151489651     0.408061014263    12.000000000000
         C           -1.266194559003     0.389426489651    -0.295149985737    12.000000000000
         C            0.004731440997    -0.336215510349    -0.561045985737    12.000000000000
         C           -2.516769559003    -1.479384510349     0.864372014263    12.000000000000
         C           -4.712635559003     0.350553489651    -0.558204985737    12.000000000000
         C            3.351026440997     0.869401489651     0.439476014263    12.000000000000
         C            2.308481440997    -0.049877510349    -0.146867985737    12.000000000000
         C            4.754501440997     0.298792489651     0.314945014263    12.000000000000
         H           -3.278452859003     1.802060889651     0.198211114263     1.007825032230
         H           -3.982538559003     0.741246489651     1.437421014263     1.007825032230
         H           -1.276628559003     1.419963489651    -0.649573985737     1.007825032230
         H            0.199500440997    -0.440252510349    -1.634389985737     1.007825032230
         H            0.043888440997    -1.336036510349    -0.123994985737     1.007825032230
         H           -2.798704559003    -1.420451510349     1.924051014263     1.007825032230
         H           -3.314229559003    -2.030651510349     0.352092014263     1.007825032230
         H           -1.604019559003    -2.073000510349     0.788682014263     1.007825032230
         H           -5.047199559003    -0.671602510349    -0.359212985737     1.007825032230
         H           -4.357136559003     0.395957489651    -1.591298985737     1.007825032230
         H           -5.581262559003     1.009879489651    -0.465543985737     1.007825032230
         H            3.264973440997     1.835884489651    -0.069939985737     1.007825032230
         H            3.083906440997     1.057932489651     1.484029014263     1.007825032230
         H            4.830401440997    -0.656359510349     0.837252014263     1.007825032230
         H            5.006856440997     0.124459489651    -0.732862985737     1.007825032230
         H            5.486976440997     0.988700489651     0.741869014263     1.007825032230

  Basis Set: AUG-CC-PVTZ
    Blend: AUG-CC-PVTZ
  Basis Set: (AUG-CC-PVTZ AUX)
    Blend: AUG-CC-PVTZ-JKFIT
	 Reference Energy          =    -500.0324783744866863 [Eh]
	 Singles Energy            =      -0.0000000000000000 [Eh]
	 Same-Spin Energy          =      -0.5088970236521057 [Eh]
	 Opposite-Spin Energy      =      -1.7154988657852752 [Eh]
	 Correlation Energy        =      -2.2243958894373810 [Eh]
	 Total Energy              =    -502.2568742639240895 [Eh]

	 ================> DF-SCS-MP2 Energies <==================
	-----------------------------------------------------------
	 SCS Same-Spin Scale       =       0.3333333333333333 [-]
	 SCS Opposite-Spin Scale   =       1.2000000000000000 [-]
	 SCS Same-Spin Energy      =      -0.1696323412173685 [Eh]
	 SCS Opposite-Spin Energy  =      -2.0585986389423301 [Eh]
	 SCS Correlation Energy    =      -2.2282309801596987 [Eh]
	 SCS Total Energy          =    -502.2607093546463943 [Eh]
	-----------------------------------------------------------

  Dipole Moment: [D]
     X:    -1.3830      Y:     1.2275      Z:     0.7634     Total:     2.0006

*** Psi4 exiting successfully. Buy a developer a beer!
