                               Psi4 1.4a3.dev225

  ==> Input File <==

--------------------------------------------------------------------------
#psi4
#
memory 32 gb

molecule  {
0 1
  O       -1.1411000    -0.4541930    -0.0251880
  O       -2.5814580     1.1752260    -0.6867450
  C        2.3134570     0.0186930     0.2462000
  C        3.5222300    -0.8802230     0.3222130
  C        1.1937340    -0.4134970    -0.3651820
  C       -0.0816267     0.3645679    -0.5812406
  C        2.4850690     1.3863280     0.8546590
  C        4.7190700    -0.3405130    -0.4677320
  C       -3.4286640    -0.8122060     0.4327630
  C       -2.3749380     0.0938890    -0.1583950
  C       -4.8282690    -0.2261570     0.3119590
  H        3.2581340    -1.8761120    -0.0507320
  H        3.8122360    -1.0018650     1.3748590
  H        1.1815530    -1.4238220    -0.7735790
  H       -0.2705280     0.5138520    -1.6430550
  H       -0.0714200     1.3330110    -0.0949940
  H        3.0182560     1.3061200     1.8081990
  H        3.0814560     2.0379150     0.2067330
  H        1.5342700     1.8877430     1.0433380
  H        5.0646870     0.6170420    -0.0694620
  H        4.4484560    -0.1949880    -1.5176090
  H        5.5583810    -1.0408350    -0.4253590
  H       -3.3536290    -1.7820470    -0.0715700
  H       -3.1585900    -0.9983310     1.4781360
  H       -4.8922970     0.7333770     0.8287030
  H       -5.0879650    -0.0561110    -0.7346540
  H       -5.5642940    -0.9066400     0.7478690
units angstrom
no_reorient  #important for SAPT in psi4, default
symmetry c1  #important for SAPT in psi4, default
}

set PROPERTIES_ORIGIN ["COM"]
properties('MP2/aug-cc-pvtz', properties = ['dipole'])
--------------------------------------------------------------------------

    Molecular point group: c1
  Charge       = 0
  Multiplicity = 1
  Basis Set: AUG-CC-PVTZ
    Blend: AUG-CC-PVTZ
  Basis Set: (AUG-CC-PVTZ AUX)
    Blend: AUG-CC-PVTZ-JKFIT

    Orbital Energies [Eh]
    ---------------------

    Doubly Occupied:

       1A    -20.598699     2A    -20.541589     3A    -11.376239
       4A    -11.286353     5A    -11.243435     6A    -11.242980
       7A    -11.228100     8A    -11.225761     9A    -11.224041
      10A    -11.218875    11A    -11.218491    12A     -1.449147
      13A     -1.348693    14A     -1.110569    15A     -1.063379
      16A     -1.019971    17A     -0.976262    18A     -0.920513
      19A     -0.879439    20A     -0.832981    21A     -0.768389
      22A     -0.721317    23A     -0.688500    24A     -0.680710
      25A     -0.660692    26A     -0.637923    27A     -0.622827
      28A     -0.605656    29A     -0.588260    30A     -0.571437
      31A     -0.553694    32A     -0.545354    33A     -0.533581
      34A     -0.522323    35A     -0.518058    36A     -0.514074
      37A     -0.512383    38A     -0.492897    39A     -0.483813
      40A     -0.463940    41A     -0.458704    42A     -0.444925
      43A     -0.345583

  @DF-RHF Final Energy:  -500.03836711167531

   => Energetics <=

    Nuclear Repulsion Energy =            602.4544016937015840
    One-Electron Energy =               -1875.1044202482069068
    Two-Electron Energy =                 772.6116514428300661
    Total Energy =                       -500.0383671116752566
  Basis Set: (AUG-CC-PVTZ AUX)
    Blend: AUG-CC-PVTZ-RI
    Molecular point group: c1

    Geometry (in Angstrom), charge = 0, multiplicity = 1:

       Center              X                  Y                   Z               Mass
    ------------   -----------------  -----------------  -----------------  -----------------
         O           -1.085528338260    -0.460374906796    -0.011601442733    15.994914619570
         O           -2.525886338260     1.169044093204    -0.673158442733    15.994914619570
         C            2.369028661740     0.012511093204     0.259786557267    12.000000000000
         C            3.577801661740    -0.886404906796     0.335799557267    12.000000000000
         C            1.249305661740    -0.419678906796    -0.351595442733    12.000000000000
         C           -0.026055038260     0.358385993204    -0.567654042733    12.000000000000
         C            2.540640661740     1.380146093204     0.868245557267    12.000000000000
         C            4.774641661740    -0.346694906796    -0.454145442733    12.000000000000
         C           -3.373092338260    -0.818387906796     0.446349557267    12.000000000000
         C           -2.319366338260     0.087707093204    -0.144808442733    12.000000000000
         C           -4.772697338260    -0.232338906796     0.325545557267    12.000000000000
         H            3.313705661740    -1.882293906796    -0.037145442733     1.007825032230
         H            3.867807661740    -1.008046906796     1.388445557267     1.007825032230
         H            1.237124661740    -1.430003906796    -0.759992442733     1.007825032230
         H           -0.214956338260     0.507670093204    -1.629468442733     1.007825032230
         H           -0.015848338260     1.326829093204    -0.081407442733     1.007825032230
         H            3.073827661740     1.299938093204     1.821785557267     1.007825032230
         H            3.137027661740     2.031733093204     0.220319557267     1.007825032230
         H            1.589841661740     1.881561093204     1.056924557267     1.007825032230
         H            5.120258661740     0.610860093204    -0.055875442733     1.007825032230
         H            4.504027661740    -0.201169906796    -1.504022442733     1.007825032230
         H            5.613952661740    -1.047016906796    -0.411772442733     1.007825032230
         H           -3.298057338260    -1.788228906796    -0.057983442733     1.007825032230
         H           -3.103018338260    -1.004512906796     1.491722557267     1.007825032230
         H           -4.836725338260     0.727195093204     0.842289557267     1.007825032230
         H           -5.032393338260    -0.062292906796    -0.721067442733     1.007825032230
         H           -5.508722338260    -0.912821906796     0.761455557267     1.007825032230

  Basis Set: AUG-CC-PVTZ
    Blend: AUG-CC-PVTZ
  Basis Set: (AUG-CC-PVTZ AUX)
    Blend: AUG-CC-PVTZ-JKFIT
	 Reference Energy          =    -500.0383671116753135 [Eh]
	 Singles Energy            =      -0.0000000000000000 [Eh]
	 Same-Spin Energy          =      -0.5095356744578271 [Eh]
	 Opposite-Spin Energy      =      -1.7168197631331676 [Eh]
	 Correlation Energy        =      -2.2263554375909949 [Eh]
	 Total Energy              =    -502.2647225492663097 [Eh]

	 ================> DF-SCS-MP2 Energies <==================
	-----------------------------------------------------------
	 SCS Same-Spin Scale       =       0.3333333333333333 [-]
	 SCS Opposite-Spin Scale   =       1.2000000000000000 [-]
	 SCS Same-Spin Energy      =      -0.1698452248192757 [Eh]
	 SCS Opposite-Spin Energy  =      -2.0601837157598011 [Eh]
	 SCS Correlation Energy    =      -2.2300289405790767 [Eh]
	 SCS Total Energy          =    -502.2683960522543885 [Eh]
	-----------------------------------------------------------

  Dipole Moment: [D]
     X:     1.3731      Y:    -1.1928      Z:     0.7922     Total:     1.9839

*** Psi4 exiting successfully. Buy a developer a beer!
