                               Psi4 1.3.2 release

  ==> Input File <==

--------------------------------------------------------------------------
#psi4
#
memory 32 gb

molecule  {
0 1
  O        1.0716460     0.4753830     0.0137820
  O        2.5311320    -1.1057930    -0.7123110
  C       -2.3693550    -0.0883010     0.2982860
  C       -3.5980660     0.7810210     0.4066790
  C       -1.2849718     0.4350939    -0.3031377
  C        0.0082920    -0.3313460    -0.5624280
  C       -2.5623421    -1.4626580     0.8771406
  C       -4.7090750     0.3554230    -0.5595870
  C        3.3545870     0.8742710     0.4380940
  C        2.3120420    -0.0450080    -0.1482500
  C        4.7580620     0.3036620     0.3135630
  H       -3.3290990     1.8240090     0.2046860
  H       -3.9789780     0.7461160     1.4360390
  H       -1.2730680     1.4248330    -0.6509560
  H        0.2030610    -0.4353830    -1.6357720
  H        0.0474490    -1.3311670    -0.1253770
  H       -2.7951440    -1.4155820     1.9226690
  H       -3.3106690    -2.0257820     0.3507100
  H       -1.6004590    -2.0681310     0.7873000
  H       -5.0436390    -0.6667330    -0.3605950
  H       -4.3535760     0.4008270    -1.5926810
  H       -5.5777020     1.0147490    -0.4669260
  H        3.2685340     1.8407540    -0.0713220
  H        3.0874670     1.0628020     1.4826470
  H        4.8339620    -0.6514900     0.8358700
  H        5.0104170     0.1293290    -0.7342450
  H        5.4905370     0.9935700     0.7404870
units angstrom
no_reorient  #important for SAPT in psi4, default
symmetry c1  #important for SAPT in psi4, default
}

set PROPERTIES_ORIGIN ["COM"]
properties('MP2/aug-cc-pvtz', properties = ['dipole'])
--------------------------------------------------------------------------

    Molecular point group: c1
  Charge       = 0
  Multiplicity = 1
  Basis Set: AUG-CC-PVTZ
    Blend: AUG-CC-PVTZ
  Basis Set: (AUG-CC-PVTZ AUX)
    Blend: AUG-CC-PVTZ-JKFIT

    Orbital Energies [Eh]
    ---------------------

    Doubly Occupied:

       1A    -20.596728     2A    -20.540435     3A    -11.375076
       4A    -11.287374     5A    -11.244150     6A    -11.241973
       7A    -11.228039     8A    -11.225833     9A    -11.223769
      10A    -11.218301    11A    -11.217704    12A     -1.447459
      13A     -1.347007    14A     -1.111678    15A     -1.063267
      16A     -1.017567    17A     -0.976848    18A     -0.922296
      19A     -0.877440    20A     -0.832965    21A     -0.766869
      22A     -0.726499    23A     -0.688683    24A     -0.677436
      25A     -0.659946    26A     -0.637452    27A     -0.621978
      28A     -0.606263    29A     -0.593511    30A     -0.576682
      31A     -0.552030    32A     -0.542748    33A     -0.528540
      34A     -0.526933    35A     -0.519314    36A     -0.515160
      37A     -0.512575    38A     -0.492177    39A     -0.482246
      40A     -0.458299    41A     -0.455696    42A     -0.443697
      43A     -0.348058

  @DF-RHF Final Energy:  -500.03317615801666

   => Energetics <=

    Nuclear Repulsion Energy =            602.4978447485717652
    One-Electron Energy =               -1875.2046371813050882
    Two-Electron Energy =                 772.6736162747167782
    Total Energy =                       -500.0331761580166585
  Basis Set: (AUG-CC-PVTZ AUX)
    Blend: AUG-CC-PVTZ-RI
    Molecular point group: c1

    Geometry (in Angstrom), charge = 0, multiplicity = 1:

       Center              X                  Y                   Z               Mass
    ------------   -----------------  -----------------  -----------------  -----------------
         O            1.077139639503     0.471335625480     0.013201979083    15.994914619570
         O            2.536625639503    -1.109840374520    -0.712891020917    15.994914619570
         C           -2.363861360497    -0.092348374520     0.297705979083    12.000000000000
         C           -3.592572360497     0.776973625480     0.406098979083    12.000000000000
         C           -1.279478160497     0.431046525480    -0.303717720917    12.000000000000
         C            0.013785639503    -0.335393374520    -0.563008020917    12.000000000000
         C           -2.556848460497    -1.466705374520     0.876560579083    12.000000000000
         C           -4.703581360497     0.351375625480    -0.560167020917    12.000000000000
         C            3.360080639503     0.870223625480     0.437513979083    12.000000000000
         C            2.317535639503    -0.049055374520    -0.148830020917    12.000000000000
         C            4.763555639503     0.299614625480     0.312982979083    12.000000000000
         H           -3.323605360497     1.819961625480     0.204105979083     1.007825032230
         H           -3.973484360497     0.742068625480     1.435458979083     1.007825032230
         H           -1.267574360497     1.420785625480    -0.651536020917     1.007825032230
         H            0.208554639503    -0.439430374520    -1.636352020917     1.007825032230
         H            0.052942639503    -1.335214374520    -0.125957020917     1.007825032230
         H           -2.789650360497    -1.419629374520     1.922088979083     1.007825032230
         H           -3.305175360497    -2.029829374520     0.350129979083     1.007825032230
         H           -1.594965360497    -2.072178374520     0.786719979083     1.007825032230
         H           -5.038145360497    -0.670780374520    -0.361175020917     1.007825032230
         H           -4.348082360497     0.396779625480    -1.593261020917     1.007825032230
         H           -5.572208360497     1.010701625480    -0.467506020917     1.007825032230
         H            3.274027639503     1.836706625480    -0.071902020917     1.007825032230
         H            3.092960639503     1.058754625480     1.482066979083     1.007825032230
         H            4.839455639503    -0.655537374520     0.835289979083     1.007825032230
         H            5.015910639503     0.125281625480    -0.734825020917     1.007825032230
         H            5.496030639503     0.989522625480     0.739906979083     1.007825032230

  Basis Set: AUG-CC-PVTZ
    Blend: AUG-CC-PVTZ
  Basis Set: (AUG-CC-PVTZ AUX)
    Blend: AUG-CC-PVTZ-JKFIT
	 Reference Energy          =    -500.0331761580166585 [Eh]
	 Singles Energy            =      -0.0000000000000000 [Eh]
	 Same-Spin Energy          =      -0.5095181808650332 [Eh]
	 Opposite-Spin Energy      =      -1.7169012235028083 [Eh]
	 Correlation Energy        =      -2.2264194043678414 [Eh]
	 Total Energy              =    -502.2595955623845043 [Eh]

	 ================> DF-SCS-MP2 Energies <==================
	-----------------------------------------------------------
	 SCS Same-Spin Scale       =       0.3333333333333333 [-]
	 SCS Opposite-Spin Scale   =       1.2000000000000000 [-]
	 SCS Same-Spin Energy      =      -0.1698393936216777 [Eh]
	 SCS Opposite-Spin Energy  =      -2.0602814682033697 [Eh]
	 SCS Correlation Energy    =      -2.2301208618250472 [Eh]
	 SCS Total Energy          =    -502.2632970198417297 [Eh]
	-----------------------------------------------------------

  Dipole Moment: [D]
     X:    -1.4384      Y:     1.1854      Z:     0.8393     Total:     2.0442

*** Psi4 exiting successfully. Buy a developer a beer!
