                               Psi4 1.3.2 release

  ==> Input File <==

--------------------------------------------------------------------------
#psi4
#
memory 32 gb

molecule  {
0 1
  O        1.0716460     0.4753830     0.0137820
  O        2.5311320    -1.1057930    -0.7123110
  C       -2.3693550    -0.0883010     0.2982860
  C       -3.5980660     0.7810210     0.4066790
  C       -1.2626340     0.3942960    -0.2965320
  C        0.0082920    -0.3313460    -0.5624280
  C       -2.5132090    -1.4745150     0.8629900
  C       -4.7086473     0.3798556    -0.5704700
  C        3.3545870     0.8742710     0.4380940
  C        2.3120420    -0.0450080    -0.1482500
  C        4.7580620     0.3036620     0.3135630
  H       -3.3421863     1.8245090     0.1907468
  H       -3.9789780     0.7461160     1.4360390
  H       -1.2730680     1.4248330    -0.6509560
  H        0.2030610    -0.4353830    -1.6357720
  H        0.0474490    -1.3311670    -0.1253770
  H       -2.7951440    -1.4155820     1.9226690
  H       -3.3106690    -2.0257820     0.3507100
  H       -1.6004590    -2.0681310     0.7873000
  H       -5.0436390    -0.6667330    -0.3605950
  H       -4.3535760     0.4008270    -1.5926810
  H       -5.5777020     1.0147490    -0.4669260
  H        3.2685340     1.8407540    -0.0713220
  H        3.0874670     1.0628020     1.4826470
  H        4.8339620    -0.6514900     0.8358700
  H        5.0104170     0.1293290    -0.7342450
  H        5.4905370     0.9935700     0.7404870
units angstrom
no_reorient  #important for SAPT in psi4, default
symmetry c1  #important for SAPT in psi4, default
}

set PROPERTIES_ORIGIN ["COM"]
properties('MP2/aug-cc-pvtz', properties = ['dipole'])
--------------------------------------------------------------------------

    Molecular point group: c1
  Charge       = 0
  Multiplicity = 1
  Basis Set: AUG-CC-PVTZ
    Blend: AUG-CC-PVTZ
  Basis Set: (AUG-CC-PVTZ AUX)
    Blend: AUG-CC-PVTZ-JKFIT

    Orbital Energies [Eh]
    ---------------------

    Doubly Occupied:

       1A    -20.597383     2A    -20.540816     3A    -11.375573
       4A    -11.286621     5A    -11.244575     6A    -11.242230
       7A    -11.228371     8A    -11.226409     9A    -11.223542
      10A    -11.219078    11A    -11.217895    12A     -1.448189
      13A     -1.347663    14A     -1.112433    15A     -1.063934
      16A     -1.021934    17A     -0.978312    18A     -0.919538
      19A     -0.879030    20A     -0.833374    21A     -0.767502
      22A     -0.722779    23A     -0.687881    24A     -0.680127
      25A     -0.660196    26A     -0.638484    27A     -0.624303
      28A     -0.605521    29A     -0.588736    30A     -0.574204
      31A     -0.551720    32A     -0.545978    33A     -0.533713
      34A     -0.522373    35A     -0.517588    36A     -0.515025
      37A     -0.511806    38A     -0.492253    39A     -0.480732
      40A     -0.466858    41A     -0.457419    42A     -0.444499
      43A     -0.346241

  @DF-RHF Final Energy:  -500.03748629672305

   => Energetics <=

    Nuclear Repulsion Energy =            602.9968626830830090
    One-Electron Energy =               -1876.1830199494377212
    Two-Electron Energy =                 773.1486709696316666
    Total Energy =                       -500.0374862967230456
  Basis Set: (AUG-CC-PVTZ AUX)
    Blend: AUG-CC-PVTZ-RI
    Molecular point group: c1

    Geometry (in Angstrom), charge = 0, multiplicity = 1:

       Center              X                  Y                   Z               Mass
    ------------   -----------------  -----------------  -----------------  -----------------
         O            1.071697540220     0.473501744194     0.014708452067    15.994914619570
         O            2.531183540220    -1.107674255806    -0.711384547933    15.994914619570
         C           -2.369303459780    -0.090182255806     0.299212452067    12.000000000000
         C           -3.598014459780     0.779139744194     0.407605452067    12.000000000000
         C           -1.262582459780     0.392414744194    -0.295605547933    12.000000000000
         C            0.008343540220    -0.333227255806    -0.561501547933    12.000000000000
         C           -2.513157459780    -1.476396255806     0.863916452067    12.000000000000
         C           -4.708595759780     0.377974344194    -0.569543547933    12.000000000000
         C            3.354638540220     0.872389744194     0.439020452067    12.000000000000
         C            2.312093540220    -0.046889255806    -0.147323547933    12.000000000000
         C            4.758113540220     0.301780744194     0.314489452067    12.000000000000
         H           -3.342134759780     1.822627744194     0.191673252067     1.007825032230
         H           -3.978926459780     0.744234744194     1.436965452067     1.007825032230
         H           -1.273016459780     1.422951744194    -0.650029547933     1.007825032230
         H            0.203112540220    -0.437264255806    -1.634845547933     1.007825032230
         H            0.047500540220    -1.333048255806    -0.124450547933     1.007825032230
         H           -2.795092459780    -1.417463255806     1.923595452067     1.007825032230
         H           -3.310617459780    -2.027663255806     0.351636452067     1.007825032230
         H           -1.600407459780    -2.070012255806     0.788226452067     1.007825032230
         H           -5.043587459780    -0.668614255806    -0.359668547933     1.007825032230
         H           -4.353524459780     0.398945744194    -1.591754547933     1.007825032230
         H           -5.577650459780     1.012867744194    -0.465999547933     1.007825032230
         H            3.268585540220     1.838872744194    -0.070395547933     1.007825032230
         H            3.087518540220     1.060920744194     1.483573452067     1.007825032230
         H            4.834013540220    -0.653371255806     0.836796452067     1.007825032230
         H            5.010468540220     0.127447744194    -0.733318547933     1.007825032230
         H            5.490588540220     0.991688744194     0.741413452067     1.007825032230

  Basis Set: AUG-CC-PVTZ
    Blend: AUG-CC-PVTZ
  Basis Set: (AUG-CC-PVTZ AUX)
    Blend: AUG-CC-PVTZ-JKFIT
	 Reference Energy          =    -500.0374862967230456 [Eh]
	 Singles Energy            =      -0.0000000000000000 [Eh]
	 Same-Spin Energy          =      -0.5097474078929822 [Eh]
	 Opposite-Spin Energy      =      -1.7168472738923586 [Eh]
	 Correlation Energy        =      -2.2265946817853406 [Eh]
	 Total Energy              =    -502.2640809785083889 [Eh]

	 ================> DF-SCS-MP2 Energies <==================
	-----------------------------------------------------------
	 SCS Same-Spin Scale       =       0.3333333333333333 [-]
	 SCS Opposite-Spin Scale   =       1.2000000000000000 [-]
	 SCS Same-Spin Energy      =      -0.1699158026309941 [Eh]
	 SCS Opposite-Spin Energy  =      -2.0602167286708304 [Eh]
	 SCS Correlation Energy    =      -2.2301325313018245 [Eh]
	 SCS Total Energy          =    -502.2676188280248653 [Eh]
	-----------------------------------------------------------

  Dipole Moment: [D]
     X:    -1.4379      Y:     1.1923      Z:     0.8247     Total:     2.0419

*** Psi4 exiting successfully. Buy a developer a beer!
