                               Psi4 1.3.2 release

  ==> Input File <==

--------------------------------------------------------------------------
#psi4
#
memory 32 gb

molecule  {
0 1
  O        1.0716460     0.4753830     0.0137820
  O        2.5311320    -1.1057930    -0.7123110
  C       -2.3693550    -0.0883010     0.2982860
  C       -3.5980660     0.7810210     0.4066790
  C       -1.2626340     0.3942960    -0.2965320
  C        0.0082920    -0.3313460    -0.5624280
  C       -2.5132090    -1.4745150     0.8629900
  C       -4.7090750     0.3554230    -0.5595870
  C        3.3545870     0.8742710     0.4380940
  C        2.2933681    -0.0276562    -0.1416604
  C        4.7676633     0.3252665     0.3256033
  H       -3.3290990     1.8240090     0.2046860
  H       -3.9789780     0.7461160     1.4360390
  H       -1.2730680     1.4248330    -0.6509560
  H        0.2030610    -0.4353830    -1.6357720
  H        0.0474490    -1.3311670    -0.1253770
  H       -2.7951440    -1.4155820     1.9226690
  H       -3.3106690    -2.0257820     0.3507100
  H       -1.6004590    -2.0681310     0.7873000
  H       -5.0436390    -0.6667330    -0.3605950
  H       -4.3535760     0.4008270    -1.5926810
  H       -5.5777020     1.0147490    -0.4669260
  H        3.2685340     1.8407540    -0.0713220
  H        3.0874670     1.0628020     1.4826470
  H        4.8339620    -0.6514900     0.8358700
  H        5.0104170     0.1293290    -0.7342450
  H        5.4905370     0.9935700     0.7404870
units angstrom
no_reorient  #important for SAPT in psi4, default
symmetry c1  #important for SAPT in psi4, default
}

set PROPERTIES_ORIGIN ["COM"]
properties('MP2/aug-cc-pvtz', properties = ['dipole'])
--------------------------------------------------------------------------

    Molecular point group: c1
  Charge       = 0
  Multiplicity = 1
  Basis Set: AUG-CC-PVTZ
    Blend: AUG-CC-PVTZ
  Basis Set: (AUG-CC-PVTZ AUX)
    Blend: AUG-CC-PVTZ-JKFIT

    Orbital Energies [Eh]
    ---------------------

    Doubly Occupied:

       1A    -20.603565     2A    -20.535014     3A    -11.376504
       4A    -11.289510     5A    -11.246007     6A    -11.241717
       7A    -11.229527     8A    -11.227528     9A    -11.224785
      10A    -11.220099    11A    -11.217255    12A     -1.454602
      13A     -1.336995    14A     -1.114296    15A     -1.063568
      16A     -1.023936    17A     -0.980305    18A     -0.922002
      19A     -0.880080    20A     -0.835373    21A     -0.771796
      22A     -0.723591    23A     -0.686745    24A     -0.682617
      25A     -0.660147    26A     -0.638470    27A     -0.623663
      28A     -0.605111    29A     -0.588364    30A     -0.576086
      31A     -0.554843    32A     -0.547182    33A     -0.532328
      34A     -0.523628    35A     -0.516119    36A     -0.514563
      37A     -0.512247    38A     -0.487167    39A     -0.484811
      40A     -0.466904    41A     -0.454492    42A     -0.441622
      43A     -0.347883

  @DF-RHF Final Energy:  -500.03579853565446

   => Energetics <=

    Nuclear Repulsion Energy =            602.9990402532641838
    One-Electron Energy =               -1876.1435826762353827
    Two-Electron Energy =                 773.1087438873166775
    Total Energy =                       -500.0357985356545214
  Basis Set: (AUG-CC-PVTZ AUX)
    Blend: AUG-CC-PVTZ-RI
    Molecular point group: c1

    Geometry (in Angstrom), charge = 0, multiplicity = 1:

       Center              X                  Y                   Z               Mass
    ------------   -----------------  -----------------  -----------------  -----------------
         O            1.072343306945     0.472388587518     0.012349915062    15.994914619570
         O            2.531829306945    -1.108787412482    -0.713743084938    15.994914619570
         C           -2.368657693055    -0.091295412482     0.296853915062    12.000000000000
         C           -3.597368693055     0.778026587518     0.405246915062    12.000000000000
         C           -1.261936693055     0.391301587518    -0.297964084938    12.000000000000
         C            0.008989306945    -0.334340412482    -0.563860084938    12.000000000000
         C           -2.512511693055    -1.477509412482     0.861557915062    12.000000000000
         C           -4.708377693055     0.352428587518    -0.561019084938    12.000000000000
         C            3.355284306945     0.871276587518     0.436661915062    12.000000000000
         C            2.294065406945    -0.030650612482    -0.143092484938    12.000000000000
         C            4.768360606945     0.322272087518     0.324171215062    12.000000000000
         H           -3.328401693055     1.821014587518     0.203253915062     1.007825032230
         H           -3.978280693055     0.743121587518     1.434606915062     1.007825032230
         H           -1.272370693055     1.421838587518    -0.652388084938     1.007825032230
         H            0.203758306945    -0.438377412482    -1.637204084938     1.007825032230
         H            0.048146306945    -1.334161412482    -0.126809084938     1.007825032230
         H           -2.794446693055    -1.418576412482     1.921236915062     1.007825032230
         H           -3.309971693055    -2.028776412482     0.349277915062     1.007825032230
         H           -1.599761693055    -2.071125412482     0.785867915062     1.007825032230
         H           -5.042941693055    -0.669727412482    -0.362027084938     1.007825032230
         H           -4.352878693055     0.397832587518    -1.594113084938     1.007825032230
         H           -5.577004693055     1.011754587518    -0.468358084938     1.007825032230
         H            3.269231306945     1.837759587518    -0.072754084938     1.007825032230
         H            3.088164306945     1.059807587518     1.481214915062     1.007825032230
         H            4.834659306945    -0.654484412482     0.834437915062     1.007825032230
         H            5.011114306945     0.126334587518    -0.735677084938     1.007825032230
         H            5.491234306945     0.990575587518     0.739054915062     1.007825032230

  Basis Set: AUG-CC-PVTZ
    Blend: AUG-CC-PVTZ
  Basis Set: (AUG-CC-PVTZ AUX)
    Blend: AUG-CC-PVTZ-JKFIT
	 Reference Energy          =    -500.0357985356544646 [Eh]
	 Singles Energy            =      -0.0000000000000000 [Eh]
	 Same-Spin Energy          =      -0.5099651050218218 [Eh]
	 Opposite-Spin Energy      =      -1.7171589475194635 [Eh]
	 Correlation Energy        =      -2.2271240525412854 [Eh]
	 Total Energy              =    -502.2629225881957495 [Eh]

	 ================> DF-SCS-MP2 Energies <==================
	-----------------------------------------------------------
	 SCS Same-Spin Scale       =       0.3333333333333333 [-]
	 SCS Opposite-Spin Scale   =       1.2000000000000000 [-]
	 SCS Same-Spin Energy      =      -0.1699883683406073 [Eh]
	 SCS Opposite-Spin Energy  =      -2.0605907370233560 [Eh]
	 SCS Correlation Energy    =      -2.2305791053639634 [Eh]
	 SCS Total Energy          =    -502.2663776410184369 [Eh]
	-----------------------------------------------------------

  Dipole Moment: [D]
     X:    -1.6890      Y:     1.2863      Z:     0.8785     Total:     2.2976

*** Psi4 exiting successfully. Buy a developer a beer!
