                               Psi4 1.3.2 release

  ==> Input File <==

--------------------------------------------------------------------------
#psi4
#
memory 32 gb

molecule  {
0 1
  O        1.0716460     0.4753830     0.0137820
  O        2.5311320    -1.1057930    -0.7123110
  C       -2.3745667    -0.0778611     0.2969433
  C       -3.5980660     0.7810210     0.4066790
  C       -1.2626340     0.3942960    -0.2965320
  C        0.0132061    -0.3206315    -0.5678632
  C       -2.5132090    -1.4745150     0.8629900
  C       -4.7090750     0.3554230    -0.5595870
  C        3.3545870     0.8742710     0.4380940
  C        2.3120420    -0.0450080    -0.1482500
  C        4.7580620     0.3036620     0.3135630
  H       -3.3290990     1.8240090     0.2046860
  H       -3.9789780     0.7461160     1.4360390
  H       -1.2730680     1.4248330    -0.6509560
  H        0.2030610    -0.4353830    -1.6357720
  H        0.0474490    -1.3311670    -0.1253770
  H       -2.7951440    -1.4155820     1.9226690
  H       -3.3106690    -2.0257820     0.3507100
  H       -1.6004590    -2.0681310     0.7873000
  H       -5.0436390    -0.6667330    -0.3605950
  H       -4.3535760     0.4008270    -1.5926810
  H       -5.5777020     1.0147490    -0.4669260
  H        3.2685340     1.8407540    -0.0713220
  H        3.0874670     1.0628020     1.4826470
  H        4.8339620    -0.6514900     0.8358700
  H        5.0104170     0.1293290    -0.7342450
  H        5.4905370     0.9935700     0.7404870
units angstrom
no_reorient  #important for SAPT in psi4, default
symmetry c1  #important for SAPT in psi4, default
}

set PROPERTIES_ORIGIN ["COM"]
properties('MP2/aug-cc-pvtz', properties = ['dipole'])
--------------------------------------------------------------------------

    Molecular point group: c1
  Charge       = 0
  Multiplicity = 1
  Basis Set: AUG-CC-PVTZ
    Blend: AUG-CC-PVTZ
  Basis Set: (AUG-CC-PVTZ AUX)
    Blend: AUG-CC-PVTZ-JKFIT

    Orbital Energies [Eh]
    ---------------------

    Doubly Occupied:

       1A    -20.598212     2A    -20.541338     3A    -11.376146
       4A    -11.286803     5A    -11.244316     6A    -11.242576
       7A    -11.228046     8A    -11.226255     9A    -11.222997
      10A    -11.219371    11A    -11.218132    12A     -1.449891
      13A     -1.348847    14A     -1.112485    15A     -1.064480
      16A     -1.021962    17A     -0.976769    18A     -0.919883
      19A     -0.879716    20A     -0.834217    21A     -0.768201
      22A     -0.722496    23A     -0.688577    24A     -0.680540
      25A     -0.661046    26A     -0.638672    27A     -0.624412
      28A     -0.605292    29A     -0.588043    30A     -0.574110
      31A     -0.551790    32A     -0.544940    33A     -0.533318
      34A     -0.522265    35A     -0.517710    36A     -0.514721
      37A     -0.511159    38A     -0.492304    39A     -0.483788
      40A     -0.466452    41A     -0.456879    42A     -0.444890
      43A     -0.346084

  @DF-RHF Final Energy:  -500.03811145497872

   => Energetics <=

    Nuclear Repulsion Energy =            603.1302754085266997
    One-Electron Energy =               -1876.4365127640433002
    Two-Electron Energy =                 773.2681259005380525
    Total Energy =                       -500.0381114549786616
  Basis Set: (AUG-CC-PVTZ AUX)
    Blend: AUG-CC-PVTZ-RI
    Molecular point group: c1

    Geometry (in Angstrom), charge = 0, multiplicity = 1:

       Center              X                  Y                   Z               Mass
    ------------   -----------------  -----------------  -----------------  -----------------
         O            1.071668804303     0.473756955448     0.014302921128    15.994914619570
         O            2.531154804303    -1.107419044552    -0.711790078872    15.994914619570
         C           -2.374543895697    -0.079487144552     0.297464221128    12.000000000000
         C           -3.598043195697     0.779394955448     0.407199921128    12.000000000000
         C           -1.262611195697     0.392669955448    -0.296011078872    12.000000000000
         C            0.013228904303    -0.322257544552    -0.567342278872    12.000000000000
         C           -2.513186195697    -1.476141044552     0.863510921128    12.000000000000
         C           -4.709052195697     0.353796955448    -0.559066078872    12.000000000000
         C            3.354609804303     0.872644955448     0.438614921128    12.000000000000
         C            2.312064804303    -0.046634044552    -0.147729078872    12.000000000000
         C            4.758084804303     0.302035955448     0.314083921128    12.000000000000
         H           -3.329076195697     1.822382955448     0.205206921128     1.007825032230
         H           -3.978955195697     0.744489955448     1.436559921128     1.007825032230
         H           -1.273045195697     1.423206955448    -0.650435078872     1.007825032230
         H            0.203083804303    -0.437009044552    -1.635251078872     1.007825032230
         H            0.047471804303    -1.332793044552    -0.124856078872     1.007825032230
         H           -2.795121195697    -1.417208044552     1.923189921128     1.007825032230
         H           -3.310646195697    -2.027408044552     0.351230921128     1.007825032230
         H           -1.600436195697    -2.069757044552     0.787820921128     1.007825032230
         H           -5.043616195697    -0.668359044552    -0.360074078872     1.007825032230
         H           -4.353553195697     0.399200955448    -1.592160078872     1.007825032230
         H           -5.577679195697     1.013122955448    -0.466405078872     1.007825032230
         H            3.268556804303     1.839127955448    -0.070801078872     1.007825032230
         H            3.087489804303     1.061175955448     1.483167921128     1.007825032230
         H            4.833984804303    -0.653116044552     0.836390921128     1.007825032230
         H            5.010439804303     0.127702955448    -0.733724078872     1.007825032230
         H            5.490559804303     0.991943955448     0.741007921128     1.007825032230

  Basis Set: AUG-CC-PVTZ
    Blend: AUG-CC-PVTZ
  Basis Set: (AUG-CC-PVTZ AUX)
    Blend: AUG-CC-PVTZ-JKFIT
	 Reference Energy          =    -500.0381114549787185 [Eh]
	 Singles Energy            =      -0.0000000000000000 [Eh]
	 Same-Spin Energy          =      -0.5097635823696276 [Eh]
	 Opposite-Spin Energy      =      -1.7167905796980600 [Eh]
	 Correlation Energy        =      -2.2265541620676874 [Eh]
	 Total Energy              =    -502.2646656170464325 [Eh]

	 ================> DF-SCS-MP2 Energies <==================
	-----------------------------------------------------------
	 SCS Same-Spin Scale       =       0.3333333333333333 [-]
	 SCS Opposite-Spin Scale   =       1.2000000000000000 [-]
	 SCS Same-Spin Energy      =      -0.1699211941232092 [Eh]
	 SCS Opposite-Spin Energy  =      -2.0601486956376718 [Eh]
	 SCS Correlation Energy    =      -2.2300698897608808 [Eh]
	 SCS Total Energy          =    -502.2681813447396166 [Eh]
	-----------------------------------------------------------

  Dipole Moment: [D]
     X:    -1.4179      Y:     1.2056      Z:     0.8230     Total:     2.0350

*** Psi4 exiting successfully. Buy a developer a beer!
