                               Psi4 1.3.2 release

  ==> Input File <==

--------------------------------------------------------------------------
#psi4
#
memory 32 gb

molecule  {
0 1
  O        1.0716460     0.4753830     0.0137820
  O        2.5311320    -1.1057930    -0.7123110
  C       -2.3798650    -0.0675330     0.2951169
  C       -3.5980660     0.7810210     0.4066790
  C       -1.2626340     0.3942960    -0.2965320
  C        0.0082920    -0.3313460    -0.5624280
  C       -2.5132090    -1.4745150     0.8629900
  C       -4.7090750     0.3554230    -0.5595870
  C        3.3545870     0.8742710     0.4380940
  C        2.3120420    -0.0450080    -0.1482500
  C        4.7580620     0.3036620     0.3135630
  H       -3.3290990     1.8240090     0.2046860
  H       -3.9789780     0.7461160     1.4360390
  H       -1.2909363     1.4266321    -0.6446884
  H        0.2030610    -0.4353830    -1.6357720
  H        0.0474490    -1.3311670    -0.1253770
  H       -2.7951440    -1.4155820     1.9226690
  H       -3.3106690    -2.0257820     0.3507100
  H       -1.6004590    -2.0681310     0.7873000
  H       -5.0436390    -0.6667330    -0.3605950
  H       -4.3535760     0.4008270    -1.5926810
  H       -5.5777020     1.0147490    -0.4669260
  H        3.2685340     1.8407540    -0.0713220
  H        3.0874670     1.0628020     1.4826470
  H        4.8339620    -0.6514900     0.8358700
  H        5.0104170     0.1293290    -0.7342450
  H        5.4905370     0.9935700     0.7404870
units angstrom
no_reorient  #important for SAPT in psi4, default
symmetry c1  #important for SAPT in psi4, default
}

set PROPERTIES_ORIGIN ["COM"]
properties('MP2/aug-cc-pvtz', properties = ['dipole'])
--------------------------------------------------------------------------

    Molecular point group: c1
  Charge       = 0
  Multiplicity = 1
  Basis Set: AUG-CC-PVTZ
    Blend: AUG-CC-PVTZ
  Basis Set: (AUG-CC-PVTZ AUX)
    Blend: AUG-CC-PVTZ-JKFIT

    Orbital Energies [Eh]
    ---------------------

    Doubly Occupied:

       1A    -20.597598     2A    -20.540945     3A    -11.375714
       4A    -11.287607     5A    -11.244084     6A    -11.242296
       7A    -11.227851     8A    -11.226466     9A    -11.223092
      10A    -11.219743    11A    -11.217941    12A     -1.448363
      13A     -1.347809    14A     -1.113192    15A     -1.064200
      16A     -1.022487    17A     -0.975402    18A     -0.920024
      19A     -0.880310    20A     -0.835306    21A     -0.767555
      22A     -0.721659    23A     -0.687921    24A     -0.680267
      25A     -0.660571    26A     -0.638234    27A     -0.625145
      28A     -0.605049    29A     -0.588167    30A     -0.573525
      31A     -0.551952    32A     -0.544809    33A     -0.533144
      34A     -0.521662    35A     -0.517067    36A     -0.514880
      37A     -0.512069    38A     -0.492408    39A     -0.484217
      40A     -0.467695    41A     -0.457512    42A     -0.444633
      43A     -0.345987

  @DF-RHF Final Energy:  -500.03779054938218

   => Energetics <=

    Nuclear Repulsion Energy =            603.0538867028189998
    One-Electron Energy =               -1876.2902426061309598
    Two-Electron Energy =                 773.1985653539297800
    Total Energy =                       -500.0377905493821800
  Basis Set: (AUG-CC-PVTZ AUX)
    Blend: AUG-CC-PVTZ-RI
    Molecular point group: c1

    Geometry (in Angstrom), charge = 0, multiplicity = 1:

       Center              X                  Y                   Z               Mass
    ------------   -----------------  -----------------  -----------------  -----------------
         O            1.072569146315     0.473775042252     0.013985064197    15.994914619570
         O            2.532055146315    -1.107400957748    -0.712107935803    15.994914619570
         C           -2.378941853685    -0.069140957748     0.295319964197    12.000000000000
         C           -3.597142853685     0.779413042252     0.406882064197    12.000000000000
         C           -1.261710853685     0.392688042252    -0.296328935803    12.000000000000
         C            0.009215146315    -0.332953957748    -0.562224935803    12.000000000000
         C           -2.512285853685    -1.476122957748     0.863193064197    12.000000000000
         C           -4.708151853685     0.353815042252    -0.559383935803    12.000000000000
         C            3.355510146315     0.872663042252     0.438297064197    12.000000000000
         C            2.312965146315    -0.046615957748    -0.148046935803    12.000000000000
         C            4.758985146315     0.302054042252     0.313766064197    12.000000000000
         H           -3.328175853685     1.822401042252     0.204889064197     1.007825032230
         H           -3.978054853685     0.744508042252     1.436242064197     1.007825032230
         H           -1.290013153685     1.425024142252    -0.644485335803     1.007825032230
         H            0.203984146315    -0.436990957748    -1.635568935803     1.007825032230
         H            0.048372146315    -1.332774957748    -0.125173935803     1.007825032230
         H           -2.794220853685    -1.417189957748     1.922872064197     1.007825032230
         H           -3.309745853685    -2.027389957748     0.350913064197     1.007825032230
         H           -1.599535853685    -2.069738957748     0.787503064197     1.007825032230
         H           -5.042715853685    -0.668340957748    -0.360391935803     1.007825032230
         H           -4.352652853685     0.399219042252    -1.592477935803     1.007825032230
         H           -5.576778853685     1.013141042252    -0.466722935803     1.007825032230
         H            3.269457146315     1.839146042252    -0.071118935803     1.007825032230
         H            3.088390146315     1.061194042252     1.482850064197     1.007825032230
         H            4.834885146315    -0.653097957748     0.836073064197     1.007825032230
         H            5.011340146315     0.127721042252    -0.734041935803     1.007825032230
         H            5.491460146315     0.991962042252     0.740690064197     1.007825032230

  Basis Set: AUG-CC-PVTZ
    Blend: AUG-CC-PVTZ
  Basis Set: (AUG-CC-PVTZ AUX)
    Blend: AUG-CC-PVTZ-JKFIT
	 Reference Energy          =    -500.0377905493821800 [Eh]
	 Singles Energy            =      -0.0000000000000000 [Eh]
	 Same-Spin Energy          =      -0.5098095378592179 [Eh]
	 Opposite-Spin Energy      =      -1.7169074487632590 [Eh]
	 Correlation Energy        =      -2.2267169866224767 [Eh]
	 Total Energy              =    -502.2645075360046576 [Eh]

	 ================> DF-SCS-MP2 Energies <==================
	-----------------------------------------------------------
	 SCS Same-Spin Scale       =       0.3333333333333333 [-]
	 SCS Opposite-Spin Scale   =       1.2000000000000000 [-]
	 SCS Same-Spin Energy      =      -0.1699365126197393 [Eh]
	 SCS Opposite-Spin Energy  =      -2.0602889385159107 [Eh]
	 SCS Correlation Energy    =      -2.2302254511356501 [Eh]
	 SCS Total Energy          =    -502.2680160005178323 [Eh]
	-----------------------------------------------------------

  Dipole Moment: [D]
     X:    -1.4517      Y:     1.2013      Z:     0.8233     Total:     2.0564

*** Psi4 exiting successfully. Buy a developer a beer!
