                               Psi4 1.3.2 release

  ==> Input File <==

--------------------------------------------------------------------------
#psi4
#
memory 32 gb

molecule  {
0 1
  O        1.0716460     0.4753830     0.0137820
  O        2.5311320    -1.1057930    -0.7123110
  C       -2.3693550    -0.0883010     0.2982860
  C       -3.5980660     0.7810210     0.4066790
  C       -1.2626340     0.3942960    -0.2965320
  C        0.0082920    -0.3313460    -0.5624280
  C       -2.5132090    -1.4745150     0.8629900
  C       -4.7090750     0.3554230    -0.5595870
  C        3.3545870     0.8742710     0.4380940
  C        2.3503367    -0.0788664    -0.1608915
  C        4.7375800     0.2609810     0.2895999
  H       -3.3290990     1.8240090     0.2046860
  H       -3.9789780     0.7461160     1.4360390
  H       -1.2730680     1.4248330    -0.6509560
  H        0.2030610    -0.4353830    -1.6357720
  H        0.0474490    -1.3311670    -0.1253770
  H       -2.7951440    -1.4155820     1.9226690
  H       -3.3106690    -2.0257820     0.3507100
  H       -1.6004590    -2.0681310     0.7873000
  H       -5.0436390    -0.6667330    -0.3605950
  H       -4.3535760     0.4008270    -1.5926810
  H       -5.5777020     1.0147490    -0.4669260
  H        3.2685340     1.8407540    -0.0713220
  H        3.0874670     1.0628020     1.4826470
  H        4.8339620    -0.6514900     0.8358700
  H        5.0104170     0.1293290    -0.7342450
  H        5.4905370     0.9935700     0.7404870
units angstrom
no_reorient  #important for SAPT in psi4, default
symmetry c1  #important for SAPT in psi4, default
}

set PROPERTIES_ORIGIN ["COM"]
properties('MP2/aug-cc-pvtz', properties = ['dipole'])
--------------------------------------------------------------------------

    Molecular point group: c1
  Charge       = 0
  Multiplicity = 1
  Basis Set: AUG-CC-PVTZ
    Blend: AUG-CC-PVTZ
  Basis Set: (AUG-CC-PVTZ AUX)
    Blend: AUG-CC-PVTZ-JKFIT

    Orbital Energies [Eh]
    ---------------------

    Doubly Occupied:

       1A    -20.584239     2A    -20.552087     3A    -11.373617
       4A    -11.280508     5A    -11.244021     6A    -11.240731
       7A    -11.226186     8A    -11.224138     9A    -11.220275
      10A    -11.220033    11A    -11.217416    12A     -1.449727
      13A     -1.356336    14A     -1.109011    15A     -1.065864
      16A     -1.017554    17A     -0.973296    18A     -0.915256
      19A     -0.877810    20A     -0.830023    21A     -0.760486
      22A     -0.722493    23A     -0.690068    24A     -0.675508
      25A     -0.663806    26A     -0.640766    27A     -0.623365
      28A     -0.605053    29A     -0.586845    30A     -0.571695
      31A     -0.552610    32A     -0.541954    33A     -0.537823
      34A     -0.526682    35A     -0.515556    36A     -0.511473
      37A     -0.506215    38A     -0.503944    39A     -0.482167
      40A     -0.464605    41A     -0.456255    42A     -0.444624
      43A     -0.342427

  @DF-RHF Final Energy:  -500.03266586972978

   => Energetics <=

    Nuclear Repulsion Energy =            603.2993868357523297
    One-Electron Energy =               -1876.8550139217579726
    Two-Electron Energy =                 773.5229612162759167
    Total Energy =                       -500.0326658697297262
  Basis Set: (AUG-CC-PVTZ AUX)
    Blend: AUG-CC-PVTZ-RI
    Molecular point group: c1

    Geometry (in Angstrom), charge = 0, multiplicity = 1:

       Center              X                  Y                   Z               Mass
    ------------   -----------------  -----------------  -----------------  -----------------
         O            1.070276730776     0.481266325954     0.016595592119    15.994914619570
         O            2.529762730776    -1.099909674046    -0.709497407881    15.994914619570
         C           -2.370724269224    -0.082417674046     0.301099592119    12.000000000000
         C           -3.599435269224     0.786904325954     0.409492592119    12.000000000000
         C           -1.264003269224     0.400179325954    -0.293718407881    12.000000000000
         C            0.006922730776    -0.325462674046    -0.559614407881    12.000000000000
         C           -2.514578269224    -1.468631674046     0.865803592119    12.000000000000
         C           -4.710444269224     0.361306325954    -0.556773407881    12.000000000000
         C            3.353217730776     0.880154325954     0.440907592119    12.000000000000
         C            2.348967430776    -0.072983074046    -0.158077907881    12.000000000000
         C            4.736210730776     0.266864325954     0.292413492119    12.000000000000
         H           -3.330468269224     1.829892325954     0.207499592119     1.007825032230
         H           -3.980347269224     0.751999325954     1.438852592119     1.007825032230
         H           -1.274437269224     1.430716325954    -0.648142407881     1.007825032230
         H            0.201691730776    -0.429499674046    -1.632958407881     1.007825032230
         H            0.046079730776    -1.325283674046    -0.122563407881     1.007825032230
         H           -2.796513269224    -1.409698674046     1.925482592119     1.007825032230
         H           -3.312038269224    -2.019898674046     0.353523592119     1.007825032230
         H           -1.601828269224    -2.062247674046     0.790113592119     1.007825032230
         H           -5.045008269224    -0.660849674046    -0.357781407881     1.007825032230
         H           -4.354945269224     0.406710325954    -1.589867407881     1.007825032230
         H           -5.579071269224     1.020632325954    -0.464112407881     1.007825032230
         H            3.267164730776     1.846637325954    -0.068508407881     1.007825032230
         H            3.086097730776     1.068685325954     1.485460592119     1.007825032230
         H            4.832592730776    -0.645606674046     0.838683592119     1.007825032230
         H            5.009047730776     0.135212325954    -0.731431407881     1.007825032230
         H            5.489167730776     0.999453325954     0.743300592119     1.007825032230

  Basis Set: AUG-CC-PVTZ
    Blend: AUG-CC-PVTZ
  Basis Set: (AUG-CC-PVTZ AUX)
    Blend: AUG-CC-PVTZ-JKFIT
	 Reference Energy          =    -500.0326658697297830 [Eh]
	 Singles Energy            =      -0.0000000000000000 [Eh]
	 Same-Spin Energy          =      -0.5095443699821885 [Eh]
	 Opposite-Spin Energy      =      -1.7165920831852715 [Eh]
	 Correlation Energy        =      -2.2261364531674599 [Eh]
	 Total Energy              =    -502.2588023228972247 [Eh]

	 ================> DF-SCS-MP2 Energies <==================
	-----------------------------------------------------------
	 SCS Same-Spin Scale       =       0.3333333333333333 [-]
	 SCS Opposite-Spin Scale   =       1.2000000000000000 [-]
	 SCS Same-Spin Energy      =      -0.1698481233273962 [Eh]
	 SCS Opposite-Spin Energy  =      -2.0599104998223257 [Eh]
	 SCS Correlation Energy    =      -2.2297586231497220 [Eh]
	 SCS Total Energy          =    -502.2624244928795179 [Eh]
	-----------------------------------------------------------

  Dipole Moment: [D]
     X:    -0.9532      Y:     0.9713      Z:     0.7387     Total:     1.5484

*** Psi4 exiting successfully. Buy a developer a beer!
