                               Psi4 1.4a3.dev225

  ==> Input File <==

--------------------------------------------------------------------------
#psi4
#
memory 32 gb

molecule  {
0 1
  O       -1.1411000    -0.4541930    -0.0251880
  O       -2.5814580     1.1752260    -0.6867450
  C        2.3134570     0.0186930     0.2462000
  C        3.5222300    -0.8802230     0.3222130
  C        1.1937340    -0.4134970    -0.3651820
  C       -0.0647290     0.3542590    -0.5783780
  C        2.4850690     1.3863280     0.8546590
  C        4.7190700    -0.3405130    -0.4677320
  C       -3.4286640    -0.8122060     0.4327630
  C       -2.3749380     0.0938890    -0.1583950
  C       -4.8282690    -0.2261570     0.3119590
  H        3.2581340    -1.8761120    -0.0507320
  H        3.8122360    -1.0018650     1.3748590
  H        1.1817765    -1.4052808    -0.7660842
  H       -0.2705280     0.5138520    -1.6430550
  H       -0.0714200     1.3330110    -0.0949940
  H        3.0182560     1.3061200     1.8081990
  H        3.0814560     2.0379150     0.2067330
  H        1.5342700     1.8877430     1.0433380
  H        5.0646870     0.6170420    -0.0694620
  H        4.4484560    -0.1949880    -1.5176090
  H        5.5583810    -1.0408350    -0.4253590
  H       -3.3536290    -1.7820470    -0.0715700
  H       -3.1585900    -0.9983310     1.4781360
  H       -4.8922970     0.7333770     0.8287030
  H       -5.0879650    -0.0561110    -0.7346540
  H       -5.5642940    -0.9066400     0.7478690
units angstrom
no_reorient  #important for SAPT in psi4, default
symmetry c1  #important for SAPT in psi4, default
}

set PROPERTIES_ORIGIN ["COM"]
properties('MP2/aug-cc-pvtz', properties = ['dipole'])
--------------------------------------------------------------------------

    Molecular point group: c1
  Charge       = 0
  Multiplicity = 1
  Basis Set: AUG-CC-PVTZ
    Blend: AUG-CC-PVTZ
  Basis Set: (AUG-CC-PVTZ AUX)
    Blend: AUG-CC-PVTZ-JKFIT

    Orbital Energies [Eh]
    ---------------------

    Doubly Occupied:

       1A    -20.597179     2A    -20.540832     3A    -11.375713
       4A    -11.286604     5A    -11.244396     6A    -11.242611
       7A    -11.228654     8A    -11.225992     9A    -11.221126
      10A    -11.219325    11A    -11.218187    12A     -1.446974
      13A     -1.347378    14A     -1.112384    15A     -1.063026
      16A     -1.022136    17A     -0.977029    18A     -0.920749
      19A     -0.879607    20A     -0.833081    21A     -0.766956
      22A     -0.724009    23A     -0.688200    24A     -0.679309
      25A     -0.659995    26A     -0.638723    27A     -0.624017
      28A     -0.605007    29A     -0.589590    30A     -0.571746
      31A     -0.553764    32A     -0.545647    33A     -0.533469
      34A     -0.522175    35A     -0.517955    36A     -0.513520
      37A     -0.513174    38A     -0.492296    39A     -0.484642
      40A     -0.466216    41A     -0.457148    42A     -0.444265
      43A     -0.345933

  @DF-RHF Final Energy:  -500.03860814547807

   => Energetics <=

    Nuclear Repulsion Energy =            602.6076374301047736
    One-Electron Energy =               -1875.4110127421001835
    Two-Electron Energy =                 772.7647671665172311
    Total Energy =                       -500.0386081454780651
  Basis Set: (AUG-CC-PVTZ AUX)
    Blend: AUG-CC-PVTZ-RI
    Molecular point group: c1

    Geometry (in Angstrom), charge = 0, multiplicity = 1:

       Center              X                  Y                   Z               Mass
    ------------   -----------------  -----------------  -----------------  -----------------
         O           -1.086828646431    -0.459702194408    -0.011869864339    15.994914619570
         O           -2.527186646431     1.169716805592    -0.673426864339    15.994914619570
         C            2.367728353569     0.013183805592     0.259518135661    12.000000000000
         C            3.576501353569    -0.885732194408     0.335531135661    12.000000000000
         C            1.248005353569    -0.419006194408    -0.351863864339    12.000000000000
         C           -0.010457646431     0.348749805592    -0.565059864339    12.000000000000
         C            2.539340353569     1.380818805592     0.867977135661    12.000000000000
         C            4.773341353569    -0.346022194408    -0.454413864339    12.000000000000
         C           -3.374392646431    -0.817715194408     0.446081135661    12.000000000000
         C           -2.320666646431     0.088379805592    -0.145076864339    12.000000000000
         C           -4.773997646431    -0.231666194408     0.325277135661    12.000000000000
         H            3.312405353569    -1.881621194408    -0.037413864339     1.007825032230
         H            3.866507353569    -1.007374194408     1.388177135661     1.007825032230
         H            1.236047853569    -1.410789994408    -0.752766064339     1.007825032230
         H           -0.216256646431     0.508342805592    -1.629736864339     1.007825032230
         H           -0.017148646431     1.327501805592    -0.081675864339     1.007825032230
         H            3.072527353569     1.300610805592     1.821517135661     1.007825032230
         H            3.135727353569     2.032405805592     0.220051135661     1.007825032230
         H            1.588541353569     1.882233805592     1.056656135661     1.007825032230
         H            5.118958353569     0.611532805592    -0.056143864339     1.007825032230
         H            4.502727353569    -0.200497194408    -1.504290864339     1.007825032230
         H            5.612652353569    -1.046344194408    -0.412040864339     1.007825032230
         H           -3.299357646431    -1.787556194408    -0.058251864339     1.007825032230
         H           -3.104318646431    -1.003840194408     1.491454135661     1.007825032230
         H           -4.838025646431     0.727867805592     0.842021135661     1.007825032230
         H           -5.033693646431    -0.061620194408    -0.721335864339     1.007825032230
         H           -5.510022646431    -0.912149194408     0.761187135661     1.007825032230

  Basis Set: AUG-CC-PVTZ
    Blend: AUG-CC-PVTZ
  Basis Set: (AUG-CC-PVTZ AUX)
    Blend: AUG-CC-PVTZ-JKFIT
	 Reference Energy          =    -500.0386081454780651 [Eh]
	 Singles Energy            =      -0.0000000000000000 [Eh]
	 Same-Spin Energy          =      -0.5096525823331652 [Eh]
	 Opposite-Spin Energy      =      -1.7167922341135546 [Eh]
	 Correlation Energy        =      -2.2264448164467199 [Eh]
	 Total Energy              =    -502.2650529619247664 [Eh]

	 ================> DF-SCS-MP2 Energies <==================
	-----------------------------------------------------------
	 SCS Same-Spin Scale       =       0.3333333333333333 [-]
	 SCS Opposite-Spin Scale   =       1.2000000000000000 [-]
	 SCS Same-Spin Energy      =      -0.1698841941110551 [Eh]
	 SCS Opposite-Spin Energy  =      -2.0601506809362653 [Eh]
	 SCS Correlation Energy    =      -2.2300348750473202 [Eh]
	 SCS Total Energy          =    -502.2686430205253600 [Eh]
	-----------------------------------------------------------

  Dipole Moment: [D]
     X:     1.4452      Y:    -1.2071      Z:     0.7949     Total:     2.0439

*** Psi4 exiting successfully. Buy a developer a beer!
