                               Psi4 1.3.2 release

  ==> Input File <==

--------------------------------------------------------------------------
#psi4
#
memory 32 gb

molecule  {
0 1
  O        1.0716460     0.4753830     0.0137820
  O        2.5311320    -1.1057930    -0.7123110
  C       -2.3840320    -0.1093751     0.3041279
  C       -3.5980660     0.7810210     0.4066790
  C       -1.2626340     0.3942960    -0.2965320
  C        0.0082920    -0.3313460    -0.5624280
  C       -2.5132090    -1.4745150     0.8629900
  C       -4.7090750     0.3554230    -0.5595870
  C        3.3545870     0.8742710     0.4380940
  C        2.3120420    -0.0450080    -0.1482500
  C        4.7580620     0.3036620     0.3135630
  H       -3.3473391     1.8290687     0.2074291
  H       -3.9789780     0.7461160     1.4360390
  H       -1.2730680     1.4248330    -0.6509560
  H        0.2030610    -0.4353830    -1.6357720
  H        0.0474490    -1.3311670    -0.1253770
  H       -2.7951440    -1.4155820     1.9226690
  H       -3.3106690    -2.0257820     0.3507100
  H       -1.6004590    -2.0681310     0.7873000
  H       -5.0436390    -0.6667330    -0.3605950
  H       -4.3535760     0.4008270    -1.5926810
  H       -5.5777020     1.0147490    -0.4669260
  H        3.2685340     1.8407540    -0.0713220
  H        3.0874670     1.0628020     1.4826470
  H        4.8339620    -0.6514900     0.8358700
  H        5.0104170     0.1293290    -0.7342450
  H        5.4905370     0.9935700     0.7404870
units angstrom
no_reorient  #important for SAPT in psi4, default
symmetry c1  #important for SAPT in psi4, default
}

set PROPERTIES_ORIGIN ["COM"]
properties('MP2/aug-cc-pvtz', properties = ['dipole'])
--------------------------------------------------------------------------

    Molecular point group: c1
  Charge       = 0
  Multiplicity = 1
  Basis Set: AUG-CC-PVTZ
    Blend: AUG-CC-PVTZ
  Basis Set: (AUG-CC-PVTZ AUX)
    Blend: AUG-CC-PVTZ-JKFIT

    Orbital Energies [Eh]
    ---------------------

    Doubly Occupied:

       1A    -20.596873     2A    -20.540482     3A    -11.375217
       4A    -11.285912     5A    -11.246802     6A    -11.241991
       7A    -11.228687     8A    -11.226293     9A    -11.225650
      10A    -11.218937    11A    -11.217717    12A     -1.447754
      13A     -1.347279    14A     -1.112139    15A     -1.063858
      16A     -1.021071    17A     -0.981493    18A     -0.917498
      19A     -0.878631    20A     -0.831599    21A     -0.767060
      22A     -0.723637    23A     -0.687970    24A     -0.680531
      25A     -0.659738    26A     -0.639243    27A     -0.622979
      28A     -0.605687    29A     -0.588537    30A     -0.574932
      31A     -0.555295    32A     -0.544005    33A     -0.533939
      34A     -0.521981    35A     -0.517383    36A     -0.513587
      37A     -0.511852    38A     -0.492083    39A     -0.483698
      40A     -0.468598    41A     -0.457061    42A     -0.444030
      43A     -0.340231

  @DF-RHF Final Energy:  -500.03602803928760

   => Energetics <=

    Nuclear Repulsion Energy =            602.9374477270291663
    One-Electron Energy =               -1876.0670786101395606
    Two-Electron Energy =                 773.0936028438227368
    Total Energy =                       -500.0360280392876575
  Basis Set: (AUG-CC-PVTZ AUX)
    Blend: AUG-CC-PVTZ-RI
    Molecular point group: c1

    Geometry (in Angstrom), charge = 0, multiplicity = 1:

       Center              X                  Y                   Z               Mass
    ------------   -----------------  -----------------  -----------------  -----------------
         O            1.072891848808     0.476970244447     0.013315174047    15.994914619570
         O            2.532377848808    -1.104205755553    -0.712777825953    15.994914619570
         C           -2.382786151192    -0.107787855553     0.303661074047    12.000000000000
         C           -3.596820151192     0.782608244447     0.406212174047    12.000000000000
         C           -1.261388151192     0.395883244447    -0.296998825953    12.000000000000
         C            0.009537848808    -0.329758755553    -0.562894825953    12.000000000000
         C           -2.511963151192    -1.472927755553     0.862523174047    12.000000000000
         C           -4.707829151192     0.357010244447    -0.560053825953    12.000000000000
         C            3.355832848808     0.875858244447     0.437627174047    12.000000000000
         C            2.313287848808    -0.043420755553    -0.148716825953    12.000000000000
         C            4.759307848808     0.305249244447     0.313096174047    12.000000000000
         H           -3.346093251192     1.830655944447     0.206962274047     1.007825032230
         H           -3.977732151192     0.747703244447     1.435572174047     1.007825032230
         H           -1.271822151192     1.426420244447    -0.651422825953     1.007825032230
         H            0.204306848808    -0.433795755553    -1.636238825953     1.007825032230
         H            0.048694848808    -1.329579755553    -0.125843825953     1.007825032230
         H           -2.793898151192    -1.413994755553     1.922202174047     1.007825032230
         H           -3.309423151192    -2.024194755553     0.350243174047     1.007825032230
         H           -1.599213151192    -2.066543755553     0.786833174047     1.007825032230
         H           -5.042393151192    -0.665145755553    -0.361061825953     1.007825032230
         H           -4.352330151192     0.402414244447    -1.593147825953     1.007825032230
         H           -5.576456151192     1.016336244447    -0.467392825953     1.007825032230
         H            3.269779848808     1.842341244447    -0.071788825953     1.007825032230
         H            3.088712848808     1.064389244447     1.482180174047     1.007825032230
         H            4.835207848808    -0.649902755553     0.835403174047     1.007825032230
         H            5.011662848808     0.130916244447    -0.734711825953     1.007825032230
         H            5.491782848808     0.995157244447     0.740020174047     1.007825032230

  Basis Set: AUG-CC-PVTZ
    Blend: AUG-CC-PVTZ
  Basis Set: (AUG-CC-PVTZ AUX)
    Blend: AUG-CC-PVTZ-JKFIT
	 Reference Energy          =    -500.0360280392876007 [Eh]
	 Singles Energy            =      -0.0000000000000000 [Eh]
	 Same-Spin Energy          =      -0.5102120009856006 [Eh]
	 Opposite-Spin Energy      =      -1.7175517798042479 [Eh]
	 Correlation Energy        =      -2.2277637807898483 [Eh]
	 Total Energy              =    -502.2637918200774720 [Eh]

	 ================> DF-SCS-MP2 Energies <==================
	-----------------------------------------------------------
	 SCS Same-Spin Scale       =       0.3333333333333333 [-]
	 SCS Opposite-Spin Scale   =       1.2000000000000000 [-]
	 SCS Same-Spin Energy      =      -0.1700706669952002 [Eh]
	 SCS Opposite-Spin Energy  =      -2.0610621357650976 [Eh]
	 SCS Correlation Energy    =      -2.2311328027602979 [Eh]
	 SCS Total Energy          =    -502.2671608420478719 [Eh]
	-----------------------------------------------------------

  Dipole Moment: [D]
     X:    -1.4683      Y:     1.1675      Z:     0.8544     Total:     2.0613

*** Psi4 exiting successfully. Buy a developer a beer!
