                               Psi4 1.4a3.dev225

  ==> Input File <==

--------------------------------------------------------------------------
#psi4
#
memory 32 gb

molecule  {
0 1
  O       -1.1411000    -0.4541930    -0.0251880
  O       -2.5814580     1.1752260    -0.6867450
  C        2.3134570     0.0186930     0.2462000
  C        3.5222300    -0.8802230     0.3222130
  C        1.1937340    -0.4134970    -0.3651820
  C       -0.0647290     0.3542590    -0.5783780
  C        2.4850690     1.3863280     0.8546590
  C        4.7190700    -0.3405130    -0.4677320
  C       -3.4286640    -0.8122060     0.4327630
  C       -2.3749380     0.0938890    -0.1583950
  C       -4.8282690    -0.2261570     0.3119590
  H        3.2581340    -1.8761120    -0.0507320
  H        3.8122360    -1.0018650     1.3748590
  H        1.1813295    -1.4423632    -0.7810738
  H       -0.2705280     0.5138520    -1.6430550
  H       -0.0714200     1.3330110    -0.0949940
  H        3.0182560     1.3061200     1.8081990
  H        3.0814560     2.0379150     0.2067330
  H        1.5342700     1.8877430     1.0433380
  H        5.0646870     0.6170420    -0.0694620
  H        4.4484560    -0.1949880    -1.5176090
  H        5.5583810    -1.0408350    -0.4253590
  H       -3.3536290    -1.7820470    -0.0715700
  H       -3.1585900    -0.9983310     1.4781360
  H       -4.8922970     0.7333770     0.8287030
  H       -5.0879650    -0.0561110    -0.7346540
  H       -5.5642940    -0.9066400     0.7478690
units angstrom
no_reorient  #important for SAPT in psi4, default
symmetry c1  #important for SAPT in psi4, default
}

set PROPERTIES_ORIGIN ["COM"]
properties('MP2/aug-cc-pvtz', properties = ['dipole'])
--------------------------------------------------------------------------

    Molecular point group: c1
  Charge       = 0
  Multiplicity = 1
  Basis Set: AUG-CC-PVTZ
    Blend: AUG-CC-PVTZ
  Basis Set: (AUG-CC-PVTZ AUX)
    Blend: AUG-CC-PVTZ-JKFIT

    Orbital Energies [Eh]
    ---------------------

    Doubly Occupied:

       1A    -20.597238     2A    -20.540885     3A    -11.375762
       4A    -11.287125     5A    -11.244727     6A    -11.242628
       7A    -11.228607     8A    -11.226382     9A    -11.225855
      10A    -11.219298    11A    -11.218203    12A     -1.447035
      13A     -1.347433    14A     -1.111968    15A     -1.063051
      16A     -1.021713    17A     -0.977016    18A     -0.919998
      19A     -0.879677    20A     -0.832467    21A     -0.766753
      22A     -0.721116    23A     -0.687403    24A     -0.679373
      25A     -0.659380    26A     -0.637700    27A     -0.624091
      28A     -0.604226    29A     -0.589169    30A     -0.571936
      31A     -0.553847    32A     -0.545710    33A     -0.533327
      34A     -0.521902    35A     -0.517204    36A     -0.513380
      37A     -0.511916    38A     -0.492235    39A     -0.484620
      40A     -0.465511    41A     -0.457142    42A     -0.444309
      43A     -0.346203

  @DF-RHF Final Energy:  -500.03786994089501

   => Energetics <=

    Nuclear Repulsion Energy =            602.4072883576196773
    One-Electron Energy =               -1875.0192807253176852
    Two-Electron Energy =                 772.5741224268028873
    Total Energy =                       -500.0378699408950069
  Basis Set: (AUG-CC-PVTZ AUX)
    Blend: AUG-CC-PVTZ-RI
    Molecular point group: c1

    Geometry (in Angstrom), charge = 0, multiplicity = 1:

       Center              X                  Y                   Z               Mass
    ------------   -----------------  -----------------  -----------------  -----------------
         O           -1.086825760753    -0.459462803165    -0.011773096628    15.994914619570
         O           -2.527183760753     1.169956196835    -0.673330096628    15.994914619570
         C            2.367731239247     0.013423196835     0.259614903372    12.000000000000
         C            3.576504239247    -0.885492803165     0.335627903372    12.000000000000
         C            1.248008239247    -0.418766803165    -0.351767096628    12.000000000000
         C           -0.010454760753     0.348989196835    -0.564963096628    12.000000000000
         C            2.539343239247     1.381058196835     0.868073903372    12.000000000000
         C            4.773344239247    -0.345782803165    -0.454317096628    12.000000000000
         C           -3.374389760753    -0.817475803165     0.446177903372    12.000000000000
         C           -2.320663760753     0.088619196835    -0.144980096628    12.000000000000
         C           -4.773994760753    -0.231426803165     0.325373903372    12.000000000000
         H            3.312408239247    -1.881381803165    -0.037317096628     1.007825032230
         H            3.866510239247    -1.007134803165     1.388273903372     1.007825032230
         H            1.235603739247    -1.447633003165    -0.767658896628     1.007825032230
         H           -0.216253760753     0.508582196835    -1.629640096628     1.007825032230
         H           -0.017145760753     1.327741196835    -0.081579096628     1.007825032230
         H            3.072530239247     1.300850196835     1.821613903372     1.007825032230
         H            3.135730239247     2.032645196835     0.220147903372     1.007825032230
         H            1.588544239247     1.882473196835     1.056752903372     1.007825032230
         H            5.118961239247     0.611772196835    -0.056047096628     1.007825032230
         H            4.502730239247    -0.200257803165    -1.504194096628     1.007825032230
         H            5.612655239247    -1.046104803165    -0.411944096628     1.007825032230
         H           -3.299354760753    -1.787316803165    -0.058155096628     1.007825032230
         H           -3.104315760753    -1.003600803165     1.491550903372     1.007825032230
         H           -4.838022760753     0.728107196835     0.842117903372     1.007825032230
         H           -5.033690760753    -0.061380803165    -0.721239096628     1.007825032230
         H           -5.510019760753    -0.911909803165     0.761283903372     1.007825032230

  Basis Set: AUG-CC-PVTZ
    Blend: AUG-CC-PVTZ
  Basis Set: (AUG-CC-PVTZ AUX)
    Blend: AUG-CC-PVTZ-JKFIT
	 Reference Energy          =    -500.0378699408950069 [Eh]
	 Singles Energy            =      -0.0000000000000000 [Eh]
	 Same-Spin Energy          =      -0.5097410922571151 [Eh]
	 Opposite-Spin Energy      =      -1.7170868300317916 [Eh]
	 Correlation Energy        =      -2.2268279222889067 [Eh]
	 Total Energy              =    -502.2646978631839261 [Eh]

	 ================> DF-SCS-MP2 Energies <==================
	-----------------------------------------------------------
	 SCS Same-Spin Scale       =       0.3333333333333333 [-]
	 SCS Opposite-Spin Scale   =       1.2000000000000000 [-]
	 SCS Same-Spin Energy      =      -0.1699136974190383 [Eh]
	 SCS Opposite-Spin Energy  =      -2.0605041960381500 [Eh]
	 SCS Correlation Energy    =      -2.2304178934571883 [Eh]
	 SCS Total Energy          =    -502.2682878343521793 [Eh]
	-----------------------------------------------------------

  Dipole Moment: [D]
     X:     1.4411      Y:    -1.1908      Z:     0.8019     Total:     2.0341

*** Psi4 exiting successfully. Buy a developer a beer!
