                               Psi4 1.3.2 release

  ==> Input File <==

--------------------------------------------------------------------------
#psi4
#
memory 32 gb

molecule  {
0 1
  O        1.0716460     0.4753830     0.0137820
  O        2.5311320    -1.1057930    -0.7123110
  C       -2.3693550    -0.0883010     0.2982860
  C       -3.5980660     0.7810210     0.4066790
  C       -1.2626340     0.3942960    -0.2965320
  C       -0.0253278    -0.2968754    -0.5464116
  C       -2.5132090    -1.4745150     0.8629900
  C       -4.7090750     0.3554230    -0.5595870
  C        3.3545870     0.8742710     0.4380940
  C        2.3297800    -0.0077941    -0.1250780
  C        4.7580620     0.3036620     0.3135630
  H       -3.3290990     1.8240090     0.2046860
  H       -3.9789780     0.7461160     1.4360390
  H       -1.2730680     1.4248330    -0.6509560
  H        0.2030610    -0.4353830    -1.6357720
  H        0.0474490    -1.3311670    -0.1253770
  H       -2.7951440    -1.4155820     1.9226690
  H       -3.3106690    -2.0257820     0.3507100
  H       -1.6004590    -2.0681310     0.7873000
  H       -5.0436390    -0.6667330    -0.3605950
  H       -4.3535760     0.4008270    -1.5926810
  H       -5.5777020     1.0147490    -0.4669260
  H        3.2685340     1.8407540    -0.0713220
  H        3.0874670     1.0628020     1.4826470
  H        4.8339620    -0.6514900     0.8358700
  H        5.0104170     0.1293290    -0.7342450
  H        5.4905370     0.9935700     0.7404870
units angstrom
no_reorient  #important for SAPT in psi4, default
symmetry c1  #important for SAPT in psi4, default
}

set PROPERTIES_ORIGIN ["COM"]
properties('MP2/aug-cc-pvtz', properties = ['dipole'])
--------------------------------------------------------------------------

    Molecular point group: c1
  Charge       = 0
  Multiplicity = 1
  Basis Set: AUG-CC-PVTZ
    Blend: AUG-CC-PVTZ
  Basis Set: (AUG-CC-PVTZ AUX)
    Blend: AUG-CC-PVTZ-JKFIT

    Orbital Energies [Eh]
    ---------------------

    Doubly Occupied:

       1A    -20.595864     2A    -20.534424     3A    -11.379555
       4A    -11.288284     5A    -11.246871     6A    -11.244169
       7A    -11.229521     8A    -11.226878     9A    -11.221196
      10A    -11.220171    11A    -11.220008    12A     -1.439216
      13A     -1.324117    14A     -1.116679    15A     -1.073732
      16A     -1.027574    17A     -0.980156    18A     -0.922533
      19A     -0.885191    20A     -0.833805    21A     -0.763078
      22A     -0.726369    23A     -0.687784    24A     -0.676953
      25A     -0.655012    26A     -0.641621    27A     -0.625705
      28A     -0.603658    29A     -0.588760    30A     -0.576045
      31A     -0.551365    32A     -0.542907    33A     -0.531078
      34A     -0.526261    35A     -0.515537    36A     -0.515530
      37A     -0.509099    38A     -0.487262    39A     -0.485285
      40A     -0.468198    41A     -0.446475    42A     -0.442310
      43A     -0.346721

  @DF-RHF Final Energy:  -500.02698244771091

   => Energetics <=

    Nuclear Repulsion Energy =            603.0875098301163462
    One-Electron Energy =               -1876.3830729099211112
    Two-Electron Energy =                 773.2685806320937445
    Total Energy =                       -500.0269824477109069
  Basis Set: (AUG-CC-PVTZ AUX)
    Blend: AUG-CC-PVTZ-RI
    Molecular point group: c1

    Geometry (in Angstrom), charge = 0, multiplicity = 1:

       Center              X                  Y                   Z               Mass
    ------------   -----------------  -----------------  -----------------  -----------------
         O            1.072866705622     0.469872888674     0.010769657220    15.994914619570
         O            2.532352705622    -1.111303111326    -0.715323342780    15.994914619570
         C           -2.368134294378    -0.093811111326     0.295273657220    12.000000000000
         C           -3.596845294378     0.775510888674     0.403666657220    12.000000000000
         C           -1.261413294378     0.388785888674    -0.299544342780    12.000000000000
         C           -0.024107094378    -0.302385511326    -0.549423942780    12.000000000000
         C           -2.511988294378    -1.480025111326     0.859977657220    12.000000000000
         C           -4.707854294378     0.349912888674    -0.562599342780    12.000000000000
         C            3.355807705622     0.868760888674     0.435081657220    12.000000000000
         C            2.331000705622    -0.013304211326    -0.128090342780    12.000000000000
         C            4.759282705622     0.298151888674     0.310550657220    12.000000000000
         H           -3.327878294378     1.818498888674     0.201673657220     1.007825032230
         H           -3.977757294378     0.740605888674     1.433026657220     1.007825032230
         H           -1.271847294378     1.419322888674    -0.653968342780     1.007825032230
         H            0.204281705622    -0.440893111326    -1.638784342780     1.007825032230
         H            0.048669705622    -1.336677111326    -0.128389342780     1.007825032230
         H           -2.793923294378    -1.421092111326     1.919656657220     1.007825032230
         H           -3.309448294378    -2.031292111326     0.347697657220     1.007825032230
         H           -1.599238294378    -2.073641111326     0.784287657220     1.007825032230
         H           -5.042418294378    -0.672243111326    -0.363607342780     1.007825032230
         H           -4.352355294378     0.395316888674    -1.595693342780     1.007825032230
         H           -5.576481294378     1.009238888674    -0.469938342780     1.007825032230
         H            3.269754705622     1.835243888674    -0.074334342780     1.007825032230
         H            3.088687705622     1.057291888674     1.479634657220     1.007825032230
         H            4.835182705622    -0.657000111326     0.832857657220     1.007825032230
         H            5.011637705622     0.123818888674    -0.737257342780     1.007825032230
         H            5.491757705622     0.988059888674     0.737474657220     1.007825032230

  Basis Set: AUG-CC-PVTZ
    Blend: AUG-CC-PVTZ
  Basis Set: (AUG-CC-PVTZ AUX)
    Blend: AUG-CC-PVTZ-JKFIT
	 Reference Energy          =    -500.0269824477109069 [Eh]
	 Singles Energy            =      -0.0000000000000000 [Eh]
	 Same-Spin Energy          =      -0.5114442552341588 [Eh]
	 Opposite-Spin Energy      =      -1.7192808089636222 [Eh]
	 Correlation Energy        =      -2.2307250641977809 [Eh]
	 Total Energy              =    -502.2577075119086771 [Eh]

	 ================> DF-SCS-MP2 Energies <==================
	-----------------------------------------------------------
	 SCS Same-Spin Scale       =       0.3333333333333333 [-]
	 SCS Opposite-Spin Scale   =       1.2000000000000000 [-]
	 SCS Same-Spin Energy      =      -0.1704814184113863 [Eh]
	 SCS Opposite-Spin Energy  =      -2.0631369707563465 [Eh]
	 SCS Correlation Energy    =      -2.2336183891677326 [Eh]
	 SCS Total Energy          =    -502.2606008368786661 [Eh]
	-----------------------------------------------------------

  Dipole Moment: [D]
     X:    -1.4977      Y:     1.4088      Z:     0.9848     Total:     2.2798

*** Psi4 exiting successfully. Buy a developer a beer!
