                               Psi4 1.3.2 release

  ==> Input File <==

--------------------------------------------------------------------------
#psi4
#
memory 32 gb

molecule  {
0 1
  O        1.0716460     0.4753830     0.0137820
  O        2.5311320    -1.1057930    -0.7123110
  C       -2.3796938    -0.0673853     0.2955555
  C       -3.5980660     0.7810210     0.4066790
  C       -1.2626340     0.3942960    -0.2965320
  C        0.0180231    -0.3098625    -0.5732777
  C       -2.5132090    -1.4745150     0.8629900
  C       -4.7090750     0.3554230    -0.5595870
  C        3.3545870     0.8742710     0.4380940
  C        2.3120420    -0.0450080    -0.1482500
  C        4.7580620     0.3036620     0.3135630
  H       -3.3290990     1.8240090     0.2046860
  H       -3.9789780     0.7461160     1.4360390
  H       -1.2730680     1.4248330    -0.6509560
  H        0.2030610    -0.4353830    -1.6357720
  H        0.0474490    -1.3311670    -0.1253770
  H       -2.7951440    -1.4155820     1.9226690
  H       -3.3106690    -2.0257820     0.3507100
  H       -1.6004590    -2.0681310     0.7873000
  H       -5.0436390    -0.6667330    -0.3605950
  H       -4.3535760     0.4008270    -1.5926810
  H       -5.5777020     1.0147490    -0.4669260
  H        3.2685340     1.8407540    -0.0713220
  H        3.0874670     1.0628020     1.4826470
  H        4.8339620    -0.6514900     0.8358700
  H        5.0104170     0.1293290    -0.7342450
  H        5.4905370     0.9935700     0.7404870
units angstrom
no_reorient  #important for SAPT in psi4, default
symmetry c1  #important for SAPT in psi4, default
}

set PROPERTIES_ORIGIN ["COM"]
properties('MP2/aug-cc-pvtz', properties = ['dipole'])
--------------------------------------------------------------------------

    Molecular point group: c1
  Charge       = 0
  Multiplicity = 1
  Basis Set: AUG-CC-PVTZ
    Blend: AUG-CC-PVTZ
  Basis Set: (AUG-CC-PVTZ AUX)
    Blend: AUG-CC-PVTZ-JKFIT

    Orbital Energies [Eh]
    ---------------------

    Doubly Occupied:

       1A    -20.599110     2A    -20.541915     3A    -11.376773
       4A    -11.287163     5A    -11.244398     6A    -11.242957
       7A    -11.227666     8A    -11.226094     9A    -11.222755
      10A    -11.219540    11A    -11.218396    12A     -1.451686
      13A     -1.350082    14A     -1.112565    15A     -1.065060
      16A     -1.022139    17A     -0.975621    18A     -0.920086
      19A     -0.880333    20A     -0.834938    21A     -0.769064
      22A     -0.722350    23A     -0.689332    24A     -0.681053
      25A     -0.661919    26A     -0.638687    27A     -0.625107
      28A     -0.605481    29A     -0.588121    30A     -0.573741
      31A     -0.550765    32A     -0.545405    33A     -0.532882
      34A     -0.522392    35A     -0.518107    36A     -0.514964
      37A     -0.510238    38A     -0.492360    39A     -0.483827
      40A     -0.466679    41A     -0.456151    42A     -0.445267
      43A     -0.346070

  @DF-RHF Final Energy:  -500.03718323036861

   => Energetics <=

    Nuclear Repulsion Energy =            603.1823204177908337
    One-Electron Energy =               -1876.5205374799766105
    Two-Electron Energy =                 773.3010338318172217
    Total Energy =                       -500.0371832303685551
  Basis Set: (AUG-CC-PVTZ AUX)
    Blend: AUG-CC-PVTZ-RI
    Molecular point group: c1

    Geometry (in Angstrom), charge = 0, multiplicity = 1:

       Center              X                  Y                   Z               Mass
    ------------   -----------------  -----------------  -----------------  -----------------
         O            1.071692640573     0.472123944197     0.014825789426    15.994914619570
         O            2.531178640573    -1.109052055803    -0.711267210574    15.994914619570
         C           -2.379647159427    -0.070644355803     0.296599289426    12.000000000000
         C           -3.598019359427     0.777761944197     0.407722789426    12.000000000000
         C           -1.262587359427     0.391036944197    -0.295488210574    12.000000000000
         C            0.018069740573    -0.313121555803    -0.572233910574    12.000000000000
         C           -2.513162359427    -1.477774055803     0.864033789426    12.000000000000
         C           -4.709028359427     0.352163944197    -0.558543210574    12.000000000000
         C            3.354633640573     0.871011944197     0.439137789426    12.000000000000
         C            2.312088640573    -0.048267055803    -0.147206210574    12.000000000000
         C            4.758108640573     0.300402944197     0.314606789426    12.000000000000
         H           -3.329052359427     1.820749944197     0.205729789426     1.007825032230
         H           -3.978931359427     0.742856944197     1.437082789426     1.007825032230
         H           -1.273021359427     1.421573944197    -0.649912210574     1.007825032230
         H            0.203107640573    -0.438642055803    -1.634728210574     1.007825032230
         H            0.047495640573    -1.334426055803    -0.124333210574     1.007825032230
         H           -2.795097359427    -1.418841055803     1.923712789426     1.007825032230
         H           -3.310622359427    -2.029041055803     0.351753789426     1.007825032230
         H           -1.600412359427    -2.071390055803     0.788343789426     1.007825032230
         H           -5.043592359427    -0.669992055803    -0.359551210574     1.007825032230
         H           -4.353529359427     0.397567944197    -1.591637210574     1.007825032230
         H           -5.577655359427     1.011489944197    -0.465882210574     1.007825032230
         H            3.268580640573     1.837494944197    -0.070278210574     1.007825032230
         H            3.087513640573     1.059542944197     1.483690789426     1.007825032230
         H            4.834008640573    -0.654749055803     0.836913789426     1.007825032230
         H            5.010463640573     0.126069944197    -0.733201210574     1.007825032230
         H            5.490583640573     0.990310944197     0.741530789426     1.007825032230

  Basis Set: AUG-CC-PVTZ
    Blend: AUG-CC-PVTZ
  Basis Set: (AUG-CC-PVTZ AUX)
    Blend: AUG-CC-PVTZ-JKFIT
	 Reference Energy          =    -500.0371832303686119 [Eh]
	 Singles Energy            =      -0.0000000000000000 [Eh]
	 Same-Spin Energy          =      -0.5097948878771951 [Eh]
	 Opposite-Spin Energy      =      -1.7168040974309637 [Eh]
	 Correlation Energy        =      -2.2265989853081587 [Eh]
	 Total Energy              =    -502.2637822156767697 [Eh]

	 ================> DF-SCS-MP2 Energies <==================
	-----------------------------------------------------------
	 SCS Same-Spin Scale       =       0.3333333333333333 [-]
	 SCS Opposite-Spin Scale   =       1.2000000000000000 [-]
	 SCS Same-Spin Energy      =      -0.1699316292923984 [Eh]
	 SCS Opposite-Spin Energy  =      -2.0601649169171563 [Eh]
	 SCS Correlation Energy    =      -2.2300965462095546 [Eh]
	 SCS Total Energy          =    -502.2672797765781638 [Eh]
	-----------------------------------------------------------

  Dipole Moment: [D]
     X:    -1.3889      Y:     1.2301      Z:     0.8138     Total:     2.0259

*** Psi4 exiting successfully. Buy a developer a beer!
