                               Psi4 1.3.2 release

  ==> Input File <==

--------------------------------------------------------------------------
#psi4
#
memory 32 gb

molecule  {
0 1
  O        1.0716460     0.4753830     0.0137820
  O        2.5311320    -1.1057930    -0.7123110
  C       -2.3693550    -0.0883010     0.2982860
  C       -3.5980660     0.7810210     0.4066790
  C       -1.2626340     0.3942960    -0.2965320
  C        0.0082920    -0.3313460    -0.5624280
  C       -2.5132090    -1.4745150     0.8629900
  C       -4.7090750     0.3554230    -0.5595870
  C        3.3545870     0.8742710     0.4380940
  C        2.3183950    -0.0447659    -0.1597778
  C        4.7580620     0.3036620     0.3135630
  H       -3.3290990     1.8240090     0.2046860
  H       -3.9789780     0.7461160     1.4360390
  H       -1.2730680     1.4248330    -0.6509560
  H        0.2030610    -0.4353830    -1.6357720
  H        0.0474490    -1.3311670    -0.1253770
  H       -2.7951440    -1.4155820     1.9226690
  H       -3.3106690    -2.0257820     0.3507100
  H       -1.6004590    -2.0681310     0.7873000
  H       -5.0436390    -0.6667330    -0.3605950
  H       -4.3535760     0.4008270    -1.5926810
  H       -5.5777020     1.0147490    -0.4669260
  H        3.2685340     1.8407540    -0.0713220
  H        3.0951661     1.0683799     1.4835654
  H        4.8339620    -0.6514900     0.8358700
  H        5.0104170     0.1293290    -0.7342450
  H        5.4905370     0.9935700     0.7404870
units angstrom
no_reorient  #important for SAPT in psi4, default
symmetry c1  #important for SAPT in psi4, default
}

set PROPERTIES_ORIGIN ["COM"]
properties('MP2/aug-cc-pvtz', properties = ['dipole'])
--------------------------------------------------------------------------

    Molecular point group: c1
  Charge       = 0
  Multiplicity = 1
  Basis Set: AUG-CC-PVTZ
    Blend: AUG-CC-PVTZ
  Basis Set: (AUG-CC-PVTZ AUX)
    Blend: AUG-CC-PVTZ-JKFIT

    Orbital Energies [Eh]
    ---------------------

    Doubly Occupied:

       1A    -20.595560     2A    -20.542546     3A    -11.375513
       4A    -11.285682     5A    -11.243779     6A    -11.242318
       7A    -11.228108     8A    -11.226069     9A    -11.222865
      10A    -11.218962    11A    -11.218015    12A     -1.447107
      13A     -1.350129    14A     -1.112002    15A     -1.063983
      16A     -1.021202    17A     -0.977303    18A     -0.919007
      19A     -0.878847    20A     -0.833016    21A     -0.766344
      22A     -0.722674    23A     -0.688497    24A     -0.679177
      25A     -0.660613    26A     -0.638431    27A     -0.623724
      28A     -0.604778    29A     -0.588240    30A     -0.574141
      31A     -0.552619    32A     -0.544329    33A     -0.534001
      34A     -0.521819    35A     -0.518300    36A     -0.514243
      37A     -0.511908    38A     -0.492743    39A     -0.483656
      40A     -0.465536    41A     -0.457651    42A     -0.445252
      43A     -0.345591

  @DF-RHF Final Energy:  -500.03846706843882

   => Energetics <=

    Nuclear Repulsion Energy =            603.0367675814957238
    One-Electron Energy =               -1876.2779023074879206
    Two-Electron Energy =                 773.2026676575533202
    Total Energy =                       -500.0384670684388766
  Basis Set: (AUG-CC-PVTZ AUX)
    Blend: AUG-CC-PVTZ-RI
    Molecular point group: c1

    Geometry (in Angstrom), charge = 0, multiplicity = 1:

       Center              X                  Y                   Z               Mass
    ------------   -----------------  -----------------  -----------------  -----------------
         O            1.071107893891     0.475328399614     0.014662099956    15.994914619570
         O            2.530593893891    -1.105847600386    -0.711430900044    15.994914619570
         C           -2.369893106109    -0.088355600386     0.299166099956    12.000000000000
         C           -3.598604106109     0.780966399614     0.407559099956    12.000000000000
         C           -1.263172106109     0.394241399614    -0.295651900044    12.000000000000
         C            0.007753893891    -0.331400600386    -0.561547900044    12.000000000000
         C           -2.513747106109    -1.474569600386     0.863870099956    12.000000000000
         C           -4.709613106109     0.355368399614    -0.558706900044    12.000000000000
         C            3.354048893891     0.874216399614     0.438974099956    12.000000000000
         C            2.317856893891    -0.044820500386    -0.158897700044    12.000000000000
         C            4.757523893891     0.303607399614     0.314443099956    12.000000000000
         H           -3.329637106109     1.823954399614     0.205566099956     1.007825032230
         H           -3.979516106109     0.746061399614     1.436919099956     1.007825032230
         H           -1.273606106109     1.424778399614    -0.650075900044     1.007825032230
         H            0.202522893891    -0.435437600386    -1.634891900044     1.007825032230
         H            0.046910893891    -1.331221600386    -0.124496900044     1.007825032230
         H           -2.795682106109    -1.415636600386     1.923549099956     1.007825032230
         H           -3.311207106109    -2.025836600386     0.351590099956     1.007825032230
         H           -1.600997106109    -2.068185600386     0.788180099956     1.007825032230
         H           -5.044177106109    -0.666787600386    -0.359714900044     1.007825032230
         H           -4.354114106109     0.400772399614    -1.591800900044     1.007825032230
         H           -5.578240106109     1.014694399614    -0.466045900044     1.007825032230
         H            3.267995893891     1.840699399614    -0.070441900044     1.007825032230
         H            3.094627993891     1.068325299614     1.484445499956     1.007825032230
         H            4.833423893891    -0.651544600386     0.836750099956     1.007825032230
         H            5.009878893891     0.129274399614    -0.733364900044     1.007825032230
         H            5.489998893891     0.993515399614     0.741367099956     1.007825032230

  Basis Set: AUG-CC-PVTZ
    Blend: AUG-CC-PVTZ
  Basis Set: (AUG-CC-PVTZ AUX)
    Blend: AUG-CC-PVTZ-JKFIT
	 Reference Energy          =    -500.0384670684388198 [Eh]
	 Singles Energy            =      -0.0000000000000000 [Eh]
	 Same-Spin Energy          =      -0.5097029817563157 [Eh]
	 Opposite-Spin Energy      =      -1.7167479879857883 [Eh]
	 Correlation Energy        =      -2.2264509697421042 [Eh]
	 Total Energy              =    -502.2649180381809515 [Eh]

	 ================> DF-SCS-MP2 Energies <==================
	-----------------------------------------------------------
	 SCS Same-Spin Scale       =       0.3333333333333333 [-]
	 SCS Opposite-Spin Scale   =       1.2000000000000000 [-]
	 SCS Same-Spin Energy      =      -0.1699009939187719 [Eh]
	 SCS Opposite-Spin Energy  =      -2.0600975855829460 [Eh]
	 SCS Correlation Energy    =      -2.2299985795017179 [Eh]
	 SCS Total Energy          =    -502.2684656479405589 [Eh]
	-----------------------------------------------------------

  Dipole Moment: [D]
     X:    -1.3759      Y:     1.1596      Z:     0.8121     Total:     1.9742

*** Psi4 exiting successfully. Buy a developer a beer!
