                               Psi4 1.4a3.dev225

  ==> Input File <==

--------------------------------------------------------------------------
#psi4
#
memory 32 gb

molecule  {
0 1
  O       -1.1411000    -0.4541930    -0.0251880
  O       -2.5814580     1.1752260    -0.6867450
  C        2.3134570     0.0186930     0.2462000
  C        3.5222300    -0.8802230     0.3222130
  C        1.1937340    -0.4134970    -0.3651820
  C       -0.0499376     0.3653687    -0.5859799
  C        2.4850690     1.3863280     0.8546590
  C        4.7190700    -0.3405130    -0.4677320
  C       -3.4286640    -0.8122060     0.4327630
  C       -2.3749380     0.0938890    -0.1583950
  C       -4.8282690    -0.2261570     0.3119590
  H        3.2581340    -1.8761120    -0.0507320
  H        3.8122360    -1.0018650     1.3748590
  H        1.1815530    -1.4238220    -0.7735790
  H       -0.2705280     0.5138520    -1.6430550
  H       -0.0714200     1.3330110    -0.0949940
  H        3.0182560     1.3061200     1.8081990
  H        3.0814560     2.0379150     0.2067330
  H        1.5342700     1.8877430     1.0433380
  H        5.0646870     0.6170420    -0.0694620
  H        4.4484560    -0.1949880    -1.5176090
  H        5.5583810    -1.0408350    -0.4253590
  H       -3.3536290    -1.7820470    -0.0715700
  H       -3.1585900    -0.9983310     1.4781360
  H       -4.8922970     0.7333770     0.8287030
  H       -5.0879650    -0.0561110    -0.7346540
  H       -5.5642940    -0.9066400     0.7478690
units angstrom
no_reorient  #important for SAPT in psi4, default
symmetry c1  #important for SAPT in psi4, default
}

set PROPERTIES_ORIGIN ["COM"]
properties('MP2/aug-cc-pvtz', properties = ['dipole'])
--------------------------------------------------------------------------

    Molecular point group: c1
  Charge       = 0
  Multiplicity = 1
  Basis Set: AUG-CC-PVTZ
    Blend: AUG-CC-PVTZ
  Basis Set: (AUG-CC-PVTZ AUX)
    Blend: AUG-CC-PVTZ-JKFIT

    Orbital Energies [Eh]
    ---------------------

    Doubly Occupied:

       1A    -20.594779     2A    -20.539378     3A    -11.374231
       4A    -11.287222     5A    -11.245350     6A    -11.241663
       7A    -11.229111     8A    -11.226814     9A    -11.223914
      10A    -11.219806    11A    -11.217510    12A     -1.442445
      13A     -1.344091    14A     -1.113226    15A     -1.061908
      16A     -1.022952    17A     -0.977408    18A     -0.919919
      19A     -0.879662    20A     -0.833244    21A     -0.764377
      22A     -0.722576    23A     -0.686063    24A     -0.678228
      25A     -0.657496    26A     -0.638171    27A     -0.624778
      28A     -0.603850    29A     -0.589419    30A     -0.571949
      31A     -0.554193    32A     -0.546219    33A     -0.534620
      34A     -0.521234    35A     -0.517215    36A     -0.513803
      37A     -0.511750    38A     -0.491935    39A     -0.485233
      40A     -0.467208    41A     -0.456971    42A     -0.442961
      43A     -0.346727

  @DF-RHF Final Energy:  -500.03783907671976

   => Energetics <=

    Nuclear Repulsion Energy =            602.2938620982099565
    One-Electron Energy =               -1874.8201850066554925
    Two-Electron Energy =                 772.4884838317258300
    Total Energy =                       -500.0378390767197061
  Basis Set: (AUG-CC-PVTZ AUX)
    Blend: AUG-CC-PVTZ-RI
    Molecular point group: c1

    Geometry (in Angstrom), charge = 0, multiplicity = 1:

       Center              X                  Y                   Z               Mass
    ------------   -----------------  -----------------  -----------------  -----------------
         O           -1.087964165230    -0.460436461407    -0.011237149813    15.994914619570
         O           -2.528322165230     1.168982538593    -0.672794149813    15.994914619570
         C            2.366592834770     0.012449538593     0.260150850187    12.000000000000
         C            3.575365834770    -0.886466461407     0.336163850187    12.000000000000
         C            1.246869834770    -0.419740461407    -0.351231149813    12.000000000000
         C            0.003198234770     0.359125238593    -0.572029049813    12.000000000000
         C            2.538204834770     1.380084538593     0.868609850187    12.000000000000
         C            4.772205834770    -0.346756461407    -0.453781149813    12.000000000000
         C           -3.375528165230    -0.818449461407     0.446713850187    12.000000000000
         C           -2.321802165230     0.087645538593    -0.144444149813    12.000000000000
         C           -4.775133165230    -0.232400461407     0.325909850187    12.000000000000
         H            3.311269834770    -1.882355461407    -0.036781149813     1.007825032230
         H            3.865371834770    -1.008108461407     1.388809850187     1.007825032230
         H            1.234688834770    -1.430065461407    -0.759628149813     1.007825032230
         H           -0.217392165230     0.507608538593    -1.629104149813     1.007825032230
         H           -0.018284165230     1.326767538593    -0.081043149813     1.007825032230
         H            3.071391834770     1.299876538593     1.822149850187     1.007825032230
         H            3.134591834770     2.031671538593     0.220683850187     1.007825032230
         H            1.587405834770     1.881499538593     1.057288850187     1.007825032230
         H            5.117822834770     0.610798538593    -0.055511149813     1.007825032230
         H            4.501591834770    -0.201231461407    -1.503658149813     1.007825032230
         H            5.611516834770    -1.047078461407    -0.411408149813     1.007825032230
         H           -3.300493165230    -1.788290461407    -0.057619149813     1.007825032230
         H           -3.105454165230    -1.004574461407     1.492086850187     1.007825032230
         H           -4.839161165230     0.727133538593     0.842653850187     1.007825032230
         H           -5.034829165230    -0.062354461407    -0.720703149813     1.007825032230
         H           -5.511158165230    -0.912883461407     0.761819850187     1.007825032230

  Basis Set: AUG-CC-PVTZ
    Blend: AUG-CC-PVTZ
  Basis Set: (AUG-CC-PVTZ AUX)
    Blend: AUG-CC-PVTZ-JKFIT
	 Reference Energy          =    -500.0378390767197629 [Eh]
	 Singles Energy            =      -0.0000000000000000 [Eh]
	 Same-Spin Energy          =      -0.5097783321697593 [Eh]
	 Opposite-Spin Energy      =      -1.7171904936091820 [Eh]
	 Correlation Energy        =      -2.2269688257789415 [Eh]
	 Total Energy              =    -502.2648079024987169 [Eh]

	 ================> DF-SCS-MP2 Energies <==================
	-----------------------------------------------------------
	 SCS Same-Spin Scale       =       0.3333333333333333 [-]
	 SCS Opposite-Spin Scale   =       1.2000000000000000 [-]
	 SCS Same-Spin Energy      =      -0.1699261107232531 [Eh]
	 SCS Opposite-Spin Energy  =      -2.0606285923310184 [Eh]
	 SCS Correlation Energy    =      -2.2305547030542714 [Eh]
	 SCS Total Energy          =    -502.2683937797740441 [Eh]
	-----------------------------------------------------------

  Dipole Moment: [D]
     X:     1.5451      Y:    -1.1790      Z:     0.7800     Total:     2.0942

*** Psi4 exiting successfully. Buy a developer a beer!
