                               Psi4 1.3.2 release

  ==> Input File <==

--------------------------------------------------------------------------
#psi4
#
memory 32 gb

molecule  {
0 1
  O        1.0716460     0.4753830     0.0137820
  O        2.5311320    -1.1057930    -0.7123110
  C       -2.3585079    -0.1089220     0.3012739
  C       -3.5980660     0.7810210     0.4066790
  C       -1.2626340     0.3942960    -0.2965320
  C        0.0082920    -0.3313460    -0.5624280
  C       -2.5132090    -1.4745150     0.8629900
  C       -4.7090750     0.3554230    -0.5595870
  C        3.3545870     0.8742710     0.4380940
  C        2.3120420    -0.0450080    -0.1482500
  C        4.7580620     0.3036620     0.3135630
  H       -3.3290990     1.8240090     0.2046860
  H       -3.9789780     0.7461160     1.4360390
  H       -1.2551965     1.4227200    -0.6571156
  H        0.2030610    -0.4353830    -1.6357720
  H        0.0474490    -1.3311670    -0.1253770
  H       -2.7951440    -1.4155820     1.9226690
  H       -3.3106690    -2.0257820     0.3507100
  H       -1.6004590    -2.0681310     0.7873000
  H       -5.0436390    -0.6667330    -0.3605950
  H       -4.3535760     0.4008270    -1.5926810
  H       -5.5777020     1.0147490    -0.4669260
  H        3.2685340     1.8407540    -0.0713220
  H        3.0874670     1.0628020     1.4826470
  H        4.8339620    -0.6514900     0.8358700
  H        5.0104170     0.1293290    -0.7342450
  H        5.4905370     0.9935700     0.7404870
units angstrom
no_reorient  #important for SAPT in psi4, default
symmetry c1  #important for SAPT in psi4, default
}

set PROPERTIES_ORIGIN ["COM"]
properties('MP2/aug-cc-pvtz', properties = ['dipole'])
--------------------------------------------------------------------------

    Molecular point group: c1
  Charge       = 0
  Multiplicity = 1
  Basis Set: AUG-CC-PVTZ
    Blend: AUG-CC-PVTZ
  Basis Set: (AUG-CC-PVTZ AUX)
    Blend: AUG-CC-PVTZ-JKFIT

    Orbital Energies [Eh]
    ---------------------

    Doubly Occupied:

       1A    -20.597024     2A    -20.540580     3A    -11.375325
       4A    -11.285428     5A    -11.244537     6A    -11.242095
       7A    -11.228961     8A    -11.226296     9A    -11.223586
      10A    -11.218706    11A    -11.217794    12A     -1.447883
      13A     -1.347397    14A     -1.112155    15A     -1.063650
      16A     -1.021112    17A     -0.980607    18A     -0.919267
      19A     -0.877961    20A     -0.831840    21A     -0.767321
      22A     -0.723766    23A     -0.687756    24A     -0.679844
      25A     -0.659779    26A     -0.639004    27A     -0.622414
      28A     -0.605354    29A     -0.588155    30A     -0.575324
      31A     -0.554008    32A     -0.544511    33A     -0.534415
      34A     -0.522977    35A     -0.518087    36A     -0.514334
      37A     -0.511589    38A     -0.492136    39A     -0.484371
      40A     -0.461761    41A     -0.457031    42A     -0.444200
      43A     -0.346222

  @DF-RHF Final Energy:  -500.03762198806726

   => Energetics <=

    Nuclear Repulsion Energy =            603.1111341985925947
    One-Electron Energy =               -1876.4243926148826631
    Two-Electron Energy =                 773.2756364282226968
    Total Energy =                       -500.0376219880672579
  Basis Set: (AUG-CC-PVTZ AUX)
    Blend: AUG-CC-PVTZ-RI
    Molecular point group: c1

    Geometry (in Angstrom), charge = 0, multiplicity = 1:

       Center              X                  Y                   Z               Mass
    ------------   -----------------  -----------------  -----------------  -----------------
         O            1.070696779090     0.476981720770     0.013592023521    15.994914619570
         O            2.530182779090    -1.104194279230    -0.712500976479    15.994914619570
         C           -2.359457120910    -0.107323279230     0.301083923521    12.000000000000
         C           -3.599015220910     0.782619720770     0.406489023521    12.000000000000
         C           -1.263583220910     0.395894720770    -0.296721976479    12.000000000000
         C            0.007342779090    -0.329747279230    -0.562617976479    12.000000000000
         C           -2.514158220910    -1.472916279230     0.862800023521    12.000000000000
         C           -4.710024220910     0.357021720770    -0.559776976479    12.000000000000
         C            3.353637779090     0.875869720770     0.437904023521    12.000000000000
         C            2.311092779090    -0.043409279230    -0.148439976479    12.000000000000
         C            4.757112779090     0.305260720770     0.313373023521    12.000000000000
         H           -3.330048220910     1.825607720770     0.204496023521     1.007825032230
         H           -3.979927220910     0.747714720770     1.435849023521     1.007825032230
         H           -1.256145720910     1.424318720770    -0.657305576479     1.007825032230
         H            0.202111779090    -0.433784279230    -1.635961976479     1.007825032230
         H            0.046499779090    -1.329568279230    -0.125566976479     1.007825032230
         H           -2.796093220910    -1.413983279230     1.922479023521     1.007825032230
         H           -3.311618220910    -2.024183279230     0.350520023521     1.007825032230
         H           -1.601408220910    -2.066532279230     0.787110023521     1.007825032230
         H           -5.044588220910    -0.665134279230    -0.360784976479     1.007825032230
         H           -4.354525220910     0.402425720770    -1.592870976479     1.007825032230
         H           -5.578651220910     1.016347720770    -0.467115976479     1.007825032230
         H            3.267584779090     1.842352720770    -0.071511976479     1.007825032230
         H            3.086517779090     1.064400720770     1.482457023521     1.007825032230
         H            4.833012779090    -0.649891279230     0.835680023521     1.007825032230
         H            5.009467779090     0.130927720770    -0.734434976479     1.007825032230
         H            5.489587779090     0.995168720770     0.740297023521     1.007825032230

  Basis Set: AUG-CC-PVTZ
    Blend: AUG-CC-PVTZ
  Basis Set: (AUG-CC-PVTZ AUX)
    Blend: AUG-CC-PVTZ-JKFIT
	 Reference Energy          =    -500.0376219880672579 [Eh]
	 Singles Energy            =      -0.0000000000000000 [Eh]
	 Same-Spin Energy          =      -0.5097654500069391 [Eh]
	 Opposite-Spin Energy      =      -1.7168462150574042 [Eh]
	 Correlation Energy        =      -2.2266116650643433 [Eh]
	 Total Energy              =    -502.2642336531316118 [Eh]

	 ================> DF-SCS-MP2 Energies <==================
	-----------------------------------------------------------
	 SCS Same-Spin Scale       =       0.3333333333333333 [-]
	 SCS Opposite-Spin Scale   =       1.2000000000000000 [-]
	 SCS Same-Spin Energy      =      -0.1699218166689797 [Eh]
	 SCS Opposite-Spin Energy  =      -2.0602154580688850 [Eh]
	 SCS Correlation Energy    =      -2.2301372747378645 [Eh]
	 SCS Total Energy          =    -502.2677592628051002 [Eh]
	-----------------------------------------------------------

  Dipole Moment: [D]
     X:    -1.4425      Y:     1.1627      Z:     0.8404     Total:     2.0344

*** Psi4 exiting successfully. Buy a developer a beer!
