                               Psi4 1.3.2 release

  ==> Input File <==

--------------------------------------------------------------------------
#psi4
#
memory 32 gb

molecule  {
0 1
  O        1.0716460     0.4753830     0.0137820
  O        2.5311320    -1.1057930    -0.7123110
  C       -2.3693550    -0.0883010     0.2982860
  C       -3.5980660     0.7810210     0.4066790
  C       -1.2626340     0.3942960    -0.2965320
  C        0.0082920    -0.3313460    -0.5624280
  C       -2.5132090    -1.4745150     0.8629900
  C       -4.7089034     0.3676235    -0.5650655
  C        3.3545870     0.8742710     0.4380940
  C        2.3120420    -0.0450080    -0.1482500
  C        4.7580620     0.3036620     0.3135630
  H       -3.3356326     1.8242987     0.1977085
  H       -3.9789780     0.7461160     1.4360390
  H       -1.2730680     1.4248330    -0.6509560
  H        0.2030610    -0.4353830    -1.6357720
  H        0.0474490    -1.3311670    -0.1253770
  H       -2.7951440    -1.4155820     1.9226690
  H       -3.3106690    -2.0257820     0.3507100
  H       -1.6004590    -2.0681310     0.7873000
  H       -5.0436390    -0.6667330    -0.3605950
  H       -4.3535760     0.4008270    -1.5926810
  H       -5.5777020     1.0147490    -0.4669260
  H        3.2685340     1.8407540    -0.0713220
  H        3.0874670     1.0628020     1.4826470
  H        4.8339620    -0.6514900     0.8358700
  H        5.0104170     0.1293290    -0.7342450
  H        5.4905370     0.9935700     0.7404870
units angstrom
no_reorient  #important for SAPT in psi4, default
symmetry c1  #important for SAPT in psi4, default
}

set PROPERTIES_ORIGIN ["COM"]
properties('MP2/aug-cc-pvtz', properties = ['dipole'])
--------------------------------------------------------------------------

    Molecular point group: c1
  Charge       = 0
  Multiplicity = 1
  Basis Set: AUG-CC-PVTZ
    Blend: AUG-CC-PVTZ
  Basis Set: (AUG-CC-PVTZ AUX)
    Blend: AUG-CC-PVTZ-JKFIT

    Orbital Energies [Eh]
    ---------------------

    Doubly Occupied:

       1A    -20.597342     2A    -20.540786     3A    -11.375543
       4A    -11.286562     5A    -11.244417     6A    -11.242210
       7A    -11.228381     8A    -11.226407     9A    -11.223414
      10A    -11.219109    11A    -11.217880    12A     -1.448151
      13A     -1.347629    14A     -1.112463    15A     -1.063919
      16A     -1.021853    17A     -0.978132    18A     -0.919591
      19A     -0.879070    20A     -0.833433    21A     -0.767463
      22A     -0.722729    23A     -0.687854    24A     -0.680077
      25A     -0.660174    26A     -0.638543    27A     -0.623991
      28A     -0.605347    29A     -0.588358    30A     -0.574277
      31A     -0.552216    32A     -0.545333    33A     -0.533715
      34A     -0.522280    35A     -0.517542    36A     -0.514705
      37A     -0.511855    38A     -0.492248    39A     -0.482586
      40A     -0.466328    41A     -0.457367    42A     -0.444468
      43A     -0.346169

  @DF-RHF Final Energy:  -500.03813952320320

   => Energetics <=

    Nuclear Repulsion Energy =            603.0374968411482541
    One-Electron Energy =               -1876.2674366049477612
    Two-Electron Energy =                 773.1918002405961943
    Total Energy =                       -500.0381395232031991
  Basis Set: (AUG-CC-PVTZ AUX)
    Blend: AUG-CC-PVTZ-RI
    Molecular point group: c1

    Geometry (in Angstrom), charge = 0, multiplicity = 1:

       Center              X                  Y                   Z               Mass
    ------------   -----------------  -----------------  -----------------  -----------------
         O            1.071674917267     0.474443339284     0.014248085274    15.994914619570
         O            2.531160917267    -1.106732660716    -0.711844914726    15.994914619570
         C           -2.369326082733    -0.089240660716     0.298752085274    12.000000000000
         C           -3.598037082733     0.780081339284     0.407145085274    12.000000000000
         C           -1.262605082733     0.393356339284    -0.296065914726    12.000000000000
         C            0.008320917267    -0.332285660716    -0.561961914726    12.000000000000
         C           -2.513180082733    -1.475454660716     0.863456085274    12.000000000000
         C           -4.708874482733     0.366683839284    -0.564599414726    12.000000000000
         C            3.354615917267     0.873331339284     0.438560085274    12.000000000000
         C            2.312070917267    -0.045947660716    -0.147783914726    12.000000000000
         C            4.758090917267     0.302722339284     0.314029085274    12.000000000000
         H           -3.335603682733     1.823359039284     0.198174585274     1.007825032230
         H           -3.978949082733     0.745176339284     1.436505085274     1.007825032230
         H           -1.273039082733     1.423893339284    -0.650489914726     1.007825032230
         H            0.203089917267    -0.436322660716    -1.635305914726     1.007825032230
         H            0.047477917267    -1.332106660716    -0.124910914726     1.007825032230
         H           -2.795115082733    -1.416521660716     1.923135085274     1.007825032230
         H           -3.310640082733    -2.026721660716     0.351176085274     1.007825032230
         H           -1.600430082733    -2.069070660716     0.787766085274     1.007825032230
         H           -5.043610082733    -0.667672660716    -0.360128914726     1.007825032230
         H           -4.353547082733     0.399887339284    -1.592214914726     1.007825032230
         H           -5.577673082733     1.013809339284    -0.466459914726     1.007825032230
         H            3.268562917267     1.839814339284    -0.070855914726     1.007825032230
         H            3.087495917267     1.061862339284     1.483113085274     1.007825032230
         H            4.833990917267    -0.652429660716     0.836336085274     1.007825032230
         H            5.010445917267     0.128389339284    -0.733778914726     1.007825032230
         H            5.490565917267     0.992630339284     0.740953085274     1.007825032230

  Basis Set: AUG-CC-PVTZ
    Blend: AUG-CC-PVTZ
  Basis Set: (AUG-CC-PVTZ AUX)
    Blend: AUG-CC-PVTZ-JKFIT
	 Reference Energy          =    -500.0381395232031991 [Eh]
	 Singles Energy            =      -0.0000000000000000 [Eh]
	 Same-Spin Energy          =      -0.5097476392934202 [Eh]
	 Opposite-Spin Energy      =      -1.7168247808547674 [Eh]
	 Correlation Energy        =      -2.2265724201481873 [Eh]
	 Total Energy              =    -502.2647119433513581 [Eh]

	 ================> DF-SCS-MP2 Energies <==================
	-----------------------------------------------------------
	 SCS Same-Spin Scale       =       0.3333333333333333 [-]
	 SCS Opposite-Spin Scale   =       1.2000000000000000 [-]
	 SCS Same-Spin Energy      =      -0.1699158797644734 [Eh]
	 SCS Opposite-Spin Energy  =      -2.0601897370257207 [Eh]
	 SCS Correlation Energy    =      -2.2301056167901940 [Eh]
	 SCS Total Energy          =    -502.2682451399933825 [Eh]
	-----------------------------------------------------------

  Dipole Moment: [D]
     X:    -1.4428      Y:     1.1869      Z:     0.8283     Total:     2.0437

*** Psi4 exiting successfully. Buy a developer a beer!
