                               Psi4 1.3.2 release

  ==> Input File <==

--------------------------------------------------------------------------
#psi4
#
memory 32 gb

molecule  {
0 1
  O        1.0752560     0.4654809     0.0208439
  O        2.5311320    -1.1057930    -0.7123110
  C       -2.3693550    -0.0883010     0.2982860
  C       -3.5980660     0.7810210     0.4066790
  C       -1.2626340     0.3942960    -0.2965320
  C        0.0082920    -0.3313460    -0.5624280
  C       -2.5132090    -1.4745150     0.8629900
  C       -4.7090750     0.3554230    -0.5595870
  C        3.3545870     0.8742710     0.4380940
  C        2.3120420    -0.0450080    -0.1482500
  C        4.7580620     0.3036620     0.3135630
  H       -3.3290990     1.8240090     0.2046860
  H       -3.9789780     0.7461160     1.4360390
  H       -1.2730680     1.4248330    -0.6509560
  H        0.2030610    -0.4353830    -1.6357720
  H        0.0549289    -1.3285220    -0.1201001
  H       -2.7951440    -1.4155820     1.9226690
  H       -3.3106690    -2.0257820     0.3507100
  H       -1.6004590    -2.0681310     0.7873000
  H       -5.0436390    -0.6667330    -0.3605950
  H       -4.3535760     0.4008270    -1.5926810
  H       -5.5777020     1.0147490    -0.4669260
  H        3.2685340     1.8407540    -0.0713220
  H        3.0874670     1.0628020     1.4826470
  H        4.8339620    -0.6514900     0.8358700
  H        5.0104170     0.1293290    -0.7342450
  H        5.4905370     0.9935700     0.7404870
units angstrom
no_reorient  #important for SAPT in psi4, default
symmetry c1  #important for SAPT in psi4, default
}

set PROPERTIES_ORIGIN ["COM"]
properties('MP2/aug-cc-pvtz', properties = ['dipole'])
--------------------------------------------------------------------------

    Molecular point group: c1
  Charge       = 0
  Multiplicity = 1
  Basis Set: AUG-CC-PVTZ
    Blend: AUG-CC-PVTZ
  Basis Set: (AUG-CC-PVTZ AUX)
    Blend: AUG-CC-PVTZ-JKFIT

    Orbital Energies [Eh]
    ---------------------

    Doubly Occupied:

       1A    -20.597116     2A    -20.539360     3A    -11.374502
       4A    -11.286922     5A    -11.244709     6A    -11.241842
       7A    -11.228670     8A    -11.226560     9A    -11.223682
      10A    -11.219406    11A    -11.217588    12A     -1.449865
      13A     -1.347056    14A     -1.112848    15A     -1.063806
      16A     -1.022169    17A     -0.978381    18A     -0.920107
      19A     -0.878963    20A     -0.833900    21A     -0.767503
      22A     -0.723198    23A     -0.688017    24A     -0.680538
      25A     -0.660351    26A     -0.638868    27A     -0.623879
      28A     -0.605314    29A     -0.588128    30A     -0.574628
      31A     -0.552859    32A     -0.544728    33A     -0.533964
      34A     -0.522103    35A     -0.517286    36A     -0.514406
      37A     -0.511595    38A     -0.492045    39A     -0.484151
      40A     -0.466048    41A     -0.456822    42A     -0.443878
      43A     -0.346544

  @DF-RHF Final Energy:  -500.03883795786084

   => Energetics <=

    Nuclear Repulsion Energy =            603.2194823535219257
    One-Electron Energy =               -1876.6280324357644531
    Two-Electron Energy =                 773.3697121243817492
    Total Energy =                       -500.0388379578607783
  Basis Set: (AUG-CC-PVTZ AUX)
    Blend: AUG-CC-PVTZ-RI
    Molecular point group: c1

    Geometry (in Angstrom), charge = 0, multiplicity = 1:

       Center              X                  Y                   Z               Mass
    ------------   -----------------  -----------------  -----------------  -----------------
         O            1.074837775195     0.466478371886     0.020086228799    15.994914619570
         O            2.530713775195    -1.104795528114    -0.713068671201    15.994914619570
         C           -2.369773224805    -0.087303528114     0.297528328799    12.000000000000
         C           -3.598484224805     0.782018471886     0.405921328799    12.000000000000
         C           -1.263052224805     0.395293471886    -0.297289671201    12.000000000000
         C            0.007873775195    -0.330348528114    -0.563185671201    12.000000000000
         C           -2.513627224805    -1.473517528114     0.862232328799    12.000000000000
         C           -4.709493224805     0.356420471886    -0.560344671201    12.000000000000
         C            3.354168775195     0.875268471886     0.437336328799    12.000000000000
         C            2.311623775195    -0.044010528114    -0.149007671201    12.000000000000
         C            4.757643775195     0.304659471886     0.312805328799    12.000000000000
         H           -3.329517224805     1.825006471886     0.203928328799     1.007825032230
         H           -3.979396224805     0.747113471886     1.435281328799     1.007825032230
         H           -1.273486224805     1.425830471886    -0.651713671201     1.007825032230
         H            0.202642775195    -0.434385528114    -1.636529671201     1.007825032230
         H            0.054510675195    -1.327524528114    -0.120857771201     1.007825032230
         H           -2.795562224805    -1.414584528114     1.921911328799     1.007825032230
         H           -3.311087224805    -2.024784528114     0.349952328799     1.007825032230
         H           -1.600877224805    -2.067133528114     0.786542328799     1.007825032230
         H           -5.044057224805    -0.665735528114    -0.361352671201     1.007825032230
         H           -4.353994224805     0.401824471886    -1.593438671201     1.007825032230
         H           -5.578120224805     1.015746471886    -0.467683671201     1.007825032230
         H            3.268115775195     1.841751471886    -0.072079671201     1.007825032230
         H            3.087048775195     1.063799471886     1.481889328799     1.007825032230
         H            4.833543775195    -0.650492528114     0.835112328799     1.007825032230
         H            5.009998775195     0.130326471886    -0.735002671201     1.007825032230
         H            5.490118775195     0.994567471886     0.739729328799     1.007825032230

  Basis Set: AUG-CC-PVTZ
    Blend: AUG-CC-PVTZ
  Basis Set: (AUG-CC-PVTZ AUX)
    Blend: AUG-CC-PVTZ-JKFIT
	 Reference Energy          =    -500.0388379578608351 [Eh]
	 Singles Energy            =      -0.0000000000000000 [Eh]
	 Same-Spin Energy          =      -0.5096462485446005 [Eh]
	 Opposite-Spin Energy      =      -1.7165247321448014 [Eh]
	 Correlation Energy        =      -2.2261709806894019 [Eh]
	 Total Energy              =    -502.2650089385502383 [Eh]

	 ================> DF-SCS-MP2 Energies <==================
	-----------------------------------------------------------
	 SCS Same-Spin Scale       =       0.3333333333333333 [-]
	 SCS Opposite-Spin Scale   =       1.2000000000000000 [-]
	 SCS Same-Spin Energy      =      -0.1698820828482002 [Eh]
	 SCS Opposite-Spin Energy  =      -2.0598296785737618 [Eh]
	 SCS Correlation Energy    =      -2.2297117614219619 [Eh]
	 SCS Total Energy          =    -502.2685497192828166 [Eh]
	-----------------------------------------------------------

  Dipole Moment: [D]
     X:    -1.4968      Y:     1.2040      Z:     0.8295     Total:     2.0924

*** Psi4 exiting successfully. Buy a developer a beer!
