                               Psi4 1.4a3.dev225

  ==> Input File <==

--------------------------------------------------------------------------
#psi4
#
memory 32 gb

molecule  {
0 1
  O       -1.1411000    -0.4541930    -0.0251880
  O       -2.5814580     1.1752260    -0.6867450
  C        2.3134570     0.0186930     0.2462000
  C        3.5222300    -0.8802230     0.3222130
  C        1.1937340    -0.4134970    -0.3651820
  C       -0.0224847     0.3284868    -0.5712214
  C        2.4850690     1.3863280     0.8546590
  C        4.7190700    -0.3405130    -0.4677320
  C       -3.4286640    -0.8122060     0.4327630
  C       -2.3749380     0.0938890    -0.1583950
  C       -4.8282690    -0.2261570     0.3119590
  H        3.2581340    -1.8761120    -0.0507320
  H        3.8122360    -1.0018650     1.3748590
  H        1.1815530    -1.4238220    -0.7735790
  H       -0.2705280     0.5138520    -1.6430550
  H       -0.0714200     1.3330110    -0.0949940
  H        3.0182560     1.3061200     1.8081990
  H        3.0814560     2.0379150     0.2067330
  H        1.5342700     1.8877430     1.0433380
  H        5.0646870     0.6170420    -0.0694620
  H        4.4484560    -0.1949880    -1.5176090
  H        5.5583810    -1.0408350    -0.4253590
  H       -3.3536290    -1.7820470    -0.0715700
  H       -3.1585900    -0.9983310     1.4781360
  H       -4.8922970     0.7333770     0.8287030
  H       -5.0879650    -0.0561110    -0.7346540
  H       -5.5642940    -0.9066400     0.7478690
units angstrom
no_reorient  #important for SAPT in psi4, default
symmetry c1  #important for SAPT in psi4, default
}

set PROPERTIES_ORIGIN ["COM"]
properties('MP2/aug-cc-pvtz', properties = ['dipole'])
--------------------------------------------------------------------------

    Molecular point group: c1
  Charge       = 0
  Multiplicity = 1
  Basis Set: AUG-CC-PVTZ
    Blend: AUG-CC-PVTZ
  Basis Set: (AUG-CC-PVTZ AUX)
    Blend: AUG-CC-PVTZ-JKFIT

    Orbital Energies [Eh]
    ---------------------

    Doubly Occupied:

       1A    -20.593339     2A    -20.538994     3A    -11.374438
       4A    -11.288453     5A    -11.247563     6A    -11.241657
       7A    -11.230025     8A    -11.227291     9A    -11.221793
      10A    -11.220466    11A    -11.217411    12A     -1.441641
      13A     -1.344021    14A     -1.116687    15A     -1.062275
      16A     -1.027145    17A     -0.979054    18A     -0.919789
      19A     -0.880328    20A     -0.832029    21A     -0.762703
      22A     -0.725843    23A     -0.686136    24A     -0.676161
      25A     -0.657606    26A     -0.639183    27A     -0.627119
      28A     -0.601783    29A     -0.592732    30A     -0.573280
      31A     -0.553886    32A     -0.545922    33A     -0.533783
      34A     -0.521151    35A     -0.516011    36A     -0.515056
      37A     -0.508733    38A     -0.490544    39A     -0.486718
      40A     -0.470011    41A     -0.452991    42A     -0.442467
      43A     -0.347041

  @DF-RHF Final Energy:  -500.03480153267867

   => Energetics <=

    Nuclear Repulsion Energy =            602.6534677753104461
    One-Electron Energy =               -1875.5140214981679492
    Two-Electron Energy =                 772.8257521901788323
    Total Energy =                       -500.0348015326786708
  Basis Set: (AUG-CC-PVTZ AUX)
    Blend: AUG-CC-PVTZ-RI
    Molecular point group: c1

    Geometry (in Angstrom), charge = 0, multiplicity = 1:

       Center              X                  Y                   Z               Mass
    ------------   -----------------  -----------------  -----------------  -----------------
         O           -1.090074370766    -0.457601482605    -0.012371582547    15.994914619570
         O           -2.530432370766     1.171817517395    -0.673928582547    15.994914619570
         C            2.364482629234     0.015284517395     0.259016417453    12.000000000000
         C            3.573255629234    -0.883631482605     0.335029417453    12.000000000000
         C            1.244759629234    -0.416905482605    -0.352365582547    12.000000000000
         C            0.028540929234     0.325078317395    -0.558404982547    12.000000000000
         C            2.536094629234     1.382919517395     0.867475417453    12.000000000000
         C            4.770095629234    -0.343921482605    -0.454915582547    12.000000000000
         C           -3.377638370766    -0.815614482605     0.445579417453    12.000000000000
         C           -2.323912370766     0.090480517395    -0.145578582547    12.000000000000
         C           -4.777243370766    -0.229565482605     0.324775417453    12.000000000000
         H            3.309159629234    -1.879520482605    -0.037915582547     1.007825032230
         H            3.863261629234    -1.005273482605     1.387675417453     1.007825032230
         H            1.232578629234    -1.427230482605    -0.760762582547     1.007825032230
         H           -0.219502370766     0.510443517395    -1.630238582547     1.007825032230
         H           -0.020394370766     1.329602517395    -0.082177582547     1.007825032230
         H            3.069281629234     1.302711517395     1.821015417453     1.007825032230
         H            3.132481629234     2.034506517395     0.219549417453     1.007825032230
         H            1.585295629234     1.884334517395     1.056154417453     1.007825032230
         H            5.115712629234     0.613633517395    -0.056645582547     1.007825032230
         H            4.499481629234    -0.198396482605    -1.504792582547     1.007825032230
         H            5.609406629234    -1.044243482605    -0.412542582547     1.007825032230
         H           -3.302603370766    -1.785455482605    -0.058753582547     1.007825032230
         H           -3.107564370766    -1.001739482605     1.490952417453     1.007825032230
         H           -4.841271370766     0.729968517395     0.841519417453     1.007825032230
         H           -5.036939370766    -0.059519482605    -0.721837582547     1.007825032230
         H           -5.513268370766    -0.910048482605     0.760685417453     1.007825032230

  Basis Set: AUG-CC-PVTZ
    Blend: AUG-CC-PVTZ
  Basis Set: (AUG-CC-PVTZ AUX)
    Blend: AUG-CC-PVTZ-JKFIT
	 Reference Energy          =    -500.0348015326786708 [Eh]
	 Singles Energy            =      -0.0000000000000000 [Eh]
	 Same-Spin Energy          =      -0.5102960944501446 [Eh]
	 Opposite-Spin Energy      =      -1.7175318346142046 [Eh]
	 Correlation Energy        =      -2.2278279290643490 [Eh]
	 Total Energy              =    -502.2626294617430176 [Eh]

	 ================> DF-SCS-MP2 Energies <==================
	-----------------------------------------------------------
	 SCS Same-Spin Scale       =       0.3333333333333333 [-]
	 SCS Opposite-Spin Scale   =       1.2000000000000000 [-]
	 SCS Same-Spin Energy      =      -0.1700986981500482 [Eh]
	 SCS Opposite-Spin Energy  =      -2.0610382015370452 [Eh]
	 SCS Correlation Energy    =      -2.2311368996870935 [Eh]
	 SCS Total Energy          =    -502.2659384323657719 [Eh]
	-----------------------------------------------------------

  Dipole Moment: [D]
     X:     1.6272      Y:    -1.2162      Z:     0.8153     Total:     2.1890

*** Psi4 exiting successfully. Buy a developer a beer!
