                               Psi4 1.3.2 release

  ==> Input File <==

--------------------------------------------------------------------------
#psi4
#
memory 32 gb

molecule  {
0 1
  O        1.0811153     0.4939273     0.0249890
  O        2.5519819    -1.1031667    -0.7087490
  C       -2.3693550    -0.0883010     0.2982860
  C       -3.5980660     0.7810210     0.4066790
  C       -1.2626340     0.3942960    -0.2965320
  C        0.0082920    -0.3313460    -0.5624280
  C       -2.5132090    -1.4745150     0.8629900
  C       -4.7090750     0.3554230    -0.5595870
  C        3.3545870     0.8742710     0.4380940
  C        2.3120420    -0.0450080    -0.1482500
  C        4.7580620     0.3036620     0.3135630
  H       -3.3290990     1.8240090     0.2046860
  H       -3.9789780     0.7461160     1.4360390
  H       -1.2730680     1.4248330    -0.6509560
  H        0.2030610    -0.4353830    -1.6357720
  H        0.0474490    -1.3311670    -0.1253770
  H       -2.7951440    -1.4155820     1.9226690
  H       -3.3106690    -2.0257820     0.3507100
  H       -1.6004590    -2.0681310     0.7873000
  H       -5.0436390    -0.6667330    -0.3605950
  H       -4.3535760     0.4008270    -1.5926810
  H       -5.5777020     1.0147490    -0.4669260
  H        3.2685340     1.8407540    -0.0713220
  H        3.0874670     1.0628020     1.4826470
  H        4.8339620    -0.6514900     0.8358700
  H        5.0104170     0.1293290    -0.7342450
  H        5.4905370     0.9935700     0.7404870
units angstrom
no_reorient  #important for SAPT in psi4, default
symmetry c1  #important for SAPT in psi4, default
}

set PROPERTIES_ORIGIN ["COM"]
properties('MP2/aug-cc-pvtz', properties = ['dipole'])
--------------------------------------------------------------------------

    Molecular point group: c1
  Charge       = 0
  Multiplicity = 1
  Basis Set: AUG-CC-PVTZ
    Blend: AUG-CC-PVTZ
  Basis Set: (AUG-CC-PVTZ AUX)
    Blend: AUG-CC-PVTZ-JKFIT

    Orbital Energies [Eh]
    ---------------------

    Doubly Occupied:

       1A    -20.599486     2A    -20.541235     3A    -11.374806
       4A    -11.289654     5A    -11.245448     6A    -11.239265
       7A    -11.229165     8A    -11.227344     9A    -11.224473
      10A    -11.219846    11A    -11.215973    12A     -1.444669
      13A     -1.347804    14A     -1.113506    15A     -1.061691
      16A     -1.022194    17A     -0.978283    18A     -0.919009
      19A     -0.878670    20A     -0.833676    21A     -0.766649
      22A     -0.722267    23A     -0.686250    24A     -0.678810
      25A     -0.659506    26A     -0.638629    27A     -0.623949
      28A     -0.603940    29A     -0.587874    30A     -0.574601
      31A     -0.553938    32A     -0.546096    33A     -0.534655
      34A     -0.520803    35A     -0.516721    36A     -0.514144
      37A     -0.512473    38A     -0.491127    39A     -0.484663
      40A     -0.466923    41A     -0.459598    42A     -0.443250
      43A     -0.347057

  @DF-RHF Final Energy:  -500.03662173790417

   => Energetics <=

    Nuclear Repulsion Energy =            602.5711261781358417
    One-Electron Energy =               -1875.3352581013311919
    Two-Electron Energy =                 772.7275101852910666
    Total Energy =                       -500.0366217379041700
  Basis Set: (AUG-CC-PVTZ AUX)
    Blend: AUG-CC-PVTZ-RI
    Molecular point group: c1

    Geometry (in Angstrom), charge = 0, multiplicity = 1:

       Center              X                  Y                   Z               Mass
    ------------   -----------------  -----------------  -----------------  -----------------
         O            1.078008846242     0.491758263914     0.023475756355    15.994914619570
         O            2.548875446242    -1.105335736086    -0.710262243645    15.994914619570
         C           -2.372461453758    -0.090470036086     0.296772756355    12.000000000000
         C           -3.601172453758     0.778851963914     0.405165756355    12.000000000000
         C           -1.265740453758     0.392126963914    -0.298045243645    12.000000000000
         C            0.005185546242    -0.333515036086    -0.563941243645    12.000000000000
         C           -2.516315453758    -1.476684036086     0.861476756355    12.000000000000
         C           -4.712181453758     0.353253963914    -0.561100243645    12.000000000000
         C            3.351480546242     0.872101963914     0.436580756355    12.000000000000
         C            2.308935546242    -0.047177036086    -0.149763243645    12.000000000000
         C            4.754955546242     0.301492963914     0.312049756355    12.000000000000
         H           -3.332205453758     1.821839963914     0.203172756355     1.007825032230
         H           -3.982084453758     0.743946963914     1.434525756355     1.007825032230
         H           -1.276174453758     1.422663963914    -0.652469243645     1.007825032230
         H            0.199954546242    -0.437552036086    -1.637285243645     1.007825032230
         H            0.044342546242    -1.333336036086    -0.126890243645     1.007825032230
         H           -2.798250453758    -1.417751036086     1.921155756355     1.007825032230
         H           -3.313775453758    -2.027951036086     0.349196756355     1.007825032230
         H           -1.603565453758    -2.070300036086     0.785786756355     1.007825032230
         H           -5.046745453758    -0.668902036086    -0.362108243645     1.007825032230
         H           -4.356682453758     0.398657963914    -1.594194243645     1.007825032230
         H           -5.580808453758     1.012579963914    -0.468439243645     1.007825032230
         H            3.265427546242     1.838584963914    -0.072835243645     1.007825032230
         H            3.084360546242     1.060632963914     1.481133756355     1.007825032230
         H            4.830855546242    -0.653659036086     0.834356756355     1.007825032230
         H            5.007310546242     0.127159963914    -0.735758243645     1.007825032230
         H            5.487430546242     0.991400963914     0.738973756355     1.007825032230

  Basis Set: AUG-CC-PVTZ
    Blend: AUG-CC-PVTZ
  Basis Set: (AUG-CC-PVTZ AUX)
    Blend: AUG-CC-PVTZ-JKFIT
	 Reference Energy          =    -500.0366217379041700 [Eh]
	 Singles Energy            =      -0.0000000000000000 [Eh]
	 Same-Spin Energy          =      -0.5099796167722529 [Eh]
	 Opposite-Spin Energy      =      -1.7175836106060038 [Eh]
	 Correlation Energy        =      -2.2275632273782566 [Eh]
	 Total Energy              =    -502.2641849652824249 [Eh]

	 ================> DF-SCS-MP2 Energies <==================
	-----------------------------------------------------------
	 SCS Same-Spin Scale       =       0.3333333333333333 [-]
	 SCS Opposite-Spin Scale   =       1.2000000000000000 [-]
	 SCS Same-Spin Energy      =      -0.1699932055907510 [Eh]
	 SCS Opposite-Spin Energy  =      -2.0611003327272046 [Eh]
	 SCS Correlation Energy    =      -2.2310935383179555 [Eh]
	 SCS Total Energy          =    -502.2677152762221340 [Eh]
	-----------------------------------------------------------

  Dipole Moment: [D]
     X:    -1.6173      Y:     1.1204      Z:     0.7886     Total:     2.1196

*** Psi4 exiting successfully. Buy a developer a beer!
