                               Psi4 1.3.2 release

  ==> Input File <==

--------------------------------------------------------------------------
#psi4
#
memory 32 gb

molecule  {
0 1
  O        1.0716460     0.4753830     0.0137820
  O        2.5311320    -1.1057930    -0.7123110
  C       -2.3766470    -0.0988715     0.3012029
  C       -3.5980660     0.7810210     0.4066790
  C       -1.2626340     0.3942960    -0.2965320
  C        0.0082920    -0.3313460    -0.5624280
  C       -2.5132090    -1.4745150     0.8629900
  C       -4.7090750     0.3554230    -0.5595870
  C        3.3545870     0.8742710     0.4380940
  C        2.3120420    -0.0450080    -0.1482500
  C        4.7580620     0.3036620     0.3135630
  H       -3.3382092     1.8265786     0.2060499
  H       -3.9789780     0.7461160     1.4360390
  H       -1.2730680     1.4248330    -0.6509560
  H        0.2030610    -0.4353830    -1.6357720
  H        0.0474490    -1.3311670    -0.1253770
  H       -2.7951440    -1.4155820     1.9226690
  H       -3.3106690    -2.0257820     0.3507100
  H       -1.6004590    -2.0681310     0.7873000
  H       -5.0436390    -0.6667330    -0.3605950
  H       -4.3535760     0.4008270    -1.5926810
  H       -5.5777020     1.0147490    -0.4669260
  H        3.2685340     1.8407540    -0.0713220
  H        3.0874670     1.0628020     1.4826470
  H        4.8339620    -0.6514900     0.8358700
  H        5.0104170     0.1293290    -0.7342450
  H        5.4905370     0.9935700     0.7404870
units angstrom
no_reorient  #important for SAPT in psi4, default
symmetry c1  #important for SAPT in psi4, default
}

set PROPERTIES_ORIGIN ["COM"]
properties('MP2/aug-cc-pvtz', properties = ['dipole'])
--------------------------------------------------------------------------

    Molecular point group: c1
  Charge       = 0
  Multiplicity = 1
  Basis Set: AUG-CC-PVTZ
    Blend: AUG-CC-PVTZ
  Basis Set: (AUG-CC-PVTZ AUX)
    Blend: AUG-CC-PVTZ-JKFIT

    Orbital Energies [Eh]
    ---------------------

    Doubly Occupied:

       1A    -20.597089     2A    -20.540620     3A    -11.375366
       4A    -11.286208     5A    -11.245524     6A    -11.242092
       7A    -11.228540     8A    -11.226357     9A    -11.224481
      10A    -11.219069    11A    -11.217792    12A     -1.447936
      13A     -1.347439    14A     -1.112259    15A     -1.063882
      16A     -1.021428    17A     -0.979711    18A     -0.918588
      19A     -0.878881    20A     -0.832566    21A     -0.767244
      22A     -0.723152    23A     -0.687889    24A     -0.680302
      25A     -0.659949    26A     -0.638936    27A     -0.623347
      28A     -0.605422    29A     -0.588243    30A     -0.574707
      31A     -0.554018    32A     -0.544298    33A     -0.533834
      34A     -0.522085    35A     -0.517452    36A     -0.514013
      37A     -0.511976    38A     -0.492172    39A     -0.483605
      40A     -0.467471    41A     -0.457200    42A     -0.444237
      43A     -0.343158

  @DF-RHF Final Energy:  -500.03746222952668

   => Energetics <=

    Nuclear Repulsion Energy =            603.0074465249051627
    One-Electron Energy =               -1876.2087387586150271
    Two-Electron Energy =                 773.1638300041831826
    Total Energy =                       -500.0374622295266818
  Basis Set: (AUG-CC-PVTZ AUX)
    Blend: AUG-CC-PVTZ-RI
    Molecular point group: c1

    Geometry (in Angstrom), charge = 0, multiplicity = 1:

       Center              X                  Y                   Z               Mass
    ------------   -----------------  -----------------  -----------------  -----------------
         O            1.072265250960     0.476178945780     0.013548911903    15.994914619570
         O            2.531751250960    -1.104997054220    -0.712544088097    15.994914619570
         C           -2.376027749040    -0.098075554220     0.300969811903    12.000000000000
         C           -3.597446749040     0.781816945780     0.406445911903    12.000000000000
         C           -1.262014749040     0.395091945780    -0.296765088097    12.000000000000
         C            0.008911250960    -0.330550054220    -0.562661088097    12.000000000000
         C           -2.512589749040    -1.473719054220     0.862756911903    12.000000000000
         C           -4.708455749040     0.356218945780    -0.559820088097    12.000000000000
         C            3.355206250960     0.875066945780     0.437860911903    12.000000000000
         C            2.312661250960    -0.044212054220    -0.148483088097    12.000000000000
         C            4.758681250960     0.304457945780     0.313329911903    12.000000000000
         H           -3.337589949040     1.827374545780     0.205816811903     1.007825032230
         H           -3.978358749040     0.746911945780     1.435805911903     1.007825032230
         H           -1.272448749040     1.425628945780    -0.651189088097     1.007825032230
         H            0.203680250960    -0.434587054220    -1.636005088097     1.007825032230
         H            0.048068250960    -1.330371054220    -0.125610088097     1.007825032230
         H           -2.794524749040    -1.414786054220     1.922435911903     1.007825032230
         H           -3.310049749040    -2.024986054220     0.350476911903     1.007825032230
         H           -1.599839749040    -2.067335054220     0.787066911903     1.007825032230
         H           -5.043019749040    -0.665937054220    -0.360828088097     1.007825032230
         H           -4.352956749040     0.401622945780    -1.592914088097     1.007825032230
         H           -5.577082749040     1.015544945780    -0.467159088097     1.007825032230
         H            3.269153250960     1.841549945780    -0.071555088097     1.007825032230
         H            3.088086250960     1.063597945780     1.482413911903     1.007825032230
         H            4.834581250960    -0.650694054220     0.835636911903     1.007825032230
         H            5.011036250960     0.130124945780    -0.734478088097     1.007825032230
         H            5.491156250960     0.994365945780     0.740253911903     1.007825032230

  Basis Set: AUG-CC-PVTZ
    Blend: AUG-CC-PVTZ
  Basis Set: (AUG-CC-PVTZ AUX)
    Blend: AUG-CC-PVTZ-JKFIT
	 Reference Energy          =    -500.0374622295266818 [Eh]
	 Singles Energy            =      -0.0000000000000000 [Eh]
	 Same-Spin Energy          =      -0.5099735805383565 [Eh]
	 Opposite-Spin Energy      =      -1.7171695934485101 [Eh]
	 Correlation Energy        =      -2.2271431739868666 [Eh]
	 Total Energy              =    -502.2646054035135421 [Eh]

	 ================> DF-SCS-MP2 Energies <==================
	-----------------------------------------------------------
	 SCS Same-Spin Scale       =       0.3333333333333333 [-]
	 SCS Opposite-Spin Scale   =       1.2000000000000000 [-]
	 SCS Same-Spin Energy      =      -0.1699911935127855 [Eh]
	 SCS Opposite-Spin Energy  =      -2.0606035121382118 [Eh]
	 SCS Correlation Energy    =      -2.2305947056509972 [Eh]
	 SCS Total Energy          =    -502.2680569351776967 [Eh]
	-----------------------------------------------------------

  Dipole Moment: [D]
     X:    -1.4577      Y:     1.1747      Z:     0.8432     Total:     2.0533

*** Psi4 exiting successfully. Buy a developer a beer!
