                               Psi4 1.3.2 release

  ==> Input File <==

--------------------------------------------------------------------------
#psi4
#
memory 32 gb

molecule  {
0 1
  O        1.0716460     0.4753830     0.0137820
  O        2.5311320    -1.1057930    -0.7123110
  C       -2.3693550    -0.0883010     0.2982860
  C       -3.6794894     0.8386286     0.4138619
  C       -1.2626340     0.3942960    -0.2965320
  C        0.0082920    -0.3313460    -0.5624280
  C       -2.5132090    -1.4745150     0.8629900
  C       -4.7090750     0.3554230    -0.5595870
  C        3.3545870     0.8742710     0.4380940
  C        2.3120420    -0.0450080    -0.1482500
  C        4.7580620     0.3036620     0.3135630
  H       -3.3290990     1.8240090     0.2046860
  H       -3.9789780     0.7461160     1.4360390
  H       -1.2730680     1.4248330    -0.6509560
  H        0.2030610    -0.4353830    -1.6357720
  H        0.0474490    -1.3311670    -0.1253770
  H       -2.7951440    -1.4155820     1.9226690
  H       -3.3106690    -2.0257820     0.3507100
  H       -1.6004590    -2.0681310     0.7873000
  H       -5.0436390    -0.6667330    -0.3605950
  H       -4.3535760     0.4008270    -1.5926810
  H       -5.5777020     1.0147490    -0.4669260
  H        3.2685340     1.8407540    -0.0713220
  H        3.0874670     1.0628020     1.4826470
  H        4.8339620    -0.6514900     0.8358700
  H        5.0104170     0.1293290    -0.7342450
  H        5.4905370     0.9935700     0.7404870
units angstrom
no_reorient  #important for SAPT in psi4, default
symmetry c1  #important for SAPT in psi4, default
}

set PROPERTIES_ORIGIN ["COM"]
properties('MP2/aug-cc-pvtz', properties = ['dipole'])
--------------------------------------------------------------------------

    Molecular point group: c1
  Charge       = 0
  Multiplicity = 1
  Basis Set: AUG-CC-PVTZ
    Blend: AUG-CC-PVTZ
  Basis Set: (AUG-CC-PVTZ AUX)
    Blend: AUG-CC-PVTZ-JKFIT

    Orbital Energies [Eh]
    ---------------------

    Doubly Occupied:

       1A    -20.596732     2A    -20.540337     3A    -11.375087
       4A    -11.285873     5A    -11.246868     6A    -11.241891
       7A    -11.228381     8A    -11.226135     9A    -11.221808
      10A    -11.217814    11A    -11.217632    12A     -1.447595
      13A     -1.347126    14A     -1.104249    15A     -1.063214
      16A     -1.025888    17A     -0.979454    18A     -0.916965
      19A     -0.875934    20A     -0.834589    21A     -0.766859
      22A     -0.720879    23A     -0.686850    24A     -0.677702
      25A     -0.659537    26A     -0.637866    27A     -0.626484
      28A     -0.603406    29A     -0.587171    30A     -0.575304
      31A     -0.553955    32A     -0.543975    33A     -0.533858
      34A     -0.528277    35A     -0.521306    36A     -0.516849
      37A     -0.510396    38A     -0.495287    39A     -0.491648
      40A     -0.457097    41A     -0.444947    42A     -0.439890
      43A     -0.346910

  @DF-RHF Final Energy:  -500.03078332409893

   => Energetics <=

    Nuclear Repulsion Energy =            601.7831091112207105
    One-Electron Energy =               -1873.7877367366811541
    Two-Electron Energy =                 771.9738443013615097
    Total Energy =                       -500.0307833240989339
  Basis Set: (AUG-CC-PVTZ AUX)
    Blend: AUG-CC-PVTZ-RI
    Molecular point group: c1

    Geometry (in Angstrom), charge = 0, multiplicity = 1:

       Center              X                  Y                   Z               Mass
    ------------   -----------------  -----------------  -----------------  -----------------
         O            1.077904652328     0.470954929271     0.013229804719    15.994914619570
         O            2.537390652328    -1.110221070729    -0.712863195281    15.994914619570
         C           -2.363096347672    -0.092729070729     0.297733804719    12.000000000000
         C           -3.673230747672     0.834200529271     0.413309704719    12.000000000000
         C           -1.256375347672     0.389867929271    -0.297084195281    12.000000000000
         C            0.014550652328    -0.335774070729    -0.562980195281    12.000000000000
         C           -2.506950347672    -1.478943070729     0.862437804719    12.000000000000
         C           -4.702816347672     0.350994929271    -0.560139195281    12.000000000000
         C            3.360845652328     0.869842929271     0.437541804719    12.000000000000
         C            2.318300652328    -0.049436070729    -0.148802195281    12.000000000000
         C            4.764320652328     0.299233929271     0.313010804719    12.000000000000
         H           -3.322840347672     1.819580929271     0.204133804719     1.007825032230
         H           -3.972719347672     0.741687929271     1.435486804719     1.007825032230
         H           -1.266809347672     1.420404929271    -0.651508195281     1.007825032230
         H            0.209319652328    -0.439811070729    -1.636324195281     1.007825032230
         H            0.053707652328    -1.335595070729    -0.125929195281     1.007825032230
         H           -2.788885347672    -1.420010070729     1.922116804719     1.007825032230
         H           -3.304410347672    -2.030210070729     0.350157804719     1.007825032230
         H           -1.594200347672    -2.072559070729     0.786747804719     1.007825032230
         H           -5.037380347672    -0.671161070729    -0.361147195281     1.007825032230
         H           -4.347317347672     0.396398929271    -1.593233195281     1.007825032230
         H           -5.571443347672     1.010320929271    -0.467478195281     1.007825032230
         H            3.274792652328     1.836325929271    -0.071874195281     1.007825032230
         H            3.093725652328     1.058373929271     1.482094804719     1.007825032230
         H            4.840220652328    -0.655918070729     0.835317804719     1.007825032230
         H            5.016675652328     0.124900929271    -0.734797195281     1.007825032230
         H            5.496795652328     0.989141929271     0.739934804719     1.007825032230

  Basis Set: AUG-CC-PVTZ
    Blend: AUG-CC-PVTZ
  Basis Set: (AUG-CC-PVTZ AUX)
    Blend: AUG-CC-PVTZ-JKFIT
	 Reference Energy          =    -500.0307833240989339 [Eh]
	 Singles Energy            =      -0.0000000000000000 [Eh]
	 Same-Spin Energy          =      -0.5095342291101119 [Eh]
	 Opposite-Spin Energy      =      -1.7169203611150712 [Eh]
	 Correlation Energy        =      -2.2264545902251829 [Eh]
	 Total Energy              =    -502.2572379143240937 [Eh]

	 ================> DF-SCS-MP2 Energies <==================
	-----------------------------------------------------------
	 SCS Same-Spin Scale       =       0.3333333333333333 [-]
	 SCS Opposite-Spin Scale   =       1.2000000000000000 [-]
	 SCS Same-Spin Energy      =      -0.1698447430367040 [Eh]
	 SCS Opposite-Spin Energy  =      -2.0603044333380853 [Eh]
	 SCS Correlation Energy    =      -2.2301491763747894 [Eh]
	 SCS Total Energy          =    -502.2609325004737002 [Eh]
	-----------------------------------------------------------

  Dipole Moment: [D]
     X:    -1.4784      Y:     1.1803      Z:     0.8359     Total:     2.0681

*** Psi4 exiting successfully. Buy a developer a beer!
