                               Psi4 1.3.2 release

  ==> Input File <==

--------------------------------------------------------------------------
#psi4
#
memory 32 gb

molecule  {
0 1
  O        1.0716460     0.4753830     0.0137820
  O        2.5311320    -1.1057930    -0.7123110
  C       -2.3693550    -0.0883010     0.2982860
  C       -3.5980660     0.7810210     0.4066790
  C       -1.2626340     0.3942960    -0.2965320
  C        0.0082920    -0.3313460    -0.5624280
  C       -2.5132090    -1.4745150     0.8629900
  C       -4.7083276     0.2829328    -0.5251857
  C        3.3545870     0.8742710     0.4380940
  C        2.3120420    -0.0450080    -0.1482500
  C        4.7580620     0.3036620     0.3135630
  H       -3.2903446     1.8206038     0.2468556
  H       -3.9789780     0.7461160     1.4360390
  H       -1.2730680     1.4248330    -0.6509560
  H        0.2030610    -0.4353830    -1.6357720
  H        0.0474490    -1.3311670    -0.1253770
  H       -2.7951440    -1.4155820     1.9226690
  H       -3.3106690    -2.0257820     0.3507100
  H       -1.6004590    -2.0681310     0.7873000
  H       -5.0436390    -0.6667330    -0.3605950
  H       -4.3535760     0.4008270    -1.5926810
  H       -5.5777020     1.0147490    -0.4669260
  H        3.2685340     1.8407540    -0.0713220
  H        3.0874670     1.0628020     1.4826470
  H        4.8339620    -0.6514900     0.8358700
  H        5.0104170     0.1293290    -0.7342450
  H        5.4905370     0.9935700     0.7404870
units angstrom
no_reorient  #important for SAPT in psi4, default
symmetry c1  #important for SAPT in psi4, default
}

set PROPERTIES_ORIGIN ["COM"]
properties('MP2/aug-cc-pvtz', properties = ['dipole'])
--------------------------------------------------------------------------

    Molecular point group: c1
  Charge       = 0
  Multiplicity = 1
  Basis Set: AUG-CC-PVTZ
    Blend: AUG-CC-PVTZ
  Basis Set: (AUG-CC-PVTZ AUX)
    Blend: AUG-CC-PVTZ-JKFIT

    Orbital Energies [Eh]
    ---------------------

    Doubly Occupied:

       1A    -20.597147     2A    -20.540640     3A    -11.375399
       4A    -11.286258     5A    -11.243522     6A    -11.242125
       7A    -11.229326     8A    -11.226455     9A    -11.222696
      10A    -11.221277    11A    -11.217813    12A     -1.447969
      13A     -1.347465    14A     -1.113075    15A     -1.063923
      16A     -1.021972    17A     -0.977276    18A     -0.920377
      19A     -0.880008    20A     -0.835155    21A     -0.767269
      22A     -0.722705    23A     -0.687772    24A     -0.680016
      25A     -0.660074    26A     -0.639513    27A     -0.623231
      28A     -0.604802    29A     -0.588526    30A     -0.576860
      31A     -0.557711    32A     -0.539828    33A     -0.533742
      34A     -0.521845    35A     -0.519970    36A     -0.516675
      37A     -0.511449    38A     -0.492326    39A     -0.481635
      40A     -0.460645    41A     -0.456881    42A     -0.444257
      43A     -0.345730

  @DF-RHF Final Energy:  -500.03002419241096

   => Energetics <=

    Nuclear Repulsion Energy =            603.3521679092423255
    One-Electron Energy =               -1876.8777009440145775
    Two-Electron Energy =                 773.4955088423612324
    Total Energy =                       -500.0300241924110196
  Basis Set: (AUG-CC-PVTZ AUX)
    Blend: AUG-CC-PVTZ-RI
    Molecular point group: c1

    Geometry (in Angstrom), charge = 0, multiplicity = 1:

       Center              X                  Y                   Z               Mass
    ------------   -----------------  -----------------  -----------------  -----------------
         O            1.071338293816     0.480977061337     0.010865391895    15.994914619570
         O            2.530824293816    -1.100198938663    -0.715227608105    15.994914619570
         C           -2.369662706184    -0.082706938663     0.295369391895    12.000000000000
         C           -3.598373706184     0.786615061337     0.403762391895    12.000000000000
         C           -1.262941706184     0.399890061337    -0.299448608105    12.000000000000
         C            0.007984293816    -0.325751938663    -0.565344608105    12.000000000000
         C           -2.513516706184    -1.468920938663     0.860073391895    12.000000000000
         C           -4.708635306184     0.288526861337    -0.528102308105    12.000000000000
         C            3.354279293816     0.879865061337     0.435177391895    12.000000000000
         C            2.311734293816    -0.039413938663    -0.151166608105    12.000000000000
         C            4.757754293816     0.309256061337     0.310646391895    12.000000000000
         H           -3.290652306184     1.826197861337     0.243938991895     1.007825032230
         H           -3.979285706184     0.751710061337     1.433122391895     1.007825032230
         H           -1.273375706184     1.430427061337    -0.653872608105     1.007825032230
         H            0.202753293816    -0.429788938663    -1.638688608105     1.007825032230
         H            0.047141293816    -1.325572938663    -0.128293608105     1.007825032230
         H           -2.795451706184    -1.409987938663     1.919752391895     1.007825032230
         H           -3.310976706184    -2.020187938663     0.347793391895     1.007825032230
         H           -1.600766706184    -2.062536938663     0.784383391895     1.007825032230
         H           -5.043946706184    -0.661138938663    -0.363511608105     1.007825032230
         H           -4.353883706184     0.406421061337    -1.595597608105     1.007825032230
         H           -5.578009706184     1.020343061337    -0.469842608105     1.007825032230
         H            3.268226293816     1.846348061337    -0.074238608105     1.007825032230
         H            3.087159293816     1.068396061337     1.479730391895     1.007825032230
         H            4.833654293816    -0.645895938663     0.832953391895     1.007825032230
         H            5.010109293816     0.134923061337    -0.737161608105     1.007825032230
         H            5.490229293816     0.999164061337     0.737570391895     1.007825032230

  Basis Set: AUG-CC-PVTZ
    Blend: AUG-CC-PVTZ
  Basis Set: (AUG-CC-PVTZ AUX)
    Blend: AUG-CC-PVTZ-JKFIT
	 Reference Energy          =    -500.0300241924109628 [Eh]
	 Singles Energy            =      -0.0000000000000000 [Eh]
	 Same-Spin Energy          =      -0.5099859390303594 [Eh]
	 Opposite-Spin Energy      =      -1.7172863355852064 [Eh]
	 Correlation Energy        =      -2.2272722746155660 [Eh]
	 Total Energy              =    -502.2572964670265492 [Eh]

	 ================> DF-SCS-MP2 Energies <==================
	-----------------------------------------------------------
	 SCS Same-Spin Scale       =       0.3333333333333333 [-]
	 SCS Opposite-Spin Scale   =       1.2000000000000000 [-]
	 SCS Same-Spin Energy      =      -0.1699953130101198 [Eh]
	 SCS Opposite-Spin Energy  =      -2.0607436027022477 [Eh]
	 SCS Correlation Energy    =      -2.2307389157123674 [Eh]
	 SCS Total Energy          =    -502.2607631081233421 [Eh]
	-----------------------------------------------------------

  Dipole Moment: [D]
     X:    -1.4593      Y:     1.1622      Z:     0.8588     Total:     2.0538

*** Psi4 exiting successfully. Buy a developer a beer!
