                               Psi4 1.3.2 release

  ==> Input File <==

--------------------------------------------------------------------------
#psi4
#
memory 32 gb

molecule  {
0 1
  O        1.0716460     0.4753830     0.0137820
  O        2.5311320    -1.1057930    -0.7123110
  C       -2.3693550    -0.0883010     0.2982860
  C       -3.5980660     0.7810210     0.4066790
  C       -1.2966379     0.4552568    -0.3061663
  C        0.0082920    -0.3313460    -0.5624280
  C       -2.5868242    -1.4561006     0.8839525
  C       -4.7090750     0.3554230    -0.5595870
  C        3.3545870     0.8742710     0.4380940
  C        2.3120420    -0.0450080    -0.1482500
  C        4.7580620     0.3036620     0.3135630
  H       -3.3290990     1.8240090     0.2046860
  H       -3.9789780     0.7461160     1.4360390
  H       -1.2730680     1.4248330    -0.6509560
  H        0.2030610    -0.4353830    -1.6357720
  H        0.0474490    -1.3311670    -0.1253770
  H       -2.7951440    -1.4155820     1.9226690
  H       -3.3106690    -2.0257820     0.3507100
  H       -1.6004590    -2.0681310     0.7873000
  H       -5.0436390    -0.6667330    -0.3605950
  H       -4.3535760     0.4008270    -1.5926810
  H       -5.5777020     1.0147490    -0.4669260
  H        3.2685340     1.8407540    -0.0713220
  H        3.0874670     1.0628020     1.4826470
  H        4.8339620    -0.6514900     0.8358700
  H        5.0104170     0.1293290    -0.7342450
  H        5.4905370     0.9935700     0.7404870
units angstrom
no_reorient  #important for SAPT in psi4, default
symmetry c1  #important for SAPT in psi4, default
}

set PROPERTIES_ORIGIN ["COM"]
properties('MP2/aug-cc-pvtz', properties = ['dipole'])
--------------------------------------------------------------------------

    Molecular point group: c1
  Charge       = 0
  Multiplicity = 1
  Basis Set: AUG-CC-PVTZ
    Blend: AUG-CC-PVTZ
  Basis Set: (AUG-CC-PVTZ AUX)
    Blend: AUG-CC-PVTZ-JKFIT

    Orbital Energies [Eh]
    ---------------------

    Doubly Occupied:

       1A    -20.596422     2A    -20.540247     3A    -11.374834
       4A    -11.287744     5A    -11.244450     6A    -11.241847
       7A    -11.229308     8A    -11.224681     9A    -11.224242
      10A    -11.217931    11A    -11.217610    12A     -1.447107
      13A     -1.346689    14A     -1.111610    15A     -1.062966
      16A     -1.015610    17A     -0.976622    18A     -0.923654
      19A     -0.876651    20A     -0.832806    21A     -0.766659
      22A     -0.729275    23A     -0.689063    24A     -0.676374
      25A     -0.659762    26A     -0.637122    27A     -0.621557
      28A     -0.607026    29A     -0.597782    30A     -0.576615
      31A     -0.553570    32A     -0.541621    33A     -0.529749
      34A     -0.525194    35A     -0.518947    36A     -0.514957
      37A     -0.512349    38A     -0.492059    39A     -0.481210
      40A     -0.456801    41A     -0.451929    42A     -0.442935
      43A     -0.349104

  @DF-RHF Final Energy:  -500.02639000953633

   => Energetics <=

    Nuclear Repulsion Energy =            602.2216142218765071
    One-Electron Energy =               -1874.6466288588692350
    Two-Electron Energy =                 772.3986246274563428
    Total Energy =                       -500.0263900095363852
  Basis Set: (AUG-CC-PVTZ AUX)
    Blend: AUG-CC-PVTZ-RI
    Molecular point group: c1

    Geometry (in Angstrom), charge = 0, multiplicity = 1:

       Center              X                  Y                   Z               Mass
    ------------   -----------------  -----------------  -----------------  -----------------
         O            1.079918221428     0.469281732267     0.012911170440    15.994914619570
         O            2.539404221428    -1.111894267733    -0.713181829560    15.994914619570
         C           -2.361082778572    -0.094402267733     0.297415170440    12.000000000000
         C           -3.589793778572     0.774919732267     0.405808170440    12.000000000000
         C           -1.288365678572     0.449155532267    -0.307037129560    12.000000000000
         C            0.016564221428    -0.337447267733    -0.563298829560    12.000000000000
         C           -2.578551978572    -1.462201867733     0.883081670440    12.000000000000
         C           -4.700802778572     0.349321732267    -0.560457829560    12.000000000000
         C            3.362859221428     0.868169732267     0.437223170440    12.000000000000
         C            2.320314221428    -0.051109267733    -0.149120829560    12.000000000000
         C            4.766334221428     0.297560732267     0.312692170440    12.000000000000
         H           -3.320826778572     1.817907732267     0.203815170440     1.007825032230
         H           -3.970705778572     0.740014732267     1.435168170440     1.007825032230
         H           -1.264795778572     1.418731732267    -0.651826829560     1.007825032230
         H            0.211333221428    -0.441484267733    -1.636642829560     1.007825032230
         H            0.055721221428    -1.337268267733    -0.126247829560     1.007825032230
         H           -2.786871778572    -1.421683267733     1.921798170440     1.007825032230
         H           -3.302396778572    -2.031883267733     0.349839170440     1.007825032230
         H           -1.592186778572    -2.074232267733     0.786429170440     1.007825032230
         H           -5.035366778572    -0.672834267733    -0.361465829560     1.007825032230
         H           -4.345303778572     0.394725732267    -1.593551829560     1.007825032230
         H           -5.569429778572     1.008647732267    -0.467796829560     1.007825032230
         H            3.276806221428     1.834652732267    -0.072192829560     1.007825032230
         H            3.095739221428     1.056700732267     1.481776170440     1.007825032230
         H            4.842234221428    -0.657591267733     0.834999170440     1.007825032230
         H            5.018689221428     0.123227732267    -0.735115829560     1.007825032230
         H            5.498809221428     0.987468732267     0.739616170440     1.007825032230

  Basis Set: AUG-CC-PVTZ
    Blend: AUG-CC-PVTZ
  Basis Set: (AUG-CC-PVTZ AUX)
    Blend: AUG-CC-PVTZ-JKFIT
	 Reference Energy          =    -500.0263900095363283 [Eh]
	 Singles Energy            =      -0.0000000000000000 [Eh]
	 Same-Spin Energy          =      -0.5095080425594151 [Eh]
	 Opposite-Spin Energy      =      -1.7172010902197465 [Eh]
	 Correlation Energy        =      -2.2267091327791615 [Eh]
	 Total Energy              =    -502.2530991423154774 [Eh]

	 ================> DF-SCS-MP2 Energies <==================
	-----------------------------------------------------------
	 SCS Same-Spin Scale       =       0.3333333333333333 [-]
	 SCS Opposite-Spin Scale   =       1.2000000000000000 [-]
	 SCS Same-Spin Energy      =      -0.1698360141864717 [Eh]
	 SCS Opposite-Spin Energy  =      -2.0606413082636958 [Eh]
	 SCS Correlation Energy    =      -2.2304773224501675 [Eh]
	 SCS Total Energy          =    -502.2568673319864843 [Eh]
	-----------------------------------------------------------

  Dipole Moment: [D]
     X:    -1.4397      Y:     1.1886      Z:     0.8434     Total:     2.0486

*** Psi4 exiting successfully. Buy a developer a beer!
