                               Psi4 1.4a3.dev225

  ==> Input File <==

--------------------------------------------------------------------------
#psi4
#
memory 32 gb

molecule  {
0 1
  O       -1.1411000    -0.4541930    -0.0251880
  O       -2.5814580     1.1752260    -0.6867450
  C        2.3134570     0.0186930     0.2462000
  C        3.5222300    -0.8802230     0.3222130
  C        1.1521698    -0.4295399    -0.3878765
  C       -0.0647290     0.3542590    -0.5783780
  C        2.4850690     1.3863280     0.8546590
  C        4.7190700    -0.3405130    -0.4677320
  C       -3.4286640    -0.8122060     0.4327630
  C       -2.3749380     0.0938890    -0.1583950
  C       -4.8282690    -0.2261570     0.3119590
  H        3.2581340    -1.8761120    -0.0507320
  H        3.8122360    -1.0018650     1.3748590
  H        1.1815530    -1.4238220    -0.7735790
  H       -0.2705280     0.5138520    -1.6430550
  H       -0.0714200     1.3330110    -0.0949940
  H        3.0182560     1.3061200     1.8081990
  H        3.0814560     2.0379150     0.2067330
  H        1.5342700     1.8877430     1.0433380
  H        5.0646870     0.6170420    -0.0694620
  H        4.4484560    -0.1949880    -1.5176090
  H        5.5583810    -1.0408350    -0.4253590
  H       -3.3536290    -1.7820470    -0.0715700
  H       -3.1585900    -0.9983310     1.4781360
  H       -4.8922970     0.7333770     0.8287030
  H       -5.0879650    -0.0561110    -0.7346540
  H       -5.5642940    -0.9066400     0.7478690
units angstrom
no_reorient  #important for SAPT in psi4, default
symmetry c1  #important for SAPT in psi4, default
}

set PROPERTIES_ORIGIN ["COM"]
properties('MP2/aug-cc-pvtz', properties = ['dipole'])
--------------------------------------------------------------------------

    Molecular point group: c1
  Charge       = 0
  Multiplicity = 1
  Basis Set: AUG-CC-PVTZ
    Blend: AUG-CC-PVTZ
  Basis Set: (AUG-CC-PVTZ AUX)
    Blend: AUG-CC-PVTZ-JKFIT

    Orbital Energies [Eh]
    ---------------------

    Doubly Occupied:

       1A    -20.596287     2A    -20.540573     3A    -11.375174
       4A    -11.285176     5A    -11.252421     6A    -11.242289
       7A    -11.229610     8A    -11.226972     9A    -11.225622
      10A    -11.219776    11A    -11.217967    12A     -1.446836
      13A     -1.347331    14A     -1.107923    15A     -1.063385
      16A     -1.024363    17A     -0.978929    18A     -0.916183
      19A     -0.879890    20A     -0.830454    21A     -0.767585
      22A     -0.724420    23A     -0.688597    24A     -0.679611
      25A     -0.660397    26A     -0.637569    27A     -0.624331
      28A     -0.603751    29A     -0.590611    30A     -0.571517
      31A     -0.554171    32A     -0.545590    33A     -0.534878
      34A     -0.522062    35A     -0.518119    36A     -0.514573
      37A     -0.511234    38A     -0.492153    39A     -0.484034
      40A     -0.471787    41A     -0.457247    42A     -0.443747
      43A     -0.334710

  @DF-RHF Final Energy:  -500.03223291302038

   => Energetics <=

    Nuclear Repulsion Energy =            602.2942213211032367
    One-Electron Energy =               -1874.7731989535784578
    Two-Electron Energy =                 772.4467447194547276
    Total Energy =                       -500.0322329130203798
  Basis Set: (AUG-CC-PVTZ AUX)
    Blend: AUG-CC-PVTZ-RI
    Molecular point group: c1

    Geometry (in Angstrom), charge = 0, multiplicity = 1:

       Center              X                  Y                   Z               Mass
    ------------   -----------------  -----------------  -----------------  -----------------
         O           -1.083632313255    -0.458349338851    -0.010077036016    15.994914619570
         O           -2.523990313255     1.171069661149    -0.671634036016    15.994914619570
         C            2.370924686745     0.014536661149     0.261310963984    12.000000000000
         C            3.579697686745    -0.884379338851     0.337323963984    12.000000000000
         C            1.209637486745    -0.433696238851    -0.372765536016    12.000000000000
         C           -0.007261313255     0.350102661149    -0.563267036016    12.000000000000
         C            2.542536686745     1.382171661149     0.869769963984    12.000000000000
         C            4.776537686745    -0.344669338851    -0.452621036016    12.000000000000
         C           -3.371196313255    -0.816362338851     0.447873963984    12.000000000000
         C           -2.317470313255     0.089732661149    -0.143284036016    12.000000000000
         C           -4.770801313255    -0.230313338851     0.327069963984    12.000000000000
         H            3.315601686745    -1.880268338851    -0.035621036016     1.007825032230
         H            3.869703686745    -1.006021338851     1.389969963984     1.007825032230
         H            1.239020686745    -1.427978338851    -0.758468036016     1.007825032230
         H           -0.213060313255     0.509695661149    -1.627944036016     1.007825032230
         H           -0.013952313255     1.328854661149    -0.079883036016     1.007825032230
         H            3.075723686745     1.301963661149     1.823309963984     1.007825032230
         H            3.138923686745     2.033758661149     0.221843963984     1.007825032230
         H            1.591737686745     1.883586661149     1.058448963984     1.007825032230
         H            5.122154686745     0.612885661149    -0.054351036016     1.007825032230
         H            4.505923686745    -0.199144338851    -1.502498036016     1.007825032230
         H            5.615848686745    -1.044991338851    -0.410248036016     1.007825032230
         H           -3.296161313255    -1.786203338851    -0.056459036016     1.007825032230
         H           -3.101122313255    -1.002487338851     1.493246963984     1.007825032230
         H           -4.834829313255     0.729220661149     0.843813963984     1.007825032230
         H           -5.030497313255    -0.060267338851    -0.719543036016     1.007825032230
         H           -5.506826313255    -0.910796338851     0.762979963984     1.007825032230

  Basis Set: AUG-CC-PVTZ
    Blend: AUG-CC-PVTZ
  Basis Set: (AUG-CC-PVTZ AUX)
    Blend: AUG-CC-PVTZ-JKFIT
	 Reference Energy          =    -500.0322329130203798 [Eh]
	 Singles Energy            =      -0.0000000000000000 [Eh]
	 Same-Spin Energy          =      -0.5105966697265583 [Eh]
	 Opposite-Spin Energy      =      -1.7184961184885499 [Eh]
	 Correlation Energy        =      -2.2290927882151079 [Eh]
	 Total Energy              =    -502.2613257012354779 [Eh]

	 ================> DF-SCS-MP2 Energies <==================
	-----------------------------------------------------------
	 SCS Same-Spin Scale       =       0.3333333333333333 [-]
	 SCS Opposite-Spin Scale   =       1.2000000000000000 [-]
	 SCS Same-Spin Energy      =      -0.1701988899088527 [Eh]
	 SCS Opposite-Spin Energy  =      -2.0621953421862598 [Eh]
	 SCS Correlation Energy    =      -2.2323942320951127 [Eh]
	 SCS Total Energy          =    -502.2646271451154689 [Eh]
	-----------------------------------------------------------

  Dipole Moment: [D]
     X:     1.4648      Y:    -1.1998      Z:     0.7966     Total:     2.0543

*** Psi4 exiting successfully. Buy a developer a beer!
