                               Psi4 1.3.2 release

  ==> Input File <==

--------------------------------------------------------------------------
#psi4
#
memory 32 gb

molecule  {
0 1
  O        1.0763336     0.4846753     0.0193919
  O        2.5415657    -1.1045202    -0.7105514
  C       -2.3693550    -0.0883010     0.2982860
  C       -3.5980660     0.7810210     0.4066790
  C       -1.2626340     0.3942960    -0.2965320
  C        0.0082920    -0.3313460    -0.5624280
  C       -2.5132090    -1.4745150     0.8629900
  C       -4.7090750     0.3554230    -0.5595870
  C        3.3545870     0.8742710     0.4380940
  C        2.3120420    -0.0450080    -0.1482500
  C        4.7580620     0.3036620     0.3135630
  H       -3.3290990     1.8240090     0.2046860
  H       -3.9789780     0.7461160     1.4360390
  H       -1.2730680     1.4248330    -0.6509560
  H        0.2030610    -0.4353830    -1.6357720
  H        0.0474490    -1.3311670    -0.1253770
  H       -2.7951440    -1.4155820     1.9226690
  H       -3.3106690    -2.0257820     0.3507100
  H       -1.6004590    -2.0681310     0.7873000
  H       -5.0436390    -0.6667330    -0.3605950
  H       -4.3535760     0.4008270    -1.5926810
  H       -5.5777020     1.0147490    -0.4669260
  H        3.2685340     1.8407540    -0.0713220
  H        3.0874670     1.0628020     1.4826470
  H        4.8339620    -0.6514900     0.8358700
  H        5.0104170     0.1293290    -0.7342450
  H        5.4905370     0.9935700     0.7404870
units angstrom
no_reorient  #important for SAPT in psi4, default
symmetry c1  #important for SAPT in psi4, default
}

set PROPERTIES_ORIGIN ["COM"]
properties('MP2/aug-cc-pvtz', properties = ['dipole'])
--------------------------------------------------------------------------

    Molecular point group: c1
  Charge       = 0
  Multiplicity = 1
  Basis Set: AUG-CC-PVTZ
    Blend: AUG-CC-PVTZ
  Basis Set: (AUG-CC-PVTZ AUX)
    Blend: AUG-CC-PVTZ-JKFIT

    Orbital Energies [Eh]
    ---------------------

    Doubly Occupied:

       1A    -20.598418     2A    -20.541002     3A    -11.375153
       4A    -11.288077     5A    -11.244856     6A    -11.240732
       7A    -11.228793     8A    -11.226876     9A    -11.223881
      10A    -11.219528    11A    -11.216921    12A     -1.446367
      13A     -1.347699    14A     -1.113005    15A     -1.062798
      16A     -1.021994    17A     -0.978116    18A     -0.919323
      19A     -0.878906    20A     -0.833586    21A     -0.767057
      22A     -0.722465    23A     -0.687034    24A     -0.679409
      25A     -0.659839    26A     -0.638621    27A     -0.623831
      28A     -0.604570    29A     -0.587945    30A     -0.574529
      31A     -0.553382    32A     -0.545322    33A     -0.534179
      34A     -0.521392    35A     -0.517151    36A     -0.514298
      37A     -0.512395    38A     -0.491712    39A     -0.484297
      40A     -0.466316    41A     -0.458483    42A     -0.443887
      43A     -0.346581

  @DF-RHF Final Energy:  -500.03763679260965

   => Energetics <=

    Nuclear Repulsion Energy =            602.8229703248169926
    One-Electron Energy =               -1875.8397625082948252
    Two-Electron Energy =                 772.9791553908680726
    Total Energy =                       -500.0376367926096464
  Basis Set: (AUG-CC-PVTZ AUX)
    Blend: AUG-CC-PVTZ-RI
    Molecular point group: c1

    Geometry (in Angstrom), charge = 0, multiplicity = 1:

       Center              X                  Y                   Z               Mass
    ------------   -----------------  -----------------  -----------------  -----------------
         O            1.074784261615     0.483592860555     0.018636779201    15.994914619570
         O            2.540016361615    -1.105602639445    -0.711306520799    15.994914619570
         C           -2.370904338385    -0.089383439445     0.297530879201    12.000000000000
         C           -3.599615338385     0.779938560555     0.405923879201    12.000000000000
         C           -1.264183338385     0.393213560555    -0.297287120799    12.000000000000
         C            0.006742661615    -0.332428439445    -0.563183120799    12.000000000000
         C           -2.514758338385    -1.475597439445     0.862234879201    12.000000000000
         C           -4.710624338385     0.354340560555    -0.560342120799    12.000000000000
         C            3.353037661615     0.873188560555     0.437338879201    12.000000000000
         C            2.310492661615    -0.046090439445    -0.149005120799    12.000000000000
         C            4.756512661615     0.302579560555     0.312807879201    12.000000000000
         H           -3.330648338385     1.822926560555     0.203930879201     1.007825032230
         H           -3.980527338385     0.745033560555     1.435283879201     1.007825032230
         H           -1.274617338385     1.423750560555    -0.651711120799     1.007825032230
         H            0.201511661615    -0.436465439445    -1.636527120799     1.007825032230
         H            0.045899661615    -1.332249439445    -0.126132120799     1.007825032230
         H           -2.796693338385    -1.416664439445     1.921913879201     1.007825032230
         H           -3.312218338385    -2.026864439445     0.349954879201     1.007825032230
         H           -1.602008338385    -2.069213439445     0.786544879201     1.007825032230
         H           -5.045188338385    -0.667815439445    -0.361350120799     1.007825032230
         H           -4.355125338385     0.399744560555    -1.593436120799     1.007825032230
         H           -5.579251338385     1.013666560555    -0.467681120799     1.007825032230
         H            3.266984661615     1.839671560555    -0.072077120799     1.007825032230
         H            3.085917661615     1.061719560555     1.481891879201     1.007825032230
         H            4.832412661615    -0.652572439445     0.835114879201     1.007825032230
         H            5.008867661615     0.128246560555    -0.735000120799     1.007825032230
         H            5.488987661615     0.992487560555     0.739731879201     1.007825032230

  Basis Set: AUG-CC-PVTZ
    Blend: AUG-CC-PVTZ
  Basis Set: (AUG-CC-PVTZ AUX)
    Blend: AUG-CC-PVTZ-JKFIT
	 Reference Energy          =    -500.0376367926096464 [Eh]
	 Singles Energy            =      -0.0000000000000000 [Eh]
	 Same-Spin Energy          =      -0.5098619892304301 [Eh]
	 Opposite-Spin Energy      =      -1.7171929048330454 [Eh]
	 Correlation Energy        =      -2.2270548940634756 [Eh]
	 Total Energy              =    -502.2646916866731317 [Eh]

	 ================> DF-SCS-MP2 Energies <==================
	-----------------------------------------------------------
	 SCS Same-Spin Scale       =       0.3333333333333333 [-]
	 SCS Opposite-Spin Scale   =       1.2000000000000000 [-]
	 SCS Same-Spin Energy      =      -0.1699539964101434 [Eh]
	 SCS Opposite-Spin Energy  =      -2.0606314857996546 [Eh]
	 SCS Correlation Energy    =      -2.2305854822097979 [Eh]
	 SCS Total Energy          =    -502.2682222748194363 [Eh]
	-----------------------------------------------------------

  Dipole Moment: [D]
     X:    -1.5323      Y:     1.1510      Z:     0.8102     Total:     2.0807

*** Psi4 exiting successfully. Buy a developer a beer!
