                               Psi4 1.3.2 release

  ==> Input File <==

--------------------------------------------------------------------------
#psi4
#
memory 32 gb

molecule  {
0 1
  O        1.0716460     0.4753830     0.0137820
  O        2.5311320    -1.1057930    -0.7123110
  C       -2.3693550    -0.0883010     0.2982860
  C       -3.5980660     0.7810210     0.4066790
  C       -1.2626340     0.3942960    -0.2965320
  C       -0.0416390    -0.2792846    -0.5381462
  C       -2.5132090    -1.4745150     0.8629900
  C       -4.7090750     0.3554230    -0.5595870
  C        3.3545870     0.8742710     0.4380940
  C        2.3380755     0.0110364    -0.1134268
  C        4.7580620     0.3036620     0.3135630
  H       -3.3290990     1.8240090     0.2046860
  H       -3.9789780     0.7461160     1.4360390
  H       -1.2730680     1.4248330    -0.6509560
  H        0.2030610    -0.4353830    -1.6357720
  H        0.0474490    -1.3311670    -0.1253770
  H       -2.7951440    -1.4155820     1.9226690
  H       -3.3106690    -2.0257820     0.3507100
  H       -1.6004590    -2.0681310     0.7873000
  H       -5.0436390    -0.6667330    -0.3605950
  H       -4.3535760     0.4008270    -1.5926810
  H       -5.5777020     1.0147490    -0.4669260
  H        3.2685340     1.8407540    -0.0713220
  H        3.0874670     1.0628020     1.4826470
  H        4.8339620    -0.6514900     0.8358700
  H        5.0104170     0.1293290    -0.7342450
  H        5.4905370     0.9935700     0.7404870
units angstrom
no_reorient  #important for SAPT in psi4, default
symmetry c1  #important for SAPT in psi4, default
}

set PROPERTIES_ORIGIN ["COM"]
properties('MP2/aug-cc-pvtz', properties = ['dipole'])
--------------------------------------------------------------------------

    Molecular point group: c1
  Charge       = 0
  Multiplicity = 1
  Basis Set: AUG-CC-PVTZ
    Blend: AUG-CC-PVTZ
  Basis Set: (AUG-CC-PVTZ AUX)
    Blend: AUG-CC-PVTZ-JKFIT

    Orbital Energies [Eh]
    ---------------------

    Doubly Occupied:

       1A    -20.595225     2A    -20.531149     3A    -11.381615
       4A    -11.289423     5A    -11.248279     6A    -11.244907
       7A    -11.230112     8A    -11.227142     9A    -11.221318
      10A    -11.220439    11A    -11.220027    12A     -1.435693
      13A     -1.312062    14A     -1.119097    15A     -1.078843
      16A     -1.030762    17A     -0.981257    18A     -0.924384
      19A     -0.887954    20A     -0.834094    21A     -0.760887
      22A     -0.728394    23A     -0.688639    24A     -0.676023
      25A     -0.653814    26A     -0.643368    27A     -0.625573
      28A     -0.602842    29A     -0.588903    30A     -0.576927
      31A     -0.550957    32A     -0.542530    33A     -0.531032
      34A     -0.527808    35A     -0.516218    36A     -0.514350
      37A     -0.507796    38A     -0.486477    39A     -0.482951
      40A     -0.468642    41A     -0.442454    42A     -0.437910
      43A     -0.346819

  @DF-RHF Final Energy:  -500.01598660639974

   => Energetics <=

    Nuclear Repulsion Energy =            603.1216577321267778
    One-Electron Energy =               -1876.4451003078377198
    Two-Electron Energy =                 773.3074559693112633
    Total Energy =                       -500.0159866063996787
  Basis Set: (AUG-CC-PVTZ AUX)
    Blend: AUG-CC-PVTZ-RI
    Molecular point group: c1

    Geometry (in Angstrom), charge = 0, multiplicity = 1:

       Center              X                  Y                   Z               Mass
    ------------   -----------------  -----------------  -----------------  -----------------
         O            1.073482843607     0.467073314535     0.009238739919    15.994914619570
         O            2.532968843607    -1.114102685465    -0.716854260081    15.994914619570
         C           -2.367518156393    -0.096610685465     0.293742739919    12.000000000000
         C           -3.596229156393     0.772711314535     0.402135739919    12.000000000000
         C           -1.260797156393     0.385986314535    -0.301075260081    12.000000000000
         C           -0.039802156393    -0.287594285465    -0.542689460081    12.000000000000
         C           -2.511372156393    -1.482824685465     0.858446739919    12.000000000000
         C           -4.707238156393     0.347113314535    -0.564130260081    12.000000000000
         C            3.356423843607     0.865961314535     0.433550739919    12.000000000000
         C            2.339912343607     0.002726714535    -0.117970060081    12.000000000000
         C            4.759898843607     0.295352314535     0.309019739919    12.000000000000
         H           -3.327262156393     1.815699314535     0.200142739919     1.007825032230
         H           -3.977141156393     0.737806314535     1.431495739919     1.007825032230
         H           -1.271231156393     1.416523314535    -0.655499260081     1.007825032230
         H            0.204897843607    -0.443692685465    -1.640315260081     1.007825032230
         H            0.049285843607    -1.339476685465    -0.129920260081     1.007825032230
         H           -2.793307156393    -1.423891685465     1.918125739919     1.007825032230
         H           -3.308832156393    -2.034091685465     0.346166739919     1.007825032230
         H           -1.598622156393    -2.076440685465     0.782756739919     1.007825032230
         H           -5.041802156393    -0.675042685465    -0.365138260081     1.007825032230
         H           -4.351739156393     0.392517314535    -1.597224260081     1.007825032230
         H           -5.575865156393     1.006439314535    -0.471469260081     1.007825032230
         H            3.270370843607     1.832444314535    -0.075865260081     1.007825032230
         H            3.089303843607     1.054492314535     1.478103739919     1.007825032230
         H            4.835798843607    -0.659799685465     0.831326739919     1.007825032230
         H            5.012253843607     0.121019314535    -0.738788260081     1.007825032230
         H            5.492373843607     0.985260314535     0.735943739919     1.007825032230

  Basis Set: AUG-CC-PVTZ
    Blend: AUG-CC-PVTZ
  Basis Set: (AUG-CC-PVTZ AUX)
    Blend: AUG-CC-PVTZ-JKFIT
	 Reference Energy          =    -500.0159866063997356 [Eh]
	 Singles Energy            =      -0.0000000000000000 [Eh]
	 Same-Spin Energy          =      -0.5124860785635672 [Eh]
	 Opposite-Spin Energy      =      -1.7208463982766071 [Eh]
	 Correlation Energy        =      -2.2333324768401743 [Eh]
	 Total Energy              =    -502.2493190832399250 [Eh]

	 ================> DF-SCS-MP2 Energies <==================
	-----------------------------------------------------------
	 SCS Same-Spin Scale       =       0.3333333333333333 [-]
	 SCS Opposite-Spin Scale   =       1.2000000000000000 [-]
	 SCS Same-Spin Energy      =      -0.1708286928545224 [Eh]
	 SCS Opposite-Spin Energy  =      -2.0650156779319286 [Eh]
	 SCS Correlation Energy    =      -2.2358443707864510 [Eh]
	 SCS Total Energy          =    -502.2518309771861595 [Eh]
	-----------------------------------------------------------

  Dipole Moment: [D]
     X:    -1.5306      Y:     1.5202      Z:     1.0604     Total:     2.4038

*** Psi4 exiting successfully. Buy a developer a beer!
