                               Psi4 1.3.2 release

  ==> Input File <==

--------------------------------------------------------------------------
#psi4
#
memory 32 gb

molecule  {
0 1
  O        1.0188446     0.5254592     0.0360865
  O        2.5311320    -1.1057930    -0.7123110
  C       -2.3693550    -0.0883010     0.2982860
  C       -3.5980660     0.7810210     0.4066790
  C       -1.2211745     0.4495690    -0.2606106
  C        0.0082920    -0.3313460    -0.5624280
  C       -2.5132090    -1.4745150     0.8629900
  C       -4.7090750     0.3554230    -0.5595870
  C        3.3545870     0.8742710     0.4380940
  C        2.3120420    -0.0450080    -0.1482500
  C        4.7580620     0.3036620     0.3135630
  H       -3.3290990     1.8240090     0.2046860
  H       -3.9789780     0.7461160     1.4360390
  H       -1.2730680     1.4248330    -0.6509560
  H        0.2030610    -0.4353830    -1.6357720
  H        0.0474490    -1.3311670    -0.1253770
  H       -2.7951440    -1.4155820     1.9226690
  H       -3.3106690    -2.0257820     0.3507100
  H       -1.6004590    -2.0681310     0.7873000
  H       -5.0436390    -0.6667330    -0.3605950
  H       -4.3535760     0.4008270    -1.5926810
  H       -5.5777020     1.0147490    -0.4669260
  H        3.2685340     1.8407540    -0.0713220
  H        3.0874670     1.0628020     1.4826470
  H        4.8339620    -0.6514900     0.8358700
  H        5.0104170     0.1293290    -0.7342450
  H        5.4905370     0.9935700     0.7404870
units angstrom
no_reorient  #important for SAPT in psi4, default
symmetry c1  #important for SAPT in psi4, default
}

set PROPERTIES_ORIGIN ["COM"]
properties('MP2/aug-cc-pvtz', properties = ['dipole'])
--------------------------------------------------------------------------

    Molecular point group: c1
  Charge       = 0
  Multiplicity = 1
  Basis Set: AUG-CC-PVTZ
    Blend: AUG-CC-PVTZ
  Basis Set: (AUG-CC-PVTZ AUX)
    Blend: AUG-CC-PVTZ-JKFIT

    Orbital Energies [Eh]
    ---------------------

    Doubly Occupied:

       1A    -20.594274     2A    -20.554465     3A    -11.384211
       4A    -11.281953     5A    -11.245956     6A    -11.245113
       7A    -11.225791     8A    -11.225458     9A    -11.221155
      10A    -11.220264    11A    -11.217421    12A     -1.431306
      13A     -1.349947    14A     -1.104264    15A     -1.064740
      16A     -1.016351    17A     -0.974068    18A     -0.913047
      19A     -0.879209    20A     -0.828187    21A     -0.764644
      22A     -0.722892    23A     -0.687217    24A     -0.673567
      25A     -0.656626    26A     -0.637021    27A     -0.620369
      28A     -0.602919    29A     -0.586642    30A     -0.570254
      31A     -0.551270    32A     -0.543146    33A     -0.534541
      34A     -0.524378    35A     -0.521631    36A     -0.517932
      37A     -0.510230    38A     -0.494567    39A     -0.480368
      40A     -0.466590    41A     -0.459973    42A     -0.445893
      43A     -0.333331

  @DF-RHF Final Energy:  -500.02112985366080

   => Energetics <=

    Nuclear Repulsion Energy =            601.5656524537184850
    One-Electron Energy =               -1873.4071984227271059
    Two-Electron Energy =                 771.8204161153478253
    Total Energy =                       -500.0211298536607956
  Basis Set: (AUG-CC-PVTZ AUX)
    Blend: AUG-CC-PVTZ-RI
    Molecular point group: c1

    Geometry (in Angstrom), charge = 0, multiplicity = 1:

       Center              X                  Y                   Z               Mass
    ------------   -----------------  -----------------  -----------------  -----------------
         O            1.021067504353     0.516079976619     0.031040050872    15.994914619570
         O            2.533354904353    -1.115172223381    -0.717357449128    15.994914619570
         C           -2.367132095647    -0.097680223381     0.293239550872    12.000000000000
         C           -3.595843095647     0.771641776619     0.401632550872    12.000000000000
         C           -1.218951595647     0.440189776619    -0.265657049128    12.000000000000
         C            0.010514904353    -0.340725223381    -0.567474449128    12.000000000000
         C           -2.510986095647    -1.483894223381     0.857943550872    12.000000000000
         C           -4.706852095647     0.346043776619    -0.564633449128    12.000000000000
         C            3.356809904353     0.864891776619     0.433047550872    12.000000000000
         C            2.314264904353    -0.054387223381    -0.153296449128    12.000000000000
         C            4.760284904353     0.294282776619     0.308516550872    12.000000000000
         H           -3.326876095647     1.814629776619     0.199639550872     1.007825032230
         H           -3.976755095647     0.736736776619     1.430992550872     1.007825032230
         H           -1.270845095647     1.415453776619    -0.656002449128     1.007825032230
         H            0.205283904353    -0.444762223381    -1.640818449128     1.007825032230
         H            0.049671904353    -1.340546223381    -0.130423449128     1.007825032230
         H           -2.792921095647    -1.424961223381     1.917622550872     1.007825032230
         H           -3.308446095647    -2.035161223381     0.345663550872     1.007825032230
         H           -1.598236095647    -2.077510223381     0.782253550872     1.007825032230
         H           -5.041416095647    -0.676112223381    -0.365641449128     1.007825032230
         H           -4.351353095647     0.391447776619    -1.597727449128     1.007825032230
         H           -5.575479095647     1.005369776619    -0.471972449128     1.007825032230
         H            3.270756904353     1.831374776619    -0.076368449128     1.007825032230
         H            3.089689904353     1.053422776619     1.477600550872     1.007825032230
         H            4.836184904353    -0.660869223381     0.830823550872     1.007825032230
         H            5.012639904353     0.119949776619    -0.739291449128     1.007825032230
         H            5.492759904353     0.984190776619     0.735440550872     1.007825032230

  Basis Set: AUG-CC-PVTZ
    Blend: AUG-CC-PVTZ
  Basis Set: (AUG-CC-PVTZ AUX)
    Blend: AUG-CC-PVTZ-JKFIT
	 Reference Energy          =    -500.0211298536607956 [Eh]
	 Singles Energy            =      -0.0000000000000000 [Eh]
	 Same-Spin Energy          =      -0.5117105646338949 [Eh]
	 Opposite-Spin Energy      =      -1.7218483975618972 [Eh]
	 Correlation Energy        =      -2.2335589621957919 [Eh]
	 Total Energy              =    -502.2546888158565821 [Eh]

	 ================> DF-SCS-MP2 Energies <==================
	-----------------------------------------------------------
	 SCS Same-Spin Scale       =       0.3333333333333333 [-]
	 SCS Opposite-Spin Scale   =       1.2000000000000000 [-]
	 SCS Same-Spin Energy      =      -0.1705701882112983 [Eh]
	 SCS Opposite-Spin Energy  =      -2.0662180770742764 [Eh]
	 SCS Correlation Energy    =      -2.2367882652855746 [Eh]
	 SCS Total Energy          =    -502.2579181189463498 [Eh]
	-----------------------------------------------------------

  Dipole Moment: [D]
     X:    -0.9468      Y:     0.9988      Z:     0.7021     Total:     1.5450

*** Psi4 exiting successfully. Buy a developer a beer!
