                               Psi4 1.3.2 release

  ==> Input File <==

--------------------------------------------------------------------------
#psi4
#
memory 32 gb

molecule  {
0 1
  O        1.0716460     0.4753830     0.0137820
  O        2.5311320    -1.1057930    -0.7123110
  C       -2.3693550    -0.0883010     0.2982860
  C       -3.7609128     0.8962363     0.4210448
  C       -1.2626340     0.3942960    -0.2965320
  C        0.0082920    -0.3313460    -0.5624280
  C       -2.5132090    -1.4745150     0.8629900
  C       -4.7090750     0.3554230    -0.5595870
  C        3.3545870     0.8742710     0.4380940
  C        2.3120420    -0.0450080    -0.1482500
  C        4.7580620     0.3036620     0.3135630
  H       -3.3290990     1.8240090     0.2046860
  H       -3.9789780     0.7461160     1.4360390
  H       -1.2730680     1.4248330    -0.6509560
  H        0.2030610    -0.4353830    -1.6357720
  H        0.0474490    -1.3311670    -0.1253770
  H       -2.7951440    -1.4155820     1.9226690
  H       -3.3106690    -2.0257820     0.3507100
  H       -1.6004590    -2.0681310     0.7873000
  H       -5.0436390    -0.6667330    -0.3605950
  H       -4.3535760     0.4008270    -1.5926810
  H       -5.5777020     1.0147490    -0.4669260
  H        3.2685340     1.8407540    -0.0713220
  H        3.0874670     1.0628020     1.4826470
  H        4.8339620    -0.6514900     0.8358700
  H        5.0104170     0.1293290    -0.7342450
  H        5.4905370     0.9935700     0.7404870
units angstrom
no_reorient  #important for SAPT in psi4, default
symmetry c1  #important for SAPT in psi4, default
}

set PROPERTIES_ORIGIN ["COM"]
properties('MP2/aug-cc-pvtz', properties = ['dipole'])
--------------------------------------------------------------------------

    Molecular point group: c1
  Charge       = 0
  Multiplicity = 1
  Basis Set: AUG-CC-PVTZ
    Blend: AUG-CC-PVTZ
  Basis Set: (AUG-CC-PVTZ AUX)
    Blend: AUG-CC-PVTZ-JKFIT

    Orbital Energies [Eh]
    ---------------------

    Doubly Occupied:

       1A    -20.596082     2A    -20.539851     3A    -11.374595
       4A    -11.285082     5A    -11.247586     6A    -11.241540
       7A    -11.231286     8A    -11.225788     9A    -11.220338
      10A    -11.217891    11A    -11.217357    12A     -1.446999
      13A     -1.346584    14A     -1.098525    15A     -1.062750
      16A     -1.030871    17A     -0.979975    18A     -0.914788
      19A     -0.873445    20A     -0.836347    21A     -0.766215
      22A     -0.719056    23A     -0.685992    24A     -0.675632
      25A     -0.659095    26A     -0.640577    27A     -0.627600
      28A     -0.601872    29A     -0.586516    30A     -0.575447
      31A     -0.558498    32A     -0.546253    33A     -0.538006
      34A     -0.532367    35A     -0.520769    36A     -0.516294
      37A     -0.508584    38A     -0.503223    39A     -0.491227
      40A     -0.456443    41A     -0.443843    42A     -0.412324
      43A     -0.346469

  @DF-RHF Final Energy:  -500.00936988838987

   => Energetics <=

    Nuclear Repulsion Energy =            600.5377419699057100
    One-Electron Energy =               -1871.2942605197249577
    Two-Electron Energy =                 770.7471486614293781
    Total Energy =                       -500.0093698883898696
  Basis Set: (AUG-CC-PVTZ AUX)
    Blend: AUG-CC-PVTZ-RI
    Molecular point group: c1

    Geometry (in Angstrom), charge = 0, multiplicity = 1:

       Center              X                  Y                   Z               Mass
    ------------   -----------------  -----------------  -----------------  -----------------
         O            1.084163375793     0.466526832879     0.012677681070    15.994914619570
         O            2.543649375793    -1.114649167121    -0.713415318930    15.994914619570
         C           -2.356837624207    -0.097157167121     0.297181681070    12.000000000000
         C           -3.748395424207     0.887380132879     0.419940481070    12.000000000000
         C           -1.250116624207     0.385439832879    -0.297636318930    12.000000000000
         C            0.020809375793    -0.340202167121    -0.563532318930    12.000000000000
         C           -2.500691624207    -1.483371167121     0.861885681070    12.000000000000
         C           -4.696557624207     0.346566832879    -0.560691318930    12.000000000000
         C            3.367104375793     0.865414832879     0.436989681070    12.000000000000
         C            2.324559375793    -0.053864167121    -0.149354318930    12.000000000000
         C            4.770579375793     0.294805832879     0.312458681070    12.000000000000
         H           -3.316581624207     1.815152832879     0.203581681070     1.007825032230
         H           -3.966460624207     0.737259832879     1.434934681070     1.007825032230
         H           -1.260550624207     1.415976832879    -0.652060318930     1.007825032230
         H            0.215578375793    -0.444239167121    -1.636876318930     1.007825032230
         H            0.059966375793    -1.340023167121    -0.126481318930     1.007825032230
         H           -2.782626624207    -1.424438167121     1.921564681070     1.007825032230
         H           -3.298151624207    -2.034638167121     0.349605681070     1.007825032230
         H           -1.587941624207    -2.076987167121     0.786195681070     1.007825032230
         H           -5.031121624207    -0.675589167121    -0.361699318930     1.007825032230
         H           -4.341058624207     0.391970832879    -1.593785318930     1.007825032230
         H           -5.565184624207     1.005892832879    -0.468030318930     1.007825032230
         H            3.281051375793     1.831897832879    -0.072426318930     1.007825032230
         H            3.099984375793     1.053945832879     1.481542681070     1.007825032230
         H            4.846479375793    -0.660346167121     0.834765681070     1.007825032230
         H            5.022934375793     0.120472832879    -0.735349318930     1.007825032230
         H            5.503054375793     0.984713832879     0.739382681070     1.007825032230

  Basis Set: AUG-CC-PVTZ
    Blend: AUG-CC-PVTZ
  Basis Set: (AUG-CC-PVTZ AUX)
    Blend: AUG-CC-PVTZ-JKFIT
	 Reference Energy          =    -500.0093698883898696 [Eh]
	 Singles Energy            =      -0.0000000000000000 [Eh]
	 Same-Spin Energy          =      -0.5101065222429511 [Eh]
	 Opposite-Spin Energy      =      -1.7184205505037387 [Eh]
	 Correlation Energy        =      -2.2285270727466897 [Eh]
	 Total Energy              =    -502.2378969611365847 [Eh]

	 ================> DF-SCS-MP2 Energies <==================
	-----------------------------------------------------------
	 SCS Same-Spin Scale       =       0.3333333333333333 [-]
	 SCS Opposite-Spin Scale   =       1.2000000000000000 [-]
	 SCS Same-Spin Energy      =      -0.1700355074143170 [Eh]
	 SCS Opposite-Spin Energy  =      -2.0621046606044864 [Eh]
	 SCS Correlation Energy    =      -2.2321401680188035 [Eh]
	 SCS Total Energy          =    -502.2415100564086856 [Eh]
	-----------------------------------------------------------

  Dipole Moment: [D]
     X:    -1.5103      Y:     1.1718      Z:     0.8298     Total:     2.0839

*** Psi4 exiting successfully. Buy a developer a beer!
