                               Psi4 1.3.2 release

  ==> Input File <==

--------------------------------------------------------------------------
#psi4
#
memory 32 gb

molecule  {
0 1
  O        1.0920819     0.4150752     0.0554766
  O        2.5311320    -1.1057930    -0.7123110
  C       -2.3693550    -0.0883010     0.2982860
  C       -3.5980660     0.7810210     0.4066790
  C       -1.2626340     0.3942960    -0.2965320
  C        0.0082920    -0.3313460    -0.5624280
  C       -2.5132090    -1.4745150     0.8629900
  C       -4.7090750     0.3554230    -0.5595870
  C        3.3545870     0.8742710     0.4380940
  C        2.3120420    -0.0450080    -0.1482500
  C        4.7580620     0.3036620     0.3135630
  H       -3.3290990     1.8240090     0.2046860
  H       -3.9789780     0.7461160     1.4360390
  H       -1.2730680     1.4248330    -0.6509560
  H        0.2030610    -0.4353830    -1.6357720
  H        0.0922634    -1.3141620    -0.0942289
  H       -2.7951440    -1.4155820     1.9226690
  H       -3.3106690    -2.0257820     0.3507100
  H       -1.6004590    -2.0681310     0.7873000
  H       -5.0436390    -0.6667330    -0.3605950
  H       -4.3535760     0.4008270    -1.5926810
  H       -5.5777020     1.0147490    -0.4669260
  H        3.2685340     1.8407540    -0.0713220
  H        3.0874670     1.0628020     1.4826470
  H        4.8339620    -0.6514900     0.8358700
  H        5.0104170     0.1293290    -0.7342450
  H        5.4905370     0.9935700     0.7404870
units angstrom
no_reorient  #important for SAPT in psi4, default
symmetry c1  #important for SAPT in psi4, default
}

set PROPERTIES_ORIGIN ["COM"]
properties('MP2/aug-cc-pvtz', properties = ['dipole'])
--------------------------------------------------------------------------

    Molecular point group: c1
  Charge       = 0
  Multiplicity = 1
  Basis Set: AUG-CC-PVTZ
    Blend: AUG-CC-PVTZ
  Basis Set: (AUG-CC-PVTZ AUX)
    Blend: AUG-CC-PVTZ-JKFIT

    Orbital Energies [Eh]
    ---------------------

    Doubly Occupied:

       1A    -20.595867     2A    -20.532570     3A    -11.369634
       4A    -11.288876     5A    -11.246835     6A    -11.240288
       7A    -11.229852     8A    -11.227254     9A    -11.225534
      10A    -11.220331    11A    -11.216319    12A     -1.458816
      13A     -1.343963    14A     -1.114461    15A     -1.063465
      16A     -1.023915    17A     -0.980351    18A     -0.922357
      19A     -0.878261    20A     -0.835728    21A     -0.767657
      22A     -0.726147    23A     -0.688892    24A     -0.682669
      25A     -0.661289    26A     -0.640020    27A     -0.624543
      28A     -0.605750    29A     -0.588540    30A     -0.575551
      31A     -0.553013    32A     -0.545400    33A     -0.535339
      34A     -0.522261    35A     -0.516409    36A     -0.515195
      37A     -0.506923    38A     -0.491016    39A     -0.485252
      40A     -0.467723    41A     -0.453728    42A     -0.440771
      43A     -0.348667

  @DF-RHF Final Energy:  -500.03865775026998

   => Energetics <=

    Nuclear Repulsion Energy =            603.9002210091791767
    One-Electron Energy =               -1877.9628930975079584
    Two-Electron Energy =                 774.0240143380588052
    Total Energy =                       -500.0386577502699765
  Basis Set: (AUG-CC-PVTZ AUX)
    Blend: AUG-CC-PVTZ-RI
    Molecular point group: c1

    Geometry (in Angstrom), charge = 0, multiplicity = 1:

       Center              X                  Y                   Z               Mass
    ------------   -----------------  -----------------  -----------------  -----------------
         O            1.089698742812     0.421144332838     0.051003586827    15.994914619570
         O            2.528748842812    -1.099723867162    -0.716784013173    15.994914619570
         C           -2.371738157188    -0.082231867162     0.293812986827    12.000000000000
         C           -3.600449157188     0.787090132838     0.402205986827    12.000000000000
         C           -1.265017157188     0.400365132838    -0.301005013173    12.000000000000
         C            0.005908842812    -0.325276867162    -0.566901013173    12.000000000000
         C           -2.515592157188    -1.468445867162     0.858516986827    12.000000000000
         C           -4.711458157188     0.361492132838    -0.564060013173    12.000000000000
         C            3.352203842812     0.880340132838     0.433620986827    12.000000000000
         C            2.309658842812    -0.038938867162    -0.152723013173    12.000000000000
         C            4.755678842812     0.309731132838     0.309089986827    12.000000000000
         H           -3.331482157188     1.830078132838     0.200212986827     1.007825032230
         H           -3.981361157188     0.752185132838     1.431565986827     1.007825032230
         H           -1.275451157188     1.430902132838    -0.655429013173     1.007825032230
         H            0.200677842812    -0.429313867162    -1.640245013173     1.007825032230
         H            0.089880242812    -1.308092867162    -0.098701913173     1.007825032230
         H           -2.797527157188    -1.409512867162     1.918195986827     1.007825032230
         H           -3.313052157188    -2.019712867162     0.346236986827     1.007825032230
         H           -1.602842157188    -2.062061867162     0.782826986827     1.007825032230
         H           -5.046022157188    -0.660663867162    -0.365068013173     1.007825032230
         H           -4.355959157188     0.406896132838    -1.597154013173     1.007825032230
         H           -5.580085157188     1.020818132838    -0.471399013173     1.007825032230
         H            3.266150842812     1.846823132838    -0.075795013173     1.007825032230
         H            3.085083842812     1.068871132838     1.478173986827     1.007825032230
         H            4.831578842812    -0.645420867162     0.831396986827     1.007825032230
         H            5.008033842812     0.135398132838    -0.738718013173     1.007825032230
         H            5.488153842812     0.999639132838     0.736013986827     1.007825032230

  Basis Set: AUG-CC-PVTZ
    Blend: AUG-CC-PVTZ
  Basis Set: (AUG-CC-PVTZ AUX)
    Blend: AUG-CC-PVTZ-JKFIT
	 Reference Energy          =    -500.0386577502699765 [Eh]
	 Singles Energy            =      -0.0000000000000000 [Eh]
	 Same-Spin Energy          =      -0.5091983762758007 [Eh]
	 Opposite-Spin Energy      =      -1.7152471566161558 [Eh]
	 Correlation Energy        =      -2.2244455328919566 [Eh]
	 Total Energy              =    -502.2631032831619109 [Eh]

	 ================> DF-SCS-MP2 Energies <==================
	-----------------------------------------------------------
	 SCS Same-Spin Scale       =       0.3333333333333333 [-]
	 SCS Opposite-Spin Scale   =       1.2000000000000000 [-]
	 SCS Same-Spin Energy      =      -0.1697327920919335 [Eh]
	 SCS Opposite-Spin Energy  =      -2.0582965879393869 [Eh]
	 SCS Correlation Energy    =      -2.2280293800313204 [Eh]
	 SCS Total Energy          =    -502.2666871303013068 [Eh]
	-----------------------------------------------------------

  Dipole Moment: [D]
     X:    -1.7277      Y:     1.3150      Z:     0.8197     Total:     2.3208

*** Psi4 exiting successfully. Buy a developer a beer!
