                               Psi4 1.3.2 release

  ==> Input File <==

--------------------------------------------------------------------------
#psi4
#
memory 32 gb

molecule  {
0 1
  O        1.0716460     0.4753830     0.0137820
  O        2.5311320    -1.1057930    -0.7123110
  C       -2.3693550    -0.0883010     0.2982860
  C       -3.5980660     0.7810210     0.4066790
  C       -1.2626340     0.3942960    -0.2965320
  C        0.1545776    -0.2203643    -0.4831588
  C       -2.5132090    -1.4745150     0.8629900
  C       -4.7090750     0.3554230    -0.5595870
  C        3.3545870     0.8742710     0.4380940
  C        2.3120420    -0.0450080    -0.1482500
  C        4.7580620     0.3036620     0.3135630
  H       -3.3290990     1.8240090     0.2046860
  H       -3.9789780     0.7461160     1.4360390
  H       -1.2730680     1.4248330    -0.6509560
  H        0.2030610    -0.4353830    -1.6357720
  H        0.0474490    -1.3311670    -0.1253770
  H       -2.7951440    -1.4155820     1.9226690
  H       -3.3106690    -2.0257820     0.3507100
  H       -1.6004590    -2.0681310     0.7873000
  H       -5.0436390    -0.6667330    -0.3605950
  H       -4.3535760     0.4008270    -1.5926810
  H       -5.5777020     1.0147490    -0.4669260
  H        3.2685340     1.8407540    -0.0713220
  H        3.0874670     1.0628020     1.4826470
  H        4.8339620    -0.6514900     0.8358700
  H        5.0104170     0.1293290    -0.7342450
  H        5.4905370     0.9935700     0.7404870
units angstrom
no_reorient  #important for SAPT in psi4, default
symmetry c1  #important for SAPT in psi4, default
}

set PROPERTIES_ORIGIN ["COM"]
properties('MP2/aug-cc-pvtz', properties = ['dipole'])
--------------------------------------------------------------------------

    Molecular point group: c1
  Charge       = 0
  Multiplicity = 1
  Basis Set: AUG-CC-PVTZ
    Blend: AUG-CC-PVTZ
  Basis Set: (AUG-CC-PVTZ AUX)
    Blend: AUG-CC-PVTZ-JKFIT

    Orbital Energies [Eh]
    ---------------------

    Doubly Occupied:

       1A    -20.618654     2A    -20.556614     3A    -11.390598
       4A    -11.290612     5A    -11.251683     6A    -11.237443
       7A    -11.224586     8A    -11.224138     9A    -11.220509
      10A    -11.220450    11A    -11.214727    12A     -1.516491
      13A     -1.378952    14A     -1.103599    15A     -1.077386
      16A     -1.013263    17A     -0.979040    18A     -0.927592
      19A     -0.875430    20A     -0.835302    21A     -0.790524
      22A     -0.730116    23A     -0.709204    24A     -0.706861
      25A     -0.674352    26A     -0.636615    27A     -0.623081
      28A     -0.613815    29A     -0.599000    30A     -0.572484
      31A     -0.545341    32A     -0.538177    33A     -0.533353
      34A     -0.527944    35A     -0.524130    36A     -0.511243
      37A     -0.503940    38A     -0.496468    39A     -0.478103
      40A     -0.462436    41A     -0.444311    42A     -0.430904
      43A     -0.337878

  @DF-RHF Final Energy:  -499.99912644802009

   => Energetics <=

    Nuclear Repulsion Energy =            605.5253999041486850
    One-Electron Energy =               -1880.7543547698201110
    Two-Electron Energy =                 775.2298284176512198
    Total Energy =                       -499.9991264480200925
  Basis Set: (AUG-CC-PVTZ AUX)
    Blend: AUG-CC-PVTZ-RI
    Molecular point group: c1

    Geometry (in Angstrom), charge = 0, multiplicity = 1:

       Center              X                  Y                   Z               Mass
    ------------   -----------------  -----------------  -----------------  -----------------
         O            1.060401481722     0.466852254461     0.007688790498    15.994914619570
         O            2.519887481722    -1.114323745539    -0.718404209502    15.994914619570
         C           -2.380599518278    -0.096831745539     0.292192790498    12.000000000000
         C           -3.609310518278     0.772490254461     0.400585790498    12.000000000000
         C           -1.273878518278     0.385765254461    -0.302625209502    12.000000000000
         C            0.143333081722    -0.228895045539    -0.489252009502    12.000000000000
         C           -2.524453518278    -1.483045745539     0.856896790498    12.000000000000
         C           -4.720319518278     0.346892254461    -0.565680209502    12.000000000000
         C            3.343342481722     0.865740254461     0.432000790498    12.000000000000
         C            2.300797481722    -0.053538745539    -0.154343209502    12.000000000000
         C            4.746817481722     0.295131254461     0.307469790498    12.000000000000
         H           -3.340343518278     1.815478254461     0.198592790498     1.007825032230
         H           -3.990222518278     0.737585254461     1.429945790498     1.007825032230
         H           -1.284312518278     1.416302254461    -0.657049209502     1.007825032230
         H            0.191816481722    -0.443913745539    -1.641865209502     1.007825032230
         H            0.036204481722    -1.339697745539    -0.131470209502     1.007825032230
         H           -2.806388518278    -1.424112745539     1.916575790498     1.007825032230
         H           -3.321913518278    -2.034312745539     0.344616790498     1.007825032230
         H           -1.611703518278    -2.076661745539     0.781206790498     1.007825032230
         H           -5.054883518278    -0.675263745539    -0.366688209502     1.007825032230
         H           -4.364820518278     0.392296254461    -1.598774209502     1.007825032230
         H           -5.588946518278     1.006218254461    -0.473019209502     1.007825032230
         H            3.257289481722     1.832223254461    -0.077415209502     1.007825032230
         H            3.076222481722     1.054271254461     1.476553790498     1.007825032230
         H            4.822717481722    -0.660020745539     0.829776790498     1.007825032230
         H            4.999172481722     0.120798254461    -0.740338209502     1.007825032230
         H            5.479292481722     0.985039254461     0.734393790498     1.007825032230

  Basis Set: AUG-CC-PVTZ
    Blend: AUG-CC-PVTZ
  Basis Set: (AUG-CC-PVTZ AUX)
    Blend: AUG-CC-PVTZ-JKFIT
	 Reference Energy          =    -499.9991264480200925 [Eh]
	 Singles Energy            =      -0.0000000000000000 [Eh]
	 Same-Spin Energy          =      -0.5105378508111693 [Eh]
	 Opposite-Spin Energy      =      -1.7167954658648790 [Eh]
	 Correlation Energy        =      -2.2273333166760483 [Eh]
	 Total Energy              =    -502.2264597646961306 [Eh]

	 ================> DF-SCS-MP2 Energies <==================
	-----------------------------------------------------------
	 SCS Same-Spin Scale       =       0.3333333333333333 [-]
	 SCS Opposite-Spin Scale   =       1.2000000000000000 [-]
	 SCS Same-Spin Energy      =      -0.1701792836037231 [Eh]
	 SCS Opposite-Spin Energy  =      -2.0601545590378545 [Eh]
	 SCS Correlation Energy    =      -2.2303338426415777 [Eh]
	 SCS Total Energy          =    -502.2294602906616774 [Eh]
	-----------------------------------------------------------

  Dipole Moment: [D]
     X:    -0.3985      Y:     1.4574      Z:     1.0745     Total:     1.8541

*** Psi4 exiting successfully. Buy a developer a beer!
