                               Psi4 1.3.2 release

  ==> Input File <==

--------------------------------------------------------------------------
#psi4
#
memory 32 gb

molecule  {
0 1
  O        1.0716460     0.4753830     0.0137820
  O        2.5311320    -1.1057930    -0.7123110
  C       -2.3693550    -0.0883010     0.2982860
  C       -3.5980660     0.7810210     0.4066790
  C       -1.2581706     0.4044617    -0.3032572
  C        0.0082920    -0.3313460    -0.5624280
  C       -2.5132090    -1.4745150     0.8629900
  C       -4.7090750     0.3554230    -0.5595870
  C        3.3545870     0.8742710     0.4380940
  C        2.3120420    -0.0450080    -0.1482500
  C        4.7580620     0.3036620     0.3135630
  H       -3.3290990     1.8240090     0.2046860
  H       -3.9789780     0.7461160     1.4360390
  H       -1.2730680     1.4248330    -0.6509560
  H        0.2030610    -0.4353830    -1.6357720
  H        0.0562035    -1.3323409    -0.1289507
  H       -2.7951440    -1.4155820     1.9226690
  H       -3.3106690    -2.0257820     0.3507100
  H       -1.6004590    -2.0681310     0.7873000
  H       -5.0436390    -0.6667330    -0.3605950
  H       -4.3535760     0.4008270    -1.5926810
  H       -5.5777020     1.0147490    -0.4669260
  H        3.2685340     1.8407540    -0.0713220
  H        3.0874670     1.0628020     1.4826470
  H        4.8339620    -0.6514900     0.8358700
  H        5.0104170     0.1293290    -0.7342450
  H        5.4905370     0.9935700     0.7404870
units angstrom
no_reorient  #important for SAPT in psi4, default
symmetry c1  #important for SAPT in psi4, default
}

set PROPERTIES_ORIGIN ["COM"]
properties('MP2/aug-cc-pvtz', properties = ['dipole'])
--------------------------------------------------------------------------

    Molecular point group: c1
  Charge       = 0
  Multiplicity = 1
  Basis Set: AUG-CC-PVTZ
    Blend: AUG-CC-PVTZ
  Basis Set: (AUG-CC-PVTZ AUX)
    Blend: AUG-CC-PVTZ-JKFIT

    Orbital Energies [Eh]
    ---------------------

    Doubly Occupied:

       1A    -20.596928     2A    -20.540672     3A    -11.375333
       4A    -11.286291     5A    -11.245874     6A    -11.242085
       7A    -11.228379     8A    -11.226751     9A    -11.223669
      10A    -11.219180    11A    -11.217796    12A     -1.447963
      13A     -1.347488    14A     -1.111285    15A     -1.063835
      16A     -1.021528    17A     -0.978115    18A     -0.919110
      19A     -0.878897    20A     -0.833074    21A     -0.767508
      22A     -0.723668    23A     -0.688135    24A     -0.679567
      25A     -0.660222    26A     -0.638538    27A     -0.623539
      28A     -0.605135    29A     -0.588110    30A     -0.574184
      31A     -0.552823    32A     -0.544362    33A     -0.533773
      34A     -0.522483    35A     -0.517816    36A     -0.514254
      37A     -0.512775    38A     -0.492188    39A     -0.483640
      40A     -0.466847    41A     -0.457264    42A     -0.444220
      43A     -0.343763

  @DF-RHF Final Energy:  -500.03770435509398

   => Energetics <=

    Nuclear Repulsion Energy =            602.9563567942750524
    One-Electron Energy =               -1876.1099921380057367
    Two-Electron Energy =                 773.1159309886367055
    Total Energy =                       -500.0377043550939788
  Basis Set: (AUG-CC-PVTZ AUX)
    Blend: AUG-CC-PVTZ-RI
    Molecular point group: c1

    Geometry (in Angstrom), charge = 0, multiplicity = 1:

       Center              X                  Y                   Z               Mass
    ------------   -----------------  -----------------  -----------------  -----------------
         O            1.071246327336     0.474609195530     0.014321940849    15.994914619570
         O            2.530732327336    -1.106566804470    -0.711771059151    15.994914619570
         C           -2.369754672664    -0.089074804470     0.298825940849    12.000000000000
         C           -3.598465672664     0.780247195530     0.407218940849    12.000000000000
         C           -1.258570272664     0.403687895530    -0.302717259151    12.000000000000
         C            0.007892327336    -0.332119804470    -0.561888059151    12.000000000000
         C           -2.513608672664    -1.475288804470     0.863529940849    12.000000000000
         C           -4.709474672664     0.354649195530    -0.559047059151    12.000000000000
         C            3.354187327336     0.873497195530     0.438633940849    12.000000000000
         C            2.311642327336    -0.045781804470    -0.147710059151    12.000000000000
         C            4.757662327336     0.302888195530     0.314102940849    12.000000000000
         H           -3.329498672664     1.823235195530     0.205225940849     1.007825032230
         H           -3.979377672664     0.745342195530     1.436578940849     1.007825032230
         H           -1.273467672664     1.424059195530    -0.650416059151     1.007825032230
         H            0.202661327336    -0.436156804470    -1.635232059151     1.007825032230
         H            0.055803827336    -1.333114704470    -0.128410759151     1.007825032230
         H           -2.795543672664    -1.416355804470     1.923208940849     1.007825032230
         H           -3.311068672664    -2.026555804470     0.351249940849     1.007825032230
         H           -1.600858672664    -2.068904804470     0.787839940849     1.007825032230
         H           -5.044038672664    -0.667506804470    -0.360055059151     1.007825032230
         H           -4.353975672664     0.400053195530    -1.592141059151     1.007825032230
         H           -5.578101672664     1.013975195530    -0.466386059151     1.007825032230
         H            3.268134327336     1.839980195530    -0.070782059151     1.007825032230
         H            3.087067327336     1.062028195530     1.483186940849     1.007825032230
         H            4.833562327336    -0.652263804470     0.836409940849     1.007825032230
         H            5.010017327336     0.128555195530    -0.733705059151     1.007825032230
         H            5.490137327336     0.992796195530     0.741026940849     1.007825032230

  Basis Set: AUG-CC-PVTZ
    Blend: AUG-CC-PVTZ
  Basis Set: (AUG-CC-PVTZ AUX)
    Blend: AUG-CC-PVTZ-JKFIT
	 Reference Energy          =    -500.0377043550939788 [Eh]
	 Singles Energy            =      -0.0000000000000000 [Eh]
	 Same-Spin Energy          =      -0.5098508961660830 [Eh]
	 Opposite-Spin Energy      =      -1.7170407903591025 [Eh]
	 Correlation Energy        =      -2.2268916865251853 [Eh]
	 Total Energy              =    -502.2645960416191429 [Eh]

	 ================> DF-SCS-MP2 Energies <==================
	-----------------------------------------------------------
	 SCS Same-Spin Scale       =       0.3333333333333333 [-]
	 SCS Opposite-Spin Scale   =       1.2000000000000000 [-]
	 SCS Same-Spin Energy      =      -0.1699502987220277 [Eh]
	 SCS Opposite-Spin Energy  =      -2.0604489484309227 [Eh]
	 SCS Correlation Energy    =      -2.2303992471529503 [Eh]
	 SCS Total Energy          =    -502.2681036022469243 [Eh]
	-----------------------------------------------------------

  Dipole Moment: [D]
     X:    -1.4493      Y:     1.1826      Z:     0.8327     Total:     2.0475

*** Psi4 exiting successfully. Buy a developer a beer!
