                               Psi4 1.3.2 release

  ==> Input File <==

--------------------------------------------------------------------------
#psi4
#
memory 32 gb

molecule  {
0 1
  O        1.0716460     0.4753830     0.0137820
  O        2.5311320    -1.1057930    -0.7123110
  C       -2.3693550    -0.0883010     0.2982860
  C       -3.5980660     0.7810210     0.4066790
  C       -1.2626340     0.3942960    -0.2965320
  C       -0.0086824    -0.3142310    -0.5545063
  C       -2.5132090    -1.4745150     0.8629900
  C       -4.7090750     0.3554230    -0.5595870
  C        3.3545870     0.8742710     0.4380940
  C        2.3211013    -0.0264775    -0.1366869
  C        4.7580620     0.3036620     0.3135630
  H       -3.3290990     1.8240090     0.2046860
  H       -3.9789780     0.7461160     1.4360390
  H       -1.2730680     1.4248330    -0.6509560
  H        0.2030610    -0.4353830    -1.6357720
  H        0.0474490    -1.3311670    -0.1253770
  H       -2.7951440    -1.4155820     1.9226690
  H       -3.3106690    -2.0257820     0.3507100
  H       -1.6004590    -2.0681310     0.7873000
  H       -5.0436390    -0.6667330    -0.3605950
  H       -4.3535760     0.4008270    -1.5926810
  H       -5.5777020     1.0147490    -0.4669260
  H        3.2685340     1.8407540    -0.0713220
  H        3.0874670     1.0628020     1.4826470
  H        4.8339620    -0.6514900     0.8358700
  H        5.0104170     0.1293290    -0.7342450
  H        5.4905370     0.9935700     0.7404870
units angstrom
no_reorient  #important for SAPT in psi4, default
symmetry c1  #important for SAPT in psi4, default
}

set PROPERTIES_ORIGIN ["COM"]
properties('MP2/aug-cc-pvtz', properties = ['dipole'])
--------------------------------------------------------------------------

    Molecular point group: c1
  Charge       = 0
  Multiplicity = 1
  Basis Set: AUG-CC-PVTZ
    Blend: AUG-CC-PVTZ
  Basis Set: (AUG-CC-PVTZ AUX)
    Blend: AUG-CC-PVTZ-JKFIT

    Orbital Energies [Eh]
    ---------------------

    Doubly Occupied:

       1A    -20.596552     2A    -20.537617     3A    -11.377506
       4A    -11.287303     5A    -11.245532     6A    -11.243272
       7A    -11.228957     8A    -11.226632     9A    -11.222284
      10A    -11.219599    11A    -11.219022    12A     -1.443308
      13A     -1.336015    14A     -1.114488    15A     -1.068749
      16A     -1.024584    17A     -0.979056    18A     -0.920960
      19A     -0.882238    20A     -0.833620    21A     -0.765279
      22A     -0.724437    23A     -0.687482    24A     -0.678295
      25A     -0.657245    26A     -0.640016    27A     -0.625000
      28A     -0.604462    29A     -0.588435    30A     -0.575185
      31A     -0.551997    32A     -0.543683    33A     -0.531958
      34A     -0.524255    35A     -0.516605    36A     -0.514888
      37A     -0.510574    38A     -0.490251    39A     -0.484674
      40A     -0.467115    41A     -0.451756    42A     -0.444258
      43A     -0.346471

  @DF-RHF Final Energy:  -500.03444106789999

   => Energetics <=

    Nuclear Repulsion Energy =            603.0733729816023470
    One-Electron Energy =               -1876.3523896353583496
    Two-Electron Energy =                 773.2445755858561824
    Total Energy =                       -500.0344410678999338
  Basis Set: (AUG-CC-PVTZ AUX)
    Blend: AUG-CC-PVTZ-RI
    Molecular point group: c1

    Geometry (in Angstrom), charge = 0, multiplicity = 1:

       Center              X                  Y                   Z               Mass
    ------------   -----------------  -----------------  -----------------  -----------------
         O            1.072254334089     0.472643076789     0.012284201979    15.994914619570
         O            2.531740334089    -1.108532923211    -0.713808798021    15.994914619570
         C           -2.368746665911    -0.091040923211     0.296788201979    12.000000000000
         C           -3.597457665911     0.778281076789     0.405181201979    12.000000000000
         C           -1.262025665911     0.391556076789    -0.298029798021    12.000000000000
         C           -0.008074065911    -0.316970923211    -0.556004098021    12.000000000000
         C           -2.512600665911    -1.477254923211     0.861492201979    12.000000000000
         C           -4.708466665911     0.352683076789    -0.561084798021    12.000000000000
         C            3.355195334089     0.871531076789     0.436596201979    12.000000000000
         C            2.321709634089    -0.029217423211    -0.138184698021    12.000000000000
         C            4.758670334089     0.300922076789     0.312065201979    12.000000000000
         H           -3.328490665911     1.821269076789     0.203188201979     1.007825032230
         H           -3.978369665911     0.743376076789     1.434541201979     1.007825032230
         H           -1.272459665911     1.422093076789    -0.652453798021     1.007825032230
         H            0.203669334089    -0.438122923211    -1.637269798021     1.007825032230
         H            0.048057334089    -1.333906923211    -0.126874798021     1.007825032230
         H           -2.794535665911    -1.418321923211     1.921171201979     1.007825032230
         H           -3.310060665911    -2.028521923211     0.349212201979     1.007825032230
         H           -1.599850665911    -2.070870923211     0.785802201979     1.007825032230
         H           -5.043030665911    -0.669472923211    -0.362092798021     1.007825032230
         H           -4.352967665911     0.398087076789    -1.594178798021     1.007825032230
         H           -5.577093665911     1.012009076789    -0.468423798021     1.007825032230
         H            3.269142334089     1.838014076789    -0.072819798021     1.007825032230
         H            3.088075334089     1.060062076789     1.481149201979     1.007825032230
         H            4.834570334089    -0.654229923211     0.834372201979     1.007825032230
         H            5.011025334089     0.126589076789    -0.735742798021     1.007825032230
         H            5.491145334089     0.990830076789     0.738989201979     1.007825032230

  Basis Set: AUG-CC-PVTZ
    Blend: AUG-CC-PVTZ
  Basis Set: (AUG-CC-PVTZ AUX)
    Blend: AUG-CC-PVTZ-JKFIT
	 Reference Energy          =    -500.0344410678999907 [Eh]
	 Singles Energy            =      -0.0000000000000000 [Eh]
	 Same-Spin Energy          =      -0.5105333040874567 [Eh]
	 Opposite-Spin Energy      =      -1.7179375544102262 [Eh]
	 Correlation Energy        =      -2.2284708584976829 [Eh]
	 Total Energy              =    -502.2629119263976918 [Eh]

	 ================> DF-SCS-MP2 Energies <==================
	-----------------------------------------------------------
	 SCS Same-Spin Scale       =       0.3333333333333333 [-]
	 SCS Opposite-Spin Scale   =       1.2000000000000000 [-]
	 SCS Same-Spin Energy      =      -0.1701777680291522 [Eh]
	 SCS Opposite-Spin Energy  =      -2.0615250652922712 [Eh]
	 SCS Correlation Energy    =      -2.2317028333214233 [Eh]
	 SCS Total Energy          =    -502.2661439012214259 [Eh]
	-----------------------------------------------------------

  Dipole Moment: [D]
     X:    -1.4697      Y:     1.2961      Z:     0.9087     Total:     2.1600

*** Psi4 exiting successfully. Buy a developer a beer!
