                               Psi4 1.3.2 release

  ==> Input File <==

--------------------------------------------------------------------------
#psi4
#
memory 32 gb

molecule  {
0 1
  O        1.0716460     0.4753830     0.0137820
  O        2.5311320    -1.1057930    -0.7123110
  C       -2.3693550    -0.0883010     0.2982860
  C       -3.5980660     0.7810210     0.4066790
  C       -1.2626340     0.3942960    -0.2965320
  C        0.0082920    -0.3313460    -0.5624280
  C       -2.5132090    -1.4745150     0.8629900
  C       -4.7078812     0.4044103    -0.5810553
  C        3.3545870     0.8742710     0.4380940
  C        2.3120420    -0.0450080    -0.1482500
  C        4.7580620     0.3036620     0.3135630
  H       -3.3553515     1.8246912     0.1768734
  H       -3.9789780     0.7461160     1.4360390
  H       -1.2730680     1.4248330    -0.6509560
  H        0.2030610    -0.4353830    -1.6357720
  H        0.0474490    -1.3311670    -0.1253770
  H       -2.7951440    -1.4155820     1.9226690
  H       -3.3106690    -2.0257820     0.3507100
  H       -1.6004590    -2.0681310     0.7873000
  H       -5.0436390    -0.6667330    -0.3605950
  H       -4.3535760     0.4008270    -1.5926810
  H       -5.5777020     1.0147490    -0.4669260
  H        3.2685340     1.8407540    -0.0713220
  H        3.0874670     1.0628020     1.4826470
  H        4.8339620    -0.6514900     0.8358700
  H        5.0104170     0.1293290    -0.7342450
  H        5.4905370     0.9935700     0.7404870
units angstrom
no_reorient  #important for SAPT in psi4, default
symmetry c1  #important for SAPT in psi4, default
}

set PROPERTIES_ORIGIN ["COM"]
properties('MP2/aug-cc-pvtz', properties = ['dipole'])
--------------------------------------------------------------------------

    Molecular point group: c1
  Charge       = 0
  Multiplicity = 1
  Basis Set: AUG-CC-PVTZ
    Blend: AUG-CC-PVTZ
  Basis Set: (AUG-CC-PVTZ AUX)
    Blend: AUG-CC-PVTZ-JKFIT

    Orbital Energies [Eh]
    ---------------------

    Doubly Occupied:

       1A    -20.597473     2A    -20.540882     3A    -11.375640
       4A    -11.286749     5A    -11.244912     6A    -11.242275
       7A    -11.228441     8A    -11.226417     9A    -11.223816
      10A    -11.219235    11A    -11.217930    12A     -1.448271
      13A     -1.347737    14A     -1.112415    15A     -1.063978
      16A     -1.022169    17A     -0.978710    18A     -0.919467
      19A     -0.879005    20A     -0.833372    21A     -0.767590
      22A     -0.722916    23A     -0.687947    24A     -0.680260
      25A     -0.660248    26A     -0.638442    27A     -0.625137
      28A     -0.605921    29A     -0.589639    30A     -0.574286
      31A     -0.551304    32A     -0.546707    33A     -0.533709
      34A     -0.522567    35A     -0.517785    36A     -0.515811
      37A     -0.512152    38A     -0.492310    39A     -0.476147
      40A     -0.467255    41A     -0.457525    42A     -0.444560
      43A     -0.346388

  @DF-RHF Final Energy:  -500.03496396573439

   => Energetics <=

    Nuclear Repulsion Energy =            602.9183876415513623
    One-Electron Energy =               -1876.0157044012705683
    Two-Electron Energy =                 773.0623527939848145
    Total Energy =                       -500.0349639657343914
  Basis Set: (AUG-CC-PVTZ AUX)
    Blend: AUG-CC-PVTZ-RI
    Molecular point group: c1

    Geometry (in Angstrom), charge = 0, multiplicity = 1:

       Center              X                  Y                   Z               Mass
    ------------   -----------------  -----------------  -----------------  -----------------
         O            1.071723642884     0.471613136632     0.015611667856    15.994914619570
         O            2.531209642884    -1.109562863368    -0.710481332144    15.994914619570
         C           -2.369277357116    -0.092070863368     0.300115667856    12.000000000000
         C           -3.597988357116     0.777251136632     0.408508667856    12.000000000000
         C           -1.262556357116     0.390526136632    -0.294702332144    12.000000000000
         C            0.008369642884    -0.335115863368    -0.560598332144    12.000000000000
         C           -2.513131357116    -1.478284863368     0.864819667856    12.000000000000
         C           -4.707803557116     0.400640436632    -0.579225632144    12.000000000000
         C            3.354664642884     0.870501136632     0.439923667856    12.000000000000
         C            2.312119642884    -0.048777863368    -0.146420332144    12.000000000000
         C            4.758139642884     0.299892136632     0.315392667856    12.000000000000
         H           -3.355273857116     1.820921336632     0.178703067856     1.007825032230
         H           -3.978900357116     0.742346136632     1.437868667856     1.007825032230
         H           -1.272990357116     1.421063136632    -0.649126332144     1.007825032230
         H            0.203138642884    -0.439152863368    -1.633942332144     1.007825032230
         H            0.047526642884    -1.334936863368    -0.123547332144     1.007825032230
         H           -2.795066357116    -1.419351863368     1.924498667856     1.007825032230
         H           -3.310591357116    -2.029551863368     0.352539667856     1.007825032230
         H           -1.600381357116    -2.071900863368     0.789129667856     1.007825032230
         H           -5.043561357116    -0.670502863368    -0.358765332144     1.007825032230
         H           -4.353498357116     0.397057136632    -1.590851332144     1.007825032230
         H           -5.577624357116     1.010979136632    -0.465096332144     1.007825032230
         H            3.268611642884     1.836984136632    -0.069492332144     1.007825032230
         H            3.087544642884     1.059032136632     1.484476667856     1.007825032230
         H            4.834039642884    -0.655259863368     0.837699667856     1.007825032230
         H            5.010494642884     0.125559136632    -0.732415332144     1.007825032230
         H            5.490614642884     0.989800136632     0.742316667856     1.007825032230

  Basis Set: AUG-CC-PVTZ
    Blend: AUG-CC-PVTZ
  Basis Set: (AUG-CC-PVTZ AUX)
    Blend: AUG-CC-PVTZ-JKFIT
	 Reference Energy          =    -500.0349639657343914 [Eh]
	 Singles Energy            =      -0.0000000000000000 [Eh]
	 Same-Spin Energy          =      -0.5097718083163936 [Eh]
	 Opposite-Spin Energy      =      -1.7169551674810739 [Eh]
	 Correlation Energy        =      -2.2267269757974675 [Eh]
	 Total Energy              =    -502.2616909415318673 [Eh]

	 ================> DF-SCS-MP2 Energies <==================
	-----------------------------------------------------------
	 SCS Same-Spin Scale       =       0.3333333333333333 [-]
	 SCS Opposite-Spin Scale   =       1.2000000000000000 [-]
	 SCS Same-Spin Energy      =      -0.1699239361054645 [Eh]
	 SCS Opposite-Spin Energy  =      -2.0603462009772886 [Eh]
	 SCS Correlation Energy    =      -2.2302701370827531 [Eh]
	 SCS Total Energy          =    -502.2652341028171463 [Eh]
	-----------------------------------------------------------

  Dipole Moment: [D]
     X:    -1.4262      Y:     1.2047      Z:     0.8181     Total:     2.0383

*** Psi4 exiting successfully. Buy a developer a beer!
