                               Psi4 1.3.2 release

  ==> Input File <==

--------------------------------------------------------------------------
#psi4
#
memory 32 gb

molecule  {
0 1
  O        1.0716460     0.4753830     0.0137820
  O        2.5311320    -1.1057930    -0.7123110
  C       -2.3693550    -0.0883010     0.2982860
  C       -3.5980660     0.7810210     0.4066790
  C       -1.2626340     0.3942960    -0.2965320
  C        0.0082920    -0.3313460    -0.5624280
  C       -2.5132090    -1.4745150     0.8629900
  C       -4.7090750     0.3554230    -0.5595870
  C        3.3545870     0.8742710     0.4380940
  C        2.3120420    -0.0450080    -0.1482500
  C        4.7580620     0.3036620     0.3135630
  H       -3.3290990     1.8240090     0.2046860
  H       -3.9789780     0.7461160     1.4360390
  H       -1.2749828     1.6139517    -0.7159980
  H        0.2030610    -0.4353830    -1.6357720
  H        0.0474490    -1.3311670    -0.1253770
  H       -2.7951440    -1.4155820     1.9226690
  H       -3.3106690    -2.0257820     0.3507100
  H       -1.6004590    -2.0681310     0.7873000
  H       -5.0436390    -0.6667330    -0.3605950
  H       -4.3535760     0.4008270    -1.5926810
  H       -5.5777020     1.0147490    -0.4669260
  H        3.2685340     1.8407540    -0.0713220
  H        3.0874670     1.0628020     1.4826470
  H        4.8339620    -0.6514900     0.8358700
  H        5.0104170     0.1293290    -0.7342450
  H        5.4905370     0.9935700     0.7404870
units angstrom
no_reorient  #important for SAPT in psi4, default
symmetry c1  #important for SAPT in psi4, default
}

set PROPERTIES_ORIGIN ["COM"]
properties('MP2/aug-cc-pvtz', properties = ['dipole'])
--------------------------------------------------------------------------

    Molecular point group: c1
  Charge       = 0
  Multiplicity = 1
  Basis Set: AUG-CC-PVTZ
    Blend: AUG-CC-PVTZ
  Basis Set: (AUG-CC-PVTZ AUX)
    Blend: AUG-CC-PVTZ-JKFIT

    Orbital Energies [Eh]
    ---------------------

    Doubly Occupied:

       1A    -20.597675     2A    -20.541090     3A    -11.375816
       4A    -11.289578     5A    -11.246963     6A    -11.244879
       7A    -11.242279     8A    -11.228825     9A    -11.228374
      10A    -11.219168    11A    -11.217954    12A     -1.448505
      13A     -1.347953    14A     -1.111753    15A     -1.064109
      16A     -1.020796    17A     -0.978475    18A     -0.917400
      19A     -0.879604    20A     -0.832023    21A     -0.767014
      22A     -0.713818    23A     -0.684636    24A     -0.680261
      25A     -0.657806    26A     -0.633997    27A     -0.624230
      28A     -0.602332    29A     -0.585248    30A     -0.575431
      31A     -0.553578    32A     -0.545260    33A     -0.533896
      34A     -0.521325    35A     -0.516380    36A     -0.514462
      37A     -0.501301    38A     -0.491562    39A     -0.483765
      40A     -0.460591    41A     -0.455627    42A     -0.444501
      43A     -0.348122

  @DF-RHF Final Energy:  -500.01686595655531

   => Energetics <=

    Nuclear Repulsion Energy =            602.1693721241928188
    One-Electron Energy =               -1874.5157524439537156
    Two-Electron Energy =                 772.3295143632057034
    Total Energy =                       -500.0168659565553071
  Basis Set: (AUG-CC-PVTZ AUX)
    Blend: AUG-CC-PVTZ-RI
    Molecular point group: c1

    Geometry (in Angstrom), charge = 0, multiplicity = 1:

       Center              X                  Y                   Z               Mass
    ------------   -----------------  -----------------  -----------------  -----------------
         O            1.071658290154     0.474162132580     0.014201817190    15.994914619570
         O            2.531144290154    -1.107013867420    -0.711891182810    15.994914619570
         C           -2.369342709846    -0.089521867420     0.298705817190    12.000000000000
         C           -3.598053709846     0.779800132580     0.407098817190    12.000000000000
         C           -1.262621709846     0.393075132580    -0.296112182810    12.000000000000
         C            0.008304290154    -0.332566867420    -0.562008182810    12.000000000000
         C           -2.513196709846    -1.475735867420     0.863409817190    12.000000000000
         C           -4.709062709846     0.354202132580    -0.559167182810    12.000000000000
         C            3.354599290154     0.873050132580     0.438513817190    12.000000000000
         C            2.312054290154    -0.046228867420    -0.147830182810    12.000000000000
         C            4.758074290154     0.302441132580     0.313982817190    12.000000000000
         H           -3.329086709846     1.822788132580     0.205105817190     1.007825032230
         H           -3.978965709846     0.744895132580     1.436458817190     1.007825032230
         H           -1.274970509846     1.612730832580    -0.715578182810     1.007825032230
         H            0.203073290154    -0.436603867420    -1.635352182810     1.007825032230
         H            0.047461290154    -1.332387867420    -0.124957182810     1.007825032230
         H           -2.795131709846    -1.416802867420     1.923088817190     1.007825032230
         H           -3.310656709846    -2.027002867420     0.351129817190     1.007825032230
         H           -1.600446709846    -2.069351867420     0.787719817190     1.007825032230
         H           -5.043626709846    -0.667953867420    -0.360175182810     1.007825032230
         H           -4.353563709846     0.399606132580    -1.592261182810     1.007825032230
         H           -5.577689709846     1.013528132580    -0.466506182810     1.007825032230
         H            3.268546290154     1.839533132580    -0.070902182810     1.007825032230
         H            3.087479290154     1.061581132580     1.483066817190     1.007825032230
         H            4.833974290154    -0.652710867420     0.836289817190     1.007825032230
         H            5.010429290154     0.128108132580    -0.733825182810     1.007825032230
         H            5.490549290154     0.992349132580     0.740906817190     1.007825032230

  Basis Set: AUG-CC-PVTZ
    Blend: AUG-CC-PVTZ
  Basis Set: (AUG-CC-PVTZ AUX)
    Blend: AUG-CC-PVTZ-JKFIT
	 Reference Energy          =    -500.0168659565553071 [Eh]
	 Singles Energy            =      -0.0000000000000000 [Eh]
	 Same-Spin Energy          =      -0.5102849655664096 [Eh]
	 Opposite-Spin Energy      =      -1.7188755420765298 [Eh]
	 Correlation Energy        =      -2.2291605076429395 [Eh]
	 Total Energy              =    -502.2460264641982235 [Eh]

	 ================> DF-SCS-MP2 Energies <==================
	-----------------------------------------------------------
	 SCS Same-Spin Scale       =       0.3333333333333333 [-]
	 SCS Opposite-Spin Scale   =       1.2000000000000000 [-]
	 SCS Same-Spin Energy      =      -0.1700949885221365 [Eh]
	 SCS Opposite-Spin Energy  =      -2.0626506504918356 [Eh]
	 SCS Correlation Energy    =      -2.2327456390139719 [Eh]
	 SCS Total Energy          =    -502.2496115955692630 [Eh]
	-----------------------------------------------------------

  Dipole Moment: [D]
     X:    -1.4276      Y:     1.0715      Z:     0.8744     Total:     1.9877

*** Psi4 exiting successfully. Buy a developer a beer!
