                               Psi4 1.3.2 release

  ==> Input File <==

--------------------------------------------------------------------------
#psi4
#
memory 32 gb

molecule  {
0 1
  O        1.0716460     0.4753830     0.0137820
  O        2.5311320    -1.1057930    -0.7123110
  C       -2.3693550    -0.0883010     0.2982860
  C       -3.6350297     0.7207834     0.4419886
  C       -1.2626340     0.3942960    -0.2965320
  C        0.0082920    -0.3313460    -0.5624280
  C       -2.5873931    -1.4566787     0.8823885
  C       -4.7090750     0.3554230    -0.5595870
  C        3.3545870     0.8742710     0.4380940
  C        2.3120420    -0.0450080    -0.1482500
  C        4.7580620     0.3036620     0.3135630
  H       -3.3290990     1.8240090     0.2046860
  H       -3.9789780     0.7461160     1.4360390
  H       -1.2730680     1.4248330    -0.6509560
  H        0.2030610    -0.4353830    -1.6357720
  H        0.0474490    -1.3311670    -0.1253770
  H       -2.7951440    -1.4155820     1.9226690
  H       -3.3106690    -2.0257820     0.3507100
  H       -1.6004590    -2.0681310     0.7873000
  H       -5.0436390    -0.6667330    -0.3605950
  H       -4.3535760     0.4008270    -1.5926810
  H       -5.5777020     1.0147490    -0.4669260
  H        3.2685340     1.8407540    -0.0713220
  H        3.0874670     1.0628020     1.4826470
  H        4.8339620    -0.6514900     0.8358700
  H        5.0104170     0.1293290    -0.7342450
  H        5.4905370     0.9935700     0.7404870
units angstrom
no_reorient  #important for SAPT in psi4, default
symmetry c1  #important for SAPT in psi4, default
}

set PROPERTIES_ORIGIN ["COM"]
properties('MP2/aug-cc-pvtz', properties = ['dipole'])
--------------------------------------------------------------------------

    Molecular point group: c1
  Charge       = 0
  Multiplicity = 1
  Basis Set: AUG-CC-PVTZ
    Blend: AUG-CC-PVTZ
  Basis Set: (AUG-CC-PVTZ AUX)
    Blend: AUG-CC-PVTZ-JKFIT

    Orbital Energies [Eh]
    ---------------------

    Doubly Occupied:

       1A    -20.597811     2A    -20.540999     3A    -11.375817
       4A    -11.287427     5A    -11.245186     6A    -11.242363
       7A    -11.228574     8A    -11.226897     9A    -11.225718
      10A    -11.219001    11A    -11.217969    12A     -1.448519
      13A     -1.347919    14A     -1.113651    15A     -1.064546
      16A     -1.024497    17A     -0.979076    18A     -0.919958
      19A     -0.878421    20A     -0.835481    21A     -0.767917
      22A     -0.723693    23A     -0.687919    24A     -0.679100
      25A     -0.660415    26A     -0.636348    27A     -0.624483
      28A     -0.606783    29A     -0.596536    30A     -0.582241
      31A     -0.551297    32A     -0.545326    33A     -0.531135
      34A     -0.522404    35A     -0.520526    36A     -0.518147
      37A     -0.514027    38A     -0.492507    39A     -0.477121
      40A     -0.458127    41A     -0.445736    42A     -0.444572
      43A     -0.349936

  @DF-RHF Final Energy:  -500.02374361277168

   => Energetics <=

    Nuclear Repulsion Energy =            602.8933638434460818
    One-Electron Energy =               -1875.9219612681577019
    Two-Electron Energy =                 773.0048538119400519
    Total Energy =                       -500.0237436127716819
  Basis Set: (AUG-CC-PVTZ AUX)
    Blend: AUG-CC-PVTZ-RI
    Molecular point group: c1

    Geometry (in Angstrom), charge = 0, multiplicity = 1:

       Center              X                  Y                   Z               Mass
    ------------   -----------------  -----------------  -----------------  -----------------
         O            1.080189459887     0.478642253175     0.009576713784    15.994914619570
         O            2.539675459887    -1.102533746825    -0.716516286216    15.994914619570
         C           -2.360811540113    -0.085041746825     0.294080713784    12.000000000000
         C           -3.626486240113     0.724042653175     0.437783313784    12.000000000000
         C           -1.254090540113     0.397555253175    -0.300737286216    12.000000000000
         C            0.016835459887    -0.328086746825    -0.566633286216    12.000000000000
         C           -2.578849640113    -1.453419446825     0.878183213784    12.000000000000
         C           -4.700531540113     0.358682253175    -0.563792286216    12.000000000000
         C            3.363130459887     0.877530253175     0.433888713784    12.000000000000
         C            2.320585459887    -0.041748746825    -0.152455286216    12.000000000000
         C            4.766605459887     0.306921253175     0.309357713784    12.000000000000
         H           -3.320555540113     1.827268253175     0.200480713784     1.007825032230
         H           -3.970434540113     0.749375253175     1.431833713784     1.007825032230
         H           -1.264524540113     1.428092253175    -0.655161286216     1.007825032230
         H            0.211604459887    -0.432123746825    -1.639977286216     1.007825032230
         H            0.055992459887    -1.327907746825    -0.129582286216     1.007825032230
         H           -2.786600540113    -1.412322746825     1.918463713784     1.007825032230
         H           -3.302125540113    -2.022522746825     0.346504713784     1.007825032230
         H           -1.591915540113    -2.064871746825     0.783094713784     1.007825032230
         H           -5.035095540113    -0.663473746825    -0.364800286216     1.007825032230
         H           -4.345032540113     0.404086253175    -1.596886286216     1.007825032230
         H           -5.569158540113     1.018008253175    -0.471131286216     1.007825032230
         H            3.277077459887     1.844013253175    -0.075527286216     1.007825032230
         H            3.096010459887     1.066061253175     1.478441713784     1.007825032230
         H            4.842505459887    -0.648230746825     0.831664713784     1.007825032230
         H            5.018960459887     0.132588253175    -0.738450286216     1.007825032230
         H            5.499080459887     0.996829253175     0.736281713784     1.007825032230

  Basis Set: AUG-CC-PVTZ
    Blend: AUG-CC-PVTZ
  Basis Set: (AUG-CC-PVTZ AUX)
    Blend: AUG-CC-PVTZ-JKFIT
	 Reference Energy          =    -500.0237436127716819 [Eh]
	 Singles Energy            =      -0.0000000000000000 [Eh]
	 Same-Spin Energy          =      -0.5102355064903924 [Eh]
	 Opposite-Spin Energy      =      -1.7180426795528452 [Eh]
	 Correlation Energy        =      -2.2282781860432377 [Eh]
	 Total Energy              =    -502.2520217988148943 [Eh]

	 ================> DF-SCS-MP2 Energies <==================
	-----------------------------------------------------------
	 SCS Same-Spin Scale       =       0.3333333333333333 [-]
	 SCS Opposite-Spin Scale   =       1.2000000000000000 [-]
	 SCS Same-Spin Energy      =      -0.1700785021634641 [Eh]
	 SCS Opposite-Spin Energy  =      -2.0616512154634141 [Eh]
	 SCS Correlation Energy    =      -2.2317297176268784 [Eh]
	 SCS Total Energy          =    -502.2554733303985586 [Eh]
	-----------------------------------------------------------

  Dipole Moment: [D]
     X:    -1.4357      Y:     1.1635      Z:     0.8353     Total:     2.0279

*** Psi4 exiting successfully. Buy a developer a beer!
