                               Psi4 1.3.2 release

  ==> Input File <==

--------------------------------------------------------------------------
#psi4
#
memory 32 gb

molecule  {
0 1
  O        1.0716460     0.4753830     0.0137820
  O        2.5311320    -1.1057930    -0.7123110
  C       -2.3693550    -0.0883010     0.2982860
  C       -3.5980660     0.7810210     0.4066790
  C       -1.2626340     0.3942960    -0.2965320
  C       -0.0771512    -0.2825617    -0.5445520
  C       -2.5132090    -1.4745150     0.8629900
  C       -4.7090750     0.3554230    -0.5595870
  C        3.3545870     0.8742710     0.4380940
  C        2.3120420    -0.0450080    -0.1482500
  C        4.7580620     0.3036620     0.3135630
  H       -3.3290990     1.8240090     0.2046860
  H       -3.9789780     0.7461160     1.4360390
  H       -1.2730680     1.4248330    -0.6509560
  H        0.2030610    -0.4353830    -1.6357720
  H        0.0474490    -1.3311670    -0.1253770
  H       -2.7951440    -1.4155820     1.9226690
  H       -3.3106690    -2.0257820     0.3507100
  H       -1.6004590    -2.0681310     0.7873000
  H       -5.0436390    -0.6667330    -0.3605950
  H       -4.3535760     0.4008270    -1.5926810
  H       -5.5777020     1.0147490    -0.4669260
  H        3.2685340     1.8407540    -0.0713220
  H        3.0874670     1.0628020     1.4826470
  H        4.8339620    -0.6514900     0.8358700
  H        5.0104170     0.1293290    -0.7342450
  H        5.4905370     0.9935700     0.7404870
units angstrom
no_reorient  #important for SAPT in psi4, default
symmetry c1  #important for SAPT in psi4, default
}

set PROPERTIES_ORIGIN ["COM"]
properties('MP2/aug-cc-pvtz', properties = ['dipole'])
--------------------------------------------------------------------------

    Molecular point group: c1
  Charge       = 0
  Multiplicity = 1
  Basis Set: AUG-CC-PVTZ
    Blend: AUG-CC-PVTZ
  Basis Set: (AUG-CC-PVTZ AUX)
    Blend: AUG-CC-PVTZ-JKFIT

    Orbital Energies [Eh]
    ---------------------

    Doubly Occupied:

       1A    -20.589340     2A    -20.536942     3A    -11.372795
       4A    -11.289999     5A    -11.250657     6A    -11.240154
       7A    -11.231349     8A    -11.228706     9A    -11.221688
      10A    -11.219339    11A    -11.216215    12A     -1.437304
      13A     -1.340610    14A     -1.122601    15A     -1.062575
      16A     -1.032775    17A     -0.982277    18A     -0.918265
      19A     -0.880703    20A     -0.831929    21A     -0.758786
      22A     -0.729902    23A     -0.684632    24A     -0.674221
      25A     -0.656973    26A     -0.641055    27A     -0.629635
      28A     -0.599772    29A     -0.593057    30A     -0.578269
      31A     -0.553154    32A     -0.544932    33A     -0.535090
      34A     -0.520850    35A     -0.516887    36A     -0.513934
      37A     -0.503542    38A     -0.488807    39A     -0.487928
      40A     -0.472862    41A     -0.449190    42A     -0.440054
      43A     -0.347535

  @DF-RHF Final Energy:  -500.02430478034370

   => Energetics <=

    Nuclear Repulsion Energy =            603.4054497771779779
    One-Electron Energy =               -1877.0049269630562776
    Two-Electron Energy =                 773.5751724055344312
    Total Energy =                       -500.0243047803437548
  Basis Set: (AUG-CC-PVTZ AUX)
    Blend: AUG-CC-PVTZ-RI
    Molecular point group: c1

    Geometry (in Angstrom), charge = 0, multiplicity = 1:

       Center              X                  Y                   Z               Mass
    ------------   -----------------  -----------------  -----------------  -----------------
         O            1.078213639874     0.471633144560     0.012407864640    15.994914619570
         O            2.537699639874    -1.109542855440    -0.713685135360    15.994914619570
         C           -2.362787360126    -0.092050855440     0.296911864640    12.000000000000
         C           -3.591498360126     0.777271144560     0.405304864640    12.000000000000
         C           -1.256066360126     0.390546144560    -0.297906135360    12.000000000000
         C           -0.070583560126    -0.286311555440    -0.545926135360    12.000000000000
         C           -2.506641360126    -1.478264855440     0.861615864640    12.000000000000
         C           -4.702507360126     0.351673144560    -0.560961135360    12.000000000000
         C            3.361154639874     0.870521144560     0.436719864640    12.000000000000
         C            2.318609639874    -0.048757855440    -0.149624135360    12.000000000000
         C            4.764629639874     0.299912144560     0.312188864640    12.000000000000
         H           -3.322531360126     1.820259144560     0.203311864640     1.007825032230
         H           -3.972410360126     0.742366144560     1.434664864640     1.007825032230
         H           -1.266500360126     1.421083144560    -0.652330135360     1.007825032230
         H            0.209628639874    -0.439132855440    -1.637146135360     1.007825032230
         H            0.054016639874    -1.334916855440    -0.126751135360     1.007825032230
         H           -2.788576360126    -1.419331855440     1.921294864640     1.007825032230
         H           -3.304101360126    -2.029531855440     0.349335864640     1.007825032230
         H           -1.593891360126    -2.071880855440     0.785925864640     1.007825032230
         H           -5.037071360126    -0.670482855440    -0.361969135360     1.007825032230
         H           -4.347008360126     0.397077144560    -1.594055135360     1.007825032230
         H           -5.571134360126     1.010999144560    -0.468300135360     1.007825032230
         H            3.275101639874     1.837004144560    -0.072696135360     1.007825032230
         H            3.094034639874     1.059052144560     1.481272864640     1.007825032230
         H            4.840529639874    -0.655239855440     0.834495864640     1.007825032230
         H            5.016984639874     0.125579144560    -0.735619135360     1.007825032230
         H            5.497104639874     0.989820144560     0.739112864640     1.007825032230

  Basis Set: AUG-CC-PVTZ
    Blend: AUG-CC-PVTZ
  Basis Set: (AUG-CC-PVTZ AUX)
    Blend: AUG-CC-PVTZ-JKFIT
	 Reference Energy          =    -500.0243047803436980 [Eh]
	 Singles Energy            =      -0.0000000000000000 [Eh]
	 Same-Spin Energy          =      -0.5112649378871581 [Eh]
	 Opposite-Spin Energy      =      -1.7185120677670471 [Eh]
	 Correlation Energy        =      -2.2297770056542054 [Eh]
	 Total Energy              =    -502.2540817859979256 [Eh]

	 ================> DF-SCS-MP2 Energies <==================
	-----------------------------------------------------------
	 SCS Same-Spin Scale       =       0.3333333333333333 [-]
	 SCS Opposite-Spin Scale   =       1.2000000000000000 [-]
	 SCS Same-Spin Energy      =      -0.1704216459623860 [Eh]
	 SCS Opposite-Spin Energy  =      -2.0622144813204564 [Eh]
	 SCS Correlation Energy    =      -2.2326361272828423 [Eh]
	 SCS Total Energy          =    -502.2569409076265288 [Eh]
	-----------------------------------------------------------

  Dipole Moment: [D]
     X:    -1.8326      Y:     1.2089      Z:     0.8745     Total:     2.3632

*** Psi4 exiting successfully. Buy a developer a beer!
