                               Psi4 1.3.2 release

  ==> Input File <==

--------------------------------------------------------------------------
#psi4
#
memory 32 gb

molecule  {
0 1
  O        1.0716460     0.4753830     0.0137820
  O        2.5311320    -1.1057930    -0.7123110
  C       -2.3693550    -0.0883010     0.2982860
  C       -3.5980660     0.7810210     0.4066790
  C       -1.2626340     0.3942960    -0.2965320
  C        0.0082920    -0.3313460    -0.5624280
  C       -2.5132090    -1.4745150     0.8629900
  C       -4.7090750     0.3554230    -0.5595870
  C        3.3545870     0.8742710     0.4380940
  C        2.3699458    -0.0953626    -0.1669395
  C        4.7267055     0.2399176     0.2776843
  H       -3.3290990     1.8240090     0.2046860
  H       -3.9789780     0.7461160     1.4360390
  H       -1.2730680     1.4248330    -0.6509560
  H        0.2030610    -0.4353830    -1.6357720
  H        0.0474490    -1.3311670    -0.1253770
  H       -2.7951440    -1.4155820     1.9226690
  H       -3.3106690    -2.0257820     0.3507100
  H       -1.6004590    -2.0681310     0.7873000
  H       -5.0436390    -0.6667330    -0.3605950
  H       -4.3535760     0.4008270    -1.5926810
  H       -5.5777020     1.0147490    -0.4669260
  H        3.2685340     1.8407540    -0.0713220
  H        3.0874670     1.0628020     1.4826470
  H        4.8339620    -0.6514900     0.8358700
  H        5.0104170     0.1293290    -0.7342450
  H        5.4905370     0.9935700     0.7404870
units angstrom
no_reorient  #important for SAPT in psi4, default
symmetry c1  #important for SAPT in psi4, default
}

set PROPERTIES_ORIGIN ["COM"]
properties('MP2/aug-cc-pvtz', properties = ['dipole'])
--------------------------------------------------------------------------

    Molecular point group: c1
  Charge       = 0
  Multiplicity = 1
  Basis Set: AUG-CC-PVTZ
    Blend: AUG-CC-PVTZ
  Basis Set: (AUG-CC-PVTZ AUX)
    Blend: AUG-CC-PVTZ-JKFIT

    Orbital Energies [Eh]
    ---------------------

    Doubly Occupied:

       1A    -20.577352     2A    -20.557750     3A    -11.372807
       4A    -11.277485     5A    -11.245417     6A    -11.238913
       7A    -11.225040     8A    -11.222974     9A    -11.221636
      10A    -11.218731    11A    -11.216495    12A     -1.458440
      13A     -1.353711    14A     -1.107280    15A     -1.067486
      16A     -1.015453    17A     -0.970962    18A     -0.913237
      19A     -0.877390    20A     -0.828301    21A     -0.758212
      22A     -0.723141    23A     -0.690644    24A     -0.674548
      25A     -0.667073    26A     -0.642433    27A     -0.622732
      28A     -0.605112    29A     -0.585941    30A     -0.570617
      31A     -0.555273    32A     -0.542996    33A     -0.538047
      34A     -0.528346    35A     -0.514731    36A     -0.511405
      37A     -0.509559    38A     -0.500267    39A     -0.481349
      40A     -0.464189    41A     -0.453589    42A     -0.441795
      43A     -0.340515

  @DF-RHF Final Energy:  -500.02460863627755

   => Energetics <=

    Nuclear Repulsion Energy =            603.4379550465999955
    One-Electron Energy =               -1877.1463842037410359
    Two-Electron Energy =                 773.6838205208633781
    Total Energy =                       -500.0246086362775486
  Basis Set: (AUG-CC-PVTZ AUX)
    Blend: AUG-CC-PVTZ-RI
    Molecular point group: c1

    Geometry (in Angstrom), charge = 0, multiplicity = 1:

       Center              X                  Y                   Z               Mass
    ------------   -----------------  -----------------  -----------------  -----------------
         O            1.069605333537     0.484153397114     0.017976389345    15.994914619570
         O            2.529091333537    -1.097022602886    -0.708116610655    15.994914619570
         C           -2.371395666463    -0.079530602886     0.302480389345    12.000000000000
         C           -3.600106666463     0.789791397114     0.410873389345    12.000000000000
         C           -1.264674666463     0.403066397114    -0.292337610655    12.000000000000
         C            0.006251333537    -0.322575602886    -0.558233610655    12.000000000000
         C           -2.515249666463    -1.465744602886     0.867184389345    12.000000000000
         C           -4.711115666463     0.364193397114    -0.555392610655    12.000000000000
         C            3.352546333537     0.883041397114     0.442288389345    12.000000000000
         C            2.367905133537    -0.086592202886    -0.162745110655    12.000000000000
         C            4.724664833537     0.248687997114     0.281878689345    12.000000000000
         H           -3.331139666463     1.832779397114     0.208880389345     1.007825032230
         H           -3.981018666463     0.754886397114     1.440233389345     1.007825032230
         H           -1.275108666463     1.433603397114    -0.646761610655     1.007825032230
         H            0.201020333537    -0.426612602886    -1.631577610655     1.007825032230
         H            0.045408333537    -1.322396602886    -0.121182610655     1.007825032230
         H           -2.797184666463    -1.406811602886     1.926863389345     1.007825032230
         H           -3.312709666463    -2.017011602886     0.354904389345     1.007825032230
         H           -1.602499666463    -2.059360602886     0.791494389345     1.007825032230
         H           -5.045679666463    -0.657962602886    -0.356400610655     1.007825032230
         H           -4.355616666463     0.409597397114    -1.588486610655     1.007825032230
         H           -5.579742666463     1.023519397114    -0.462731610655     1.007825032230
         H            3.266493333537     1.849524397114    -0.067127610655     1.007825032230
         H            3.085426333537     1.071572397114     1.486841389345     1.007825032230
         H            4.831921333537    -0.642719602886     0.840064389345     1.007825032230
         H            5.008376333537     0.138099397114    -0.730050610655     1.007825032230
         H            5.488496333537     1.002340397114     0.744681389345     1.007825032230

  Basis Set: AUG-CC-PVTZ
    Blend: AUG-CC-PVTZ
  Basis Set: (AUG-CC-PVTZ AUX)
    Blend: AUG-CC-PVTZ-JKFIT
	 Reference Energy          =    -500.0246086362775486 [Eh]
	 Singles Energy            =      -0.0000000000000000 [Eh]
	 Same-Spin Energy          =      -0.5095490693890361 [Eh]
	 Opposite-Spin Energy      =      -1.7167053723358707 [Eh]
	 Correlation Energy        =      -2.2262544417249068 [Eh]
	 Total Energy              =    -502.2508630780024532 [Eh]

	 ================> DF-SCS-MP2 Energies <==================
	-----------------------------------------------------------
	 SCS Same-Spin Scale       =       0.3333333333333333 [-]
	 SCS Opposite-Spin Scale   =       1.2000000000000000 [-]
	 SCS Same-Spin Energy      =      -0.1698496897963453 [Eh]
	 SCS Opposite-Spin Energy  =      -2.0600464468030446 [Eh]
	 SCS Correlation Energy    =      -2.2298961365993901 [Eh]
	 SCS Total Energy          =    -502.2545047728769418 [Eh]
	-----------------------------------------------------------

  Dipole Moment: [D]
     X:    -0.6989      Y:     0.8651      Z:     0.6919     Total:     1.3098

*** Psi4 exiting successfully. Buy a developer a beer!
