                               Psi4 1.3.2 release

  ==> Input File <==

--------------------------------------------------------------------------
#psi4
#
memory 32 gb

molecule  {
0 1
  O        1.0716460     0.4753830     0.0137820
  O        2.5311320    -1.1057930    -0.7123110
  C       -2.3896922    -0.0463289     0.2926446
  C       -3.5980660     0.7810210     0.4066790
  C       -1.2626340     0.3942960    -0.2965320
  C        0.0273641    -0.2881644    -0.5840430
  C       -2.5132090    -1.4745150     0.8629900
  C       -4.7090750     0.3554230    -0.5595870
  C        3.3545870     0.8742710     0.4380940
  C        2.3120420    -0.0450080    -0.1482500
  C        4.7580620     0.3036620     0.3135630
  H       -3.3290990     1.8240090     0.2046860
  H       -3.9789780     0.7461160     1.4360390
  H       -1.2730680     1.4248330    -0.6509560
  H        0.2030610    -0.4353830    -1.6357720
  H        0.0474490    -1.3311670    -0.1253770
  H       -2.7951440    -1.4155820     1.9226690
  H       -3.3106690    -2.0257820     0.3507100
  H       -1.6004590    -2.0681310     0.7873000
  H       -5.0436390    -0.6667330    -0.3605950
  H       -4.3535760     0.4008270    -1.5926810
  H       -5.5777020     1.0147490    -0.4669260
  H        3.2685340     1.8407540    -0.0713220
  H        3.0874670     1.0628020     1.4826470
  H        4.8339620    -0.6514900     0.8358700
  H        5.0104170     0.1293290    -0.7342450
  H        5.4905370     0.9935700     0.7404870
units angstrom
no_reorient  #important for SAPT in psi4, default
symmetry c1  #important for SAPT in psi4, default
}

set PROPERTIES_ORIGIN ["COM"]
properties('MP2/aug-cc-pvtz', properties = ['dipole'])
--------------------------------------------------------------------------

    Molecular point group: c1
  Charge       = 0
  Multiplicity = 1
  Basis Set: AUG-CC-PVTZ
    Blend: AUG-CC-PVTZ
  Basis Set: (AUG-CC-PVTZ AUX)
    Blend: AUG-CC-PVTZ-JKFIT

    Orbital Energies [Eh]
    ---------------------

    Doubly Occupied:

       1A    -20.600881     2A    -20.543062     3A    -11.378016
       4A    -11.288076     5A    -11.244661     6A    -11.243713
       7A    -11.226897     8A    -11.225741     9A    -11.222423
      10A    -11.219907    11A    -11.218918    12A     -1.455337
      13A     -1.352505    14A     -1.113033    15A     -1.066238
      16A     -1.022534    17A     -0.973476    18A     -0.920408
      19A     -0.881657    20A     -0.836487    21A     -0.771036
      22A     -0.722220    23A     -0.690864    24A     -0.682110
      25A     -0.663602    26A     -0.638621    27A     -0.626549
      28A     -0.606126    29A     -0.588448    30A     -0.572909
      31A     -0.548849    32A     -0.546522    33A     -0.532107
      34A     -0.522581    35A     -0.519097    36A     -0.515454
      37A     -0.509008    38A     -0.492661    39A     -0.484238
      40A     -0.465775    41A     -0.453852    42A     -0.445532
      43A     -0.346049

  @DF-RHF Final Energy:  -500.03335674889507

   => Energetics <=

    Nuclear Repulsion Energy =            603.2886095146955086
    One-Electron Energy =               -1876.6875708775310159
    Two-Electron Energy =                 773.3656046139403770
    Total Energy =                       -500.0333567488951303
  Basis Set: (AUG-CC-PVTZ AUX)
    Blend: AUG-CC-PVTZ-RI
    Molecular point group: c1

    Geometry (in Angstrom), charge = 0, multiplicity = 1:

       Center              X                  Y                   Z               Mass
    ------------   -----------------  -----------------  -----------------  -----------------
         O            1.071743172543     0.468837559787     0.015877029658    15.994914619570
         O            2.531229172543    -1.112338440213    -0.710215970342    15.994914619570
         C           -2.389595027457    -0.052874340213     0.294739629658    12.000000000000
         C           -3.597968827457     0.774475559787     0.408774029658    12.000000000000
         C           -1.262536827457     0.387750559787    -0.294436970342    12.000000000000
         C            0.027461272543    -0.294709840213    -0.581947970342    12.000000000000
         C           -2.513111827457    -1.481060440213     0.865085029658    12.000000000000
         C           -4.708977827457     0.348877559787    -0.557491970342    12.000000000000
         C            3.354684172543     0.867725559787     0.440189029658    12.000000000000
         C            2.312139172543    -0.051553440213    -0.146154970342    12.000000000000
         C            4.758159172543     0.297116559787     0.315658029658    12.000000000000
         H           -3.329001827457     1.817463559787     0.206781029658     1.007825032230
         H           -3.978880827457     0.739570559787     1.438134029658     1.007825032230
         H           -1.272970827457     1.418287559787    -0.648860970342     1.007825032230
         H            0.203158172543    -0.441928440213    -1.633676970342     1.007825032230
         H            0.047546172543    -1.337712440213    -0.123281970342     1.007825032230
         H           -2.795046827457    -1.422127440213     1.924764029658     1.007825032230
         H           -3.310571827457    -2.032327440213     0.352805029658     1.007825032230
         H           -1.600361827457    -2.074676440213     0.789395029658     1.007825032230
         H           -5.043541827457    -0.673278440213    -0.358499970342     1.007825032230
         H           -4.353478827457     0.394281559787    -1.590585970342     1.007825032230
         H           -5.577604827457     1.008203559787    -0.464830970342     1.007825032230
         H            3.268631172543     1.834208559787    -0.069226970342     1.007825032230
         H            3.087564172543     1.056256559787     1.484742029658     1.007825032230
         H            4.834059172543    -0.658035440213     0.837965029658     1.007825032230
         H            5.010514172543     0.122783559787    -0.732149970342     1.007825032230
         H            5.490634172543     0.987024559787     0.742582029658     1.007825032230

  Basis Set: AUG-CC-PVTZ
    Blend: AUG-CC-PVTZ
  Basis Set: (AUG-CC-PVTZ AUX)
    Blend: AUG-CC-PVTZ-JKFIT
	 Reference Energy          =    -500.0333567488950735 [Eh]
	 Singles Energy            =      -0.0000000000000000 [Eh]
	 Same-Spin Energy          =      -0.5099290652735999 [Eh]
	 Opposite-Spin Energy      =      -1.7169694426694719 [Eh]
	 Correlation Energy        =      -2.2268985079430719 [Eh]
	 Total Energy              =    -502.2602552568381498 [Eh]

	 ================> DF-SCS-MP2 Energies <==================
	-----------------------------------------------------------
	 SCS Same-Spin Scale       =       0.3333333333333333 [-]
	 SCS Opposite-Spin Scale   =       1.2000000000000000 [-]
	 SCS Same-Spin Energy      =      -0.1699763550912000 [Eh]
	 SCS Opposite-Spin Energy  =      -2.0603633312033662 [Eh]
	 SCS Correlation Energy    =      -2.2303396862945664 [Eh]
	 SCS Total Energy          =    -502.2636964351896154 [Eh]
	-----------------------------------------------------------

  Dipole Moment: [D]
     X:    -1.3317      Y:     1.2817      Z:     0.7950     Total:     2.0120

*** Psi4 exiting successfully. Buy a developer a beer!
