                               Psi4 1.4a3.dev225

  ==> Input File <==

--------------------------------------------------------------------------
#psi4
#
memory 32 gb

molecule  {
0 1
  O       -1.1411000    -0.4541930    -0.0251880
  O       -2.5814580     1.1752260    -0.6867450
  C        2.3134570     0.0186930     0.2462000
  C        3.5222300    -0.8802230     0.3222130
  C        1.1937340    -0.4134970    -0.3651820
  C       -0.0647290     0.3542590    -0.5783780
  C        2.4850690     1.3863280     0.8546590
  C        4.7190700    -0.3405130    -0.4677320
  C       -3.4286640    -0.8122060     0.4327630
  C       -2.3400519     0.1238874    -0.1779667
  C       -4.8282690    -0.2261570     0.3119590
  H        3.2581340    -1.8761120    -0.0507320
  H        3.8122360    -1.0018650     1.3748590
  H        1.1815530    -1.4238220    -0.7735790
  H       -0.2705280     0.5138520    -1.6430550
  H       -0.0714200     1.3330110    -0.0949940
  H        3.0182560     1.3061200     1.8081990
  H        3.0814560     2.0379150     0.2067330
  H        1.5342700     1.8877430     1.0433380
  H        5.0646870     0.6170420    -0.0694620
  H        4.4484560    -0.1949880    -1.5176090
  H        5.5583810    -1.0408350    -0.4253590
  H       -3.3536290    -1.7820470    -0.0715700
  H       -3.1585900    -0.9983310     1.4781360
  H       -4.8922970     0.7333770     0.8287030
  H       -5.0879650    -0.0561110    -0.7346540
  H       -5.5642940    -0.9066400     0.7478690
units angstrom
no_reorient  #important for SAPT in psi4, default
symmetry c1  #important for SAPT in psi4, default
}

set PROPERTIES_ORIGIN ["COM"]
properties('MP2/aug-cc-pvtz', properties = ['dipole'])
--------------------------------------------------------------------------

    Molecular point group: c1
  Charge       = 0
  Multiplicity = 1
  Basis Set: AUG-CC-PVTZ
    Blend: AUG-CC-PVTZ
  Basis Set: (AUG-CC-PVTZ AUX)
    Blend: AUG-CC-PVTZ-JKFIT

    Orbital Energies [Eh]
    ---------------------

    Doubly Occupied:

       1A    -20.600970     2A    -20.543015     3A    -11.371845
       4A    -11.288754     5A    -11.245728     6A    -11.238824
       7A    -11.229420     8A    -11.227221     9A    -11.224680
      10A    -11.220010    11A    -11.214705    12A     -1.459558
      13A     -1.365550    14A     -1.113259    15A     -1.053074
      16A     -1.021995    17A     -0.978184    18A     -0.919713
      19A     -0.873165    20A     -0.832692    21A     -0.772002
      22A     -0.723159    23A     -0.688845    24A     -0.683085
      25A     -0.664795    26A     -0.637172    27A     -0.624128
      28A     -0.603927    29A     -0.590364    30A     -0.572729
      31A     -0.556733    32A     -0.549025    33A     -0.536689
      34A     -0.518833    35A     -0.517451    36A     -0.514263
      37A     -0.512922    38A     -0.491509    39A     -0.485543
      40A     -0.467736    41A     -0.463199    42A     -0.437894
      43A     -0.346998

  @DF-RHF Final Energy:  -500.03841194822076

   => Energetics <=

    Nuclear Repulsion Energy =            602.9514491151516040
    One-Electron Energy =               -1876.0169938862686649
    Two-Electron Energy =                 773.0271328228961920
    Total Energy =                       -500.0384119482207552
  Basis Set: (AUG-CC-PVTZ AUX)
    Blend: AUG-CC-PVTZ-RI
    Molecular point group: c1

    Geometry (in Angstrom), charge = 0, multiplicity = 1:

       Center              X                  Y                   Z               Mass
    ------------   -----------------  -----------------  -----------------  -----------------
         O           -1.089508772437    -0.461888367738    -0.010317074404    15.994914619570
         O           -2.529866772437     1.167530632262    -0.671874074404    15.994914619570
         C            2.365048227563     0.010997632262     0.261070925596    12.000000000000
         C            3.573821227563    -0.887918367738     0.337083925596    12.000000000000
         C            1.245325227563    -0.421192367738    -0.350311074404    12.000000000000
         C           -0.013137772437     0.346563632262    -0.563507074404    12.000000000000
         C            2.536660227563     1.378632632262     0.869529925596    12.000000000000
         C            4.770661227563    -0.348208367738    -0.452861074404    12.000000000000
         C           -3.377072772437    -0.819901367738     0.447633925596    12.000000000000
         C           -2.288460672437     0.116192032262    -0.163095774404    12.000000000000
         C           -4.776677772437    -0.233852367738     0.326829925596    12.000000000000
         H            3.309725227563    -1.883807367738    -0.035861074404     1.007825032230
         H            3.863827227563    -1.009560367738     1.389729925596     1.007825032230
         H            1.233144227563    -1.431517367738    -0.758708074404     1.007825032230
         H           -0.218936772437     0.506156632262    -1.628184074404     1.007825032230
         H           -0.019828772437     1.325315632262    -0.080123074404     1.007825032230
         H            3.069847227563     1.298424632262     1.823069925596     1.007825032230
         H            3.133047227563     2.030219632262     0.221603925596     1.007825032230
         H            1.585861227563     1.880047632262     1.058208925596     1.007825032230
         H            5.116278227563     0.609346632262    -0.054591074404     1.007825032230
         H            4.500047227563    -0.202683367738    -1.502738074404     1.007825032230
         H            5.609972227563    -1.048530367738    -0.410488074404     1.007825032230
         H           -3.302037772437    -1.789742367738    -0.056699074404     1.007825032230
         H           -3.106998772437    -1.006026367738     1.493006925596     1.007825032230
         H           -4.840705772437     0.725681632262     0.843573925596     1.007825032230
         H           -5.036373772437    -0.063806367738    -0.719783074404     1.007825032230
         H           -5.512702772437    -0.914335367738     0.762739925596     1.007825032230

  Basis Set: AUG-CC-PVTZ
    Blend: AUG-CC-PVTZ
  Basis Set: (AUG-CC-PVTZ AUX)
    Blend: AUG-CC-PVTZ-JKFIT
	 Reference Energy          =    -500.0384119482207552 [Eh]
	 Singles Energy            =      -0.0000000000000000 [Eh]
	 Same-Spin Energy          =      -0.5088844326292471 [Eh]
	 Opposite-Spin Energy      =      -1.7154365421524642 [Eh]
	 Correlation Energy        =      -2.2243209747817114 [Eh]
	 Total Energy              =    -502.2627329230024884 [Eh]

	 ================> DF-SCS-MP2 Energies <==================
	-----------------------------------------------------------
	 SCS Same-Spin Scale       =       0.3333333333333333 [-]
	 SCS Opposite-Spin Scale   =       1.2000000000000000 [-]
	 SCS Same-Spin Energy      =      -0.1696281442097490 [Eh]
	 SCS Opposite-Spin Energy  =      -2.0585238505829571 [Eh]
	 SCS Correlation Energy    =      -2.2281519947927060 [Eh]
	 SCS Total Energy          =    -502.2665639430134661 [Eh]
	-----------------------------------------------------------

  Dipole Moment: [D]
     X:     1.7043      Y:    -1.0380      Z:     0.6898     Total:     2.1114

*** Psi4 exiting successfully. Buy a developer a beer!
