                               Psi4 1.3.2 release

  ==> Input File <==

--------------------------------------------------------------------------
#psi4
#
memory 32 gb

molecule  {
0 1
  O        1.0716460     0.4753830     0.0137820
  O        2.5311320    -1.1057930    -0.7123110
  C       -2.3693550    -0.0883010     0.2982860
  C       -3.6044633     0.7711425     0.4125872
  C       -1.2626340     0.3942960    -0.2965320
  C        0.0082920    -0.3313460    -0.5624280
  C       -2.5256059    -1.4718049     0.8663321
  C       -4.7090750     0.3554230    -0.5595870
  C        3.3545870     0.8742710     0.4380940
  C        2.3120420    -0.0450080    -0.1482500
  C        4.7580620     0.3036620     0.3135630
  H       -3.3290990     1.8240090     0.2046860
  H       -3.9789780     0.7461160     1.4360390
  H       -1.2730680     1.4248330    -0.6509560
  H        0.2030610    -0.4353830    -1.6357720
  H        0.0474490    -1.3311670    -0.1253770
  H       -2.7951440    -1.4155820     1.9226690
  H       -3.3106690    -2.0257820     0.3507100
  H       -1.6004590    -2.0681310     0.7873000
  H       -5.0436390    -0.6667330    -0.3605950
  H       -4.3535760     0.4008270    -1.5926810
  H       -5.5777020     1.0147490    -0.4669260
  H        3.2685340     1.8407540    -0.0713220
  H        3.0874670     1.0628020     1.4826470
  H        4.8339620    -0.6514900     0.8358700
  H        5.0104170     0.1293290    -0.7342450
  H        5.4905370     0.9935700     0.7404870
units angstrom
no_reorient  #important for SAPT in psi4, default
symmetry c1  #important for SAPT in psi4, default
}

set PROPERTIES_ORIGIN ["COM"]
properties('MP2/aug-cc-pvtz', properties = ['dipole'])
--------------------------------------------------------------------------

    Molecular point group: c1
  Charge       = 0
  Multiplicity = 1
  Basis Set: AUG-CC-PVTZ
    Blend: AUG-CC-PVTZ
  Basis Set: (AUG-CC-PVTZ AUX)
    Blend: AUG-CC-PVTZ-JKFIT

    Orbital Energies [Eh]
    ---------------------

    Doubly Occupied:

       1A    -20.597378     2A    -20.540792     3A    -11.375558
       4A    -11.286648     5A    -11.244298     6A    -11.242216
       7A    -11.228263     8A    -11.226092     9A    -11.223850
      10A    -11.219079    11A    -11.217880    12A     -1.448174
      13A     -1.347643    14A     -1.112581    15A     -1.063997
      16A     -1.022210    17A     -0.978067    18A     -0.919627
      19A     -0.878971    20A     -0.833723    21A     -0.767497
      22A     -0.722636    23A     -0.687765    24A     -0.679673
      25A     -0.660167    26A     -0.637870    27A     -0.624174
      28A     -0.605281    29A     -0.589150    30A     -0.575990
      31A     -0.552095    32A     -0.544592    33A     -0.532851
      34A     -0.522414    35A     -0.517770    36A     -0.515828
      37A     -0.512238    38A     -0.492256    39A     -0.482914
      40A     -0.463728    41A     -0.457172    42A     -0.444488
      43A     -0.346758

  @DF-RHF Final Energy:  -500.03784202422833

   => Energetics <=

    Nuclear Repulsion Energy =            603.0426556294490865
    One-Electron Energy =               -1876.2762798720441424
    Two-Electron Energy =                 773.1957822183666167
    Total Energy =                       -500.0378420242283255
  Basis Set: (AUG-CC-PVTZ AUX)
    Blend: AUG-CC-PVTZ-RI
    Molecular point group: c1

    Geometry (in Angstrom), charge = 0, multiplicity = 1:

       Center              X                  Y                   Z               Mass
    ------------   -----------------  -----------------  -----------------  -----------------
         O            1.073090571319     0.475934027063     0.013070891128    15.994914619570
         O            2.532576571319    -1.105241972937    -0.713022108872    15.994914619570
         C           -2.367910428681    -0.087749972937     0.297574891128    12.000000000000
         C           -3.603018728681     0.771693527063     0.411876091128    12.000000000000
         C           -1.261189428681     0.394847027063    -0.297243108872    12.000000000000
         C            0.009736571319    -0.330794972937    -0.563139108872    12.000000000000
         C           -2.524161328681    -1.471253872937     0.865620991128    12.000000000000
         C           -4.707630428681     0.355974027063    -0.560298108872    12.000000000000
         C            3.356031571319     0.874822027063     0.437382891128    12.000000000000
         C            2.313486571319    -0.044456972937    -0.148961108872    12.000000000000
         C            4.759506571319     0.304213027063     0.312851891128    12.000000000000
         H           -3.327654428681     1.824560027063     0.203974891128     1.007825032230
         H           -3.977533428681     0.746667027063     1.435327891128     1.007825032230
         H           -1.271623428681     1.425384027063    -0.651667108872     1.007825032230
         H            0.204505571319    -0.434831972937    -1.636483108872     1.007825032230
         H            0.048893571319    -1.330615972937    -0.126088108872     1.007825032230
         H           -2.793699428681    -1.415030972937     1.921957891128     1.007825032230
         H           -3.309224428681    -2.025230972937     0.349998891128     1.007825032230
         H           -1.599014428681    -2.067579972937     0.786588891128     1.007825032230
         H           -5.042194428681    -0.666181972937    -0.361306108872     1.007825032230
         H           -4.352131428681     0.401378027063    -1.593392108872     1.007825032230
         H           -5.576257428681     1.015300027063    -0.467637108872     1.007825032230
         H            3.269978571319     1.841305027063    -0.072033108872     1.007825032230
         H            3.088911571319     1.063353027063     1.481935891128     1.007825032230
         H            4.835406571319    -0.650938972937     0.835158891128     1.007825032230
         H            5.011861571319     0.129880027063    -0.734956108872     1.007825032230
         H            5.491981571319     0.994121027063     0.739775891128     1.007825032230

  Basis Set: AUG-CC-PVTZ
    Blend: AUG-CC-PVTZ
  Basis Set: (AUG-CC-PVTZ AUX)
    Blend: AUG-CC-PVTZ-JKFIT
	 Reference Energy          =    -500.0378420242283255 [Eh]
	 Singles Energy            =      -0.0000000000000000 [Eh]
	 Same-Spin Energy          =      -0.5097931848953697 [Eh]
	 Opposite-Spin Energy      =      -1.7169170896363966 [Eh]
	 Correlation Energy        =      -2.2267102745317664 [Eh]
	 Total Energy              =    -502.2645522987600657 [Eh]

	 ================> DF-SCS-MP2 Energies <==================
	-----------------------------------------------------------
	 SCS Same-Spin Scale       =       0.3333333333333333 [-]
	 SCS Opposite-Spin Scale   =       1.2000000000000000 [-]
	 SCS Same-Spin Energy      =      -0.1699310616317899 [Eh]
	 SCS Opposite-Spin Energy  =      -2.0603005075636758 [Eh]
	 SCS Correlation Energy    =      -2.2302315691954657 [Eh]
	 SCS Total Energy          =    -502.2680735934237646 [Eh]
	-----------------------------------------------------------

  Dipole Moment: [D]
     X:    -1.4449      Y:     1.1791      Z:     0.8338     Total:     2.0429

*** Psi4 exiting successfully. Buy a developer a beer!
