                               Psi4 1.3.2 release

  ==> Input File <==

--------------------------------------------------------------------------
#psi4
#
memory 32 gb

molecule  {
0 1
  O        1.0716460     0.4753830     0.0137820
  O        2.5311320    -1.1057930    -0.7123110
  C       -2.3693550    -0.0883010     0.2982860
  C       -3.5980660     0.7810210     0.4066790
  C       -1.2442030     0.4346194    -0.3235491
  C        0.0082920    -0.3313460    -0.5624280
  C       -2.5132090    -1.4745150     0.8629900
  C       -4.7090750     0.3554230    -0.5595870
  C        3.3545870     0.8742710     0.4380940
  C        2.3120420    -0.0450080    -0.1482500
  C        4.7580620     0.3036620     0.3135630
  H       -3.3290990     1.8240090     0.2046860
  H       -3.9789780     0.7461160     1.4360390
  H       -1.2730680     1.4248330    -0.6509560
  H        0.2030610    -0.4353830    -1.6357720
  H        0.0824423    -1.3354049    -0.1398686
  H       -2.7951440    -1.4155820     1.9226690
  H       -3.3106690    -2.0257820     0.3507100
  H       -1.6004590    -2.0681310     0.7873000
  H       -5.0436390    -0.6667330    -0.3605950
  H       -4.3535760     0.4008270    -1.5926810
  H       -5.5777020     1.0147490    -0.4669260
  H        3.2685340     1.8407540    -0.0713220
  H        3.0874670     1.0628020     1.4826470
  H        4.8339620    -0.6514900     0.8358700
  H        5.0104170     0.1293290    -0.7342450
  H        5.4905370     0.9935700     0.7404870
units angstrom
no_reorient  #important for SAPT in psi4, default
symmetry c1  #important for SAPT in psi4, default
}

set PROPERTIES_ORIGIN ["COM"]
properties('MP2/aug-cc-pvtz', properties = ['dipole'])
--------------------------------------------------------------------------

    Molecular point group: c1
  Charge       = 0
  Multiplicity = 1
  Basis Set: AUG-CC-PVTZ
    Blend: AUG-CC-PVTZ
  Basis Set: (AUG-CC-PVTZ AUX)
    Blend: AUG-CC-PVTZ-JKFIT

    Orbital Energies [Eh]
    ---------------------

    Doubly Occupied:

       1A    -20.595815     2A    -20.540438     3A    -11.374799
       4A    -11.285808     5A    -11.250775     6A    -11.241769
       7A    -11.228313     8A    -11.227851     9A    -11.224901
      10A    -11.219120    11A    -11.217590    12A     -1.447534
      13A     -1.347187    14A     -1.107910    15A     -1.063640
      16A     -1.020817    17A     -0.978686    18A     -0.917607
      19A     -0.878246    20A     -0.832078    21A     -0.767814
      22A     -0.726542    23A     -0.689063    24A     -0.678244
      25A     -0.660514    26A     -0.638246    27A     -0.622992
      28A     -0.605383    29A     -0.588357    30A     -0.573464
      31A     -0.552773    32A     -0.543826    33A     -0.534538
      34A     -0.524129    35A     -0.518716    36A     -0.514267
      37A     -0.513142    38A     -0.492020    39A     -0.482632
      40A     -0.469327    41A     -0.456757    42A     -0.443487
      43A     -0.336872

  @DF-RHF Final Energy:  -500.03248335791170

   => Energetics <=

    Nuclear Repulsion Energy =            602.5970582353198779
    One-Electron Energy =               -1875.3911072489208891
    Two-Electron Energy =                 772.7615656556894237
    Total Energy =                       -500.0324833579117012
  Basis Set: (AUG-CC-PVTZ AUX)
    Blend: AUG-CC-PVTZ-RI
    Molecular point group: c1

    Geometry (in Angstrom), charge = 0, multiplicity = 1:

       Center              X                  Y                   Z               Mass
    ------------   -----------------  -----------------  -----------------  -----------------
         O            1.070003299552     0.472310861893     0.015952188323    15.994914619570
         O            2.529489299552    -1.108865138107    -0.710140811677    15.994914619570
         C           -2.370997700448    -0.091373138107     0.300456188323    12.000000000000
         C           -3.599708700448     0.777948861893     0.408849188323    12.000000000000
         C           -1.245845700448     0.431547261893    -0.321378911677    12.000000000000
         C            0.006649299552    -0.334418138107    -0.560257811677    12.000000000000
         C           -2.514851700448    -1.477587138107     0.865160188323    12.000000000000
         C           -4.710717700448     0.352350861893    -0.557416811677    12.000000000000
         C            3.352944299552     0.871198861893     0.440264188323    12.000000000000
         C            2.310399299552    -0.048080138107    -0.146079811677    12.000000000000
         C            4.756419299552     0.300589861893     0.315733188323    12.000000000000
         H           -3.330741700448     1.820936861893     0.206856188323     1.007825032230
         H           -3.980620700448     0.743043861893     1.438209188323     1.007825032230
         H           -1.274710700448     1.421760861893    -0.648785811677     1.007825032230
         H            0.201418299552    -0.438455138107    -1.633601811677     1.007825032230
         H            0.080799599552    -1.338477038107    -0.137698411677     1.007825032230
         H           -2.796786700448    -1.418654138107     1.924839188323     1.007825032230
         H           -3.312311700448    -2.028854138107     0.352880188323     1.007825032230
         H           -1.602101700448    -2.071203138107     0.789470188323     1.007825032230
         H           -5.045281700448    -0.669805138107    -0.358424811677     1.007825032230
         H           -4.355218700448     0.397754861893    -1.590510811677     1.007825032230
         H           -5.579344700448     1.011676861893    -0.464755811677     1.007825032230
         H            3.266891299552     1.837681861893    -0.069151811677     1.007825032230
         H            3.085824299552     1.059729861893     1.484817188323     1.007825032230
         H            4.832319299552    -0.654562138107     0.838040188323     1.007825032230
         H            5.008774299552     0.126256861893    -0.732074811677     1.007825032230
         H            5.488894299552     0.990497861893     0.742657188323     1.007825032230

  Basis Set: AUG-CC-PVTZ
    Blend: AUG-CC-PVTZ
  Basis Set: (AUG-CC-PVTZ AUX)
    Blend: AUG-CC-PVTZ-JKFIT
	 Reference Energy          =    -500.0324833579117012 [Eh]
	 Singles Energy            =      -0.0000000000000000 [Eh]
	 Same-Spin Energy          =      -0.5102226009796430 [Eh]
	 Opposite-Spin Energy      =      -1.7178878874225192 [Eh]
	 Correlation Energy        =      -2.2281104884021623 [Eh]
	 Total Energy              =    -502.2605938463138386 [Eh]

	 ================> DF-SCS-MP2 Energies <==================
	-----------------------------------------------------------
	 SCS Same-Spin Scale       =       0.3333333333333333 [-]
	 SCS Opposite-Spin Scale   =       1.2000000000000000 [-]
	 SCS Same-Spin Energy      =      -0.1700742003265477 [Eh]
	 SCS Opposite-Spin Energy  =      -2.0614654649070228 [Eh]
	 SCS Correlation Energy    =      -2.2315396652335706 [Eh]
	 SCS Total Energy          =    -502.2640230231452847 [Eh]
	-----------------------------------------------------------

  Dipole Moment: [D]
     X:    -1.4536      Y:     1.1805      Z:     0.8357     Total:     2.0506

*** Psi4 exiting successfully. Buy a developer a beer!
