                               Psi4 1.3.2 release

  ==> Input File <==

--------------------------------------------------------------------------
#psi4
#
memory 32 gb

molecule  {
0 1
  O        1.0625545     0.4566802     0.0025257
  O        2.5102154    -1.1080962    -0.7157012
  C       -2.3693550    -0.0883010     0.2982860
  C       -3.5980660     0.7810210     0.4066790
  C       -1.2626340     0.3942960    -0.2965320
  C        0.0082920    -0.3313460    -0.5624280
  C       -2.5132090    -1.4745150     0.8629900
  C       -4.7090750     0.3554230    -0.5595870
  C        3.3545870     0.8742710     0.4380940
  C        2.3120420    -0.0450080    -0.1482500
  C        4.7580620     0.3036620     0.3135630
  H       -3.3290990     1.8240090     0.2046860
  H       -3.9789780     0.7461160     1.4360390
  H       -1.2730680     1.4248330    -0.6509560
  H        0.2030610    -0.4353830    -1.6357720
  H        0.0474490    -1.3311670    -0.1253770
  H       -2.7951440    -1.4155820     1.9226690
  H       -3.3106690    -2.0257820     0.3507100
  H       -1.6004590    -2.0681310     0.7873000
  H       -5.0436390    -0.6667330    -0.3605950
  H       -4.3535760     0.4008270    -1.5926810
  H       -5.5777020     1.0147490    -0.4669260
  H        3.2685340     1.8407540    -0.0713220
  H        3.0874670     1.0628020     1.4826470
  H        4.8339620    -0.6514900     0.8358700
  H        5.0104170     0.1293290    -0.7342450
  H        5.4905370     0.9935700     0.7404870
units angstrom
no_reorient  #important for SAPT in psi4, default
symmetry c1  #important for SAPT in psi4, default
}

set PROPERTIES_ORIGIN ["COM"]
properties('MP2/aug-cc-pvtz', properties = ['dipole'])
--------------------------------------------------------------------------

    Molecular point group: c1
  Charge       = 0
  Multiplicity = 1
  Basis Set: AUG-CC-PVTZ
    Blend: AUG-CC-PVTZ
  Basis Set: (AUG-CC-PVTZ AUX)
    Blend: AUG-CC-PVTZ-JKFIT

    Orbital Energies [Eh]
    ---------------------

    Doubly Occupied:

       1A    -20.594947     2A    -20.540240     3A    -11.376288
       4A    -11.283395     5A    -11.245094     6A    -11.243095
       7A    -11.227685     8A    -11.225472     9A    -11.222119
      10A    -11.219742    11A    -11.218582    12A     -1.451777
      13A     -1.347413    14A     -1.111521    15A     -1.066125
      16A     -1.021415    17A     -0.977716    18A     -0.920377
      19A     -0.879550    20A     -0.833552    21A     -0.768040
      22A     -0.723225    23A     -0.689465    24A     -0.681384
      25A     -0.660724    26A     -0.638677    27A     -0.623650
      28A     -0.606399    29A     -0.588308    30A     -0.574175
      31A     -0.551816    32A     -0.543238    33A     -0.532856
      34A     -0.524137    35A     -0.518221    36A     -0.514556
      37A     -0.511210    38A     -0.493257    39A     -0.483160
      40A     -0.464404    41A     -0.454830    42A     -0.445250
      43A     -0.345117

  @DF-RHF Final Energy:  -500.03894158426505

   => Energetics <=

    Nuclear Repulsion Energy =            603.6042882535414265
    One-Electron Energy =               -1877.4020541606662391
    Two-Electron Energy =                 773.7588243228598230
    Total Energy =                       -500.0389415842649896
  Basis Set: (AUG-CC-PVTZ AUX)
    Blend: AUG-CC-PVTZ-RI
    Molecular point group: c1

    Geometry (in Angstrom), charge = 0, multiplicity = 1:

       Center              X                  Y                   Z               Mass
    ------------   -----------------  -----------------  -----------------  -----------------
         O            1.065628937436     0.458832407788     0.004026249529    15.994914619570
         O            2.513289837436    -1.105943992212    -0.714200650471    15.994914619570
         C           -2.366280562564    -0.086148792212     0.299786549529    12.000000000000
         C           -3.594991562564     0.783173207788     0.408179549529    12.000000000000
         C           -1.259559562564     0.396448207788    -0.295031450471    12.000000000000
         C            0.011366437436    -0.329193792212    -0.560927450471    12.000000000000
         C           -2.510134562564    -1.472362792212     0.864490549529    12.000000000000
         C           -4.706000562564     0.357575207788    -0.558086450471    12.000000000000
         C            3.357661437436     0.876423207788     0.439594549529    12.000000000000
         C            2.315116437436    -0.042855792212    -0.146749450471    12.000000000000
         C            4.761136437436     0.305814207788     0.315063549529    12.000000000000
         H           -3.326024562564     1.826161207788     0.206186549529     1.007825032230
         H           -3.975903562564     0.748268207788     1.437539549529     1.007825032230
         H           -1.269993562564     1.426985207788    -0.649455450471     1.007825032230
         H            0.206135437436    -0.433230792212    -1.634271450471     1.007825032230
         H            0.050523437436    -1.329014792212    -0.123876450471     1.007825032230
         H           -2.792069562564    -1.413429792212     1.924169549529     1.007825032230
         H           -3.307594562564    -2.023629792212     0.352210549529     1.007825032230
         H           -1.597384562564    -2.065978792212     0.788800549529     1.007825032230
         H           -5.040564562564    -0.664580792212    -0.359094450471     1.007825032230
         H           -4.350501562564     0.402979207788    -1.591180450471     1.007825032230
         H           -5.574627562564     1.016901207788    -0.465425450471     1.007825032230
         H            3.271608437436     1.842906207788    -0.069821450471     1.007825032230
         H            3.090541437436     1.064954207788     1.484147549529     1.007825032230
         H            4.837036437436    -0.649337792212     0.837370549529     1.007825032230
         H            5.013491437436     0.131481207788    -0.732744450471     1.007825032230
         H            5.493611437436     0.995722207788     0.741987549529     1.007825032230

  Basis Set: AUG-CC-PVTZ
    Blend: AUG-CC-PVTZ
  Basis Set: (AUG-CC-PVTZ AUX)
    Blend: AUG-CC-PVTZ-JKFIT
	 Reference Energy          =    -500.0389415842650465 [Eh]
	 Singles Energy            =      -0.0000000000000000 [Eh]
	 Same-Spin Energy          =      -0.5095808556023436 [Eh]
	 Opposite-Spin Energy      =      -1.7161509467981024 [Eh]
	 Correlation Energy        =      -2.2257318024004462 [Eh]
	 Total Energy              =    -502.2646733866654927 [Eh]

	 ================> DF-SCS-MP2 Energies <==================
	-----------------------------------------------------------
	 SCS Same-Spin Scale       =       0.3333333333333333 [-]
	 SCS Opposite-Spin Scale   =       1.2000000000000000 [-]
	 SCS Same-Spin Energy      =      -0.1698602852007812 [Eh]
	 SCS Opposite-Spin Energy  =      -2.0593811361577230 [Eh]
	 SCS Correlation Energy    =      -2.2292414213585041 [Eh]
	 SCS Total Energy          =    -502.2681830056235412 [Eh]
	-----------------------------------------------------------

  Dipole Moment: [D]
     X:    -1.2764      Y:     1.2443      Z:     0.8762     Total:     1.9863

*** Psi4 exiting successfully. Buy a developer a beer!
