                               Psi4 1.3.2 release

  ==> Input File <==

--------------------------------------------------------------------------
#psi4
#
memory 32 gb

molecule  {
0 1
  O        1.0716460     0.4753830     0.0137820
  O        2.5311320    -1.1057930    -0.7123110
  C       -2.3693550    -0.0883010     0.2982860
  C       -3.5980660     0.7810210     0.4066790
  C       -1.2626340     0.3942960    -0.2965320
  C        0.0082920    -0.3313460    -0.5624280
  C       -2.5132090    -1.4745150     0.8629900
  C       -4.7090750     0.3554230    -0.5595870
  C        3.3545870     0.8742710     0.4380940
  C        2.3120420    -0.0450080    -0.1482500
  C        4.9427120     0.2285891     0.2971789
  H       -3.3290990     1.8240090     0.2046860
  H       -3.9789780     0.7461160     1.4360390
  H       -1.2730680     1.4248330    -0.6509560
  H        0.2030610    -0.4353830    -1.6357720
  H        0.0474490    -1.3311670    -0.1253770
  H       -2.7951440    -1.4155820     1.9226690
  H       -3.3106690    -2.0257820     0.3507100
  H       -1.6004590    -2.0681310     0.7873000
  H       -5.0436390    -0.6667330    -0.3605950
  H       -4.3535760     0.4008270    -1.5926810
  H       -5.5777020     1.0147490    -0.4669260
  H        3.2685340     1.8407540    -0.0713220
  H        3.0874670     1.0628020     1.4826470
  H        4.8339620    -0.6514900     0.8358700
  H        5.0104170     0.1293290    -0.7342450
  H        5.4905370     0.9935700     0.7404870
units angstrom
no_reorient  #important for SAPT in psi4, default
symmetry c1  #important for SAPT in psi4, default
}

set PROPERTIES_ORIGIN ["COM"]
properties('MP2/aug-cc-pvtz', properties = ['dipole'])
--------------------------------------------------------------------------

    Molecular point group: c1
  Charge       = 0
  Multiplicity = 1
  Basis Set: AUG-CC-PVTZ
    Blend: AUG-CC-PVTZ
  Basis Set: (AUG-CC-PVTZ AUX)
    Blend: AUG-CC-PVTZ-JKFIT

    Orbital Energies [Eh]
    ---------------------

    Doubly Occupied:

       1A    -20.596478     2A    -20.539119     3A    -11.374808
       4A    -11.285856     5A    -11.246294     6A    -11.243854
       7A    -11.228132     8A    -11.226101     9A    -11.222905
      10A    -11.218971    11A    -11.218836    12A     -1.446951
      13A     -1.346186    14A     -1.111985    15A     -1.045606
      16A     -1.015210    17A     -0.976520    18A     -0.923228
      19A     -0.888223    20A     -0.834459    21A     -0.766627
      22A     -0.720736    23A     -0.683889    24A     -0.678535
      25A     -0.656854    26A     -0.636366    27A     -0.623436
      28A     -0.607244    29A     -0.591646    30A     -0.576383
      31A     -0.560842    32A     -0.554215    33A     -0.542550
      34A     -0.531303    35A     -0.519770    36A     -0.513813
      37A     -0.502232    38A     -0.483906    39A     -0.466009
      40A     -0.456863    41A     -0.453500    42A     -0.443242
      43A     -0.345581

  @DF-RHF Final Energy:  -500.01151983546629

   => Energetics <=

    Nuclear Repulsion Energy =            600.1723018243327488
    One-Electron Energy =               -1870.5571161372317874
    Two-Electron Energy =                 770.3732944774326370
    Total Energy =                       -500.0115198354662880
  Basis Set: (AUG-CC-PVTZ AUX)
    Blend: AUG-CC-PVTZ-RI
    Molecular point group: c1

    Geometry (in Angstrom), charge = 0, multiplicity = 1:

       Center              X                  Y                   Z               Mass
    ------------   -----------------  -----------------  -----------------  -----------------
         O            1.057452548485     0.481153601381     0.015041315119    15.994914619570
         O            2.516938548485    -1.100022398619    -0.711051684881    15.994914619570
         C           -2.383548451515    -0.082530398619     0.299545315119    12.000000000000
         C           -3.612259451515     0.786791601381     0.407938315119    12.000000000000
         C           -1.276827451515     0.400066601381    -0.295272684881    12.000000000000
         C           -0.005901451515    -0.325575398619    -0.561168684881    12.000000000000
         C           -2.527402451515    -1.468744398619     0.864249315119    12.000000000000
         C           -4.723268451515     0.361193601381    -0.558327684881    12.000000000000
         C            3.340393548485     0.880041601381     0.439353315119    12.000000000000
         C            2.297848548485    -0.039237398619    -0.146990684881    12.000000000000
         C            4.928518548485     0.234359701381     0.298438215119    12.000000000000
         H           -3.343292451515     1.829779601381     0.205945315119     1.007825032230
         H           -3.993171451515     0.751886601381     1.437298315119     1.007825032230
         H           -1.287261451515     1.430603601381    -0.649696684881     1.007825032230
         H            0.188867548485    -0.429612398619    -1.634512684881     1.007825032230
         H            0.033255548485    -1.325396398619    -0.124117684881     1.007825032230
         H           -2.809337451515    -1.409811398619     1.923928315119     1.007825032230
         H           -3.324862451515    -2.020011398619     0.351969315119     1.007825032230
         H           -1.614652451515    -2.062360398619     0.788559315119     1.007825032230
         H           -5.057832451515    -0.660962398619    -0.359335684881     1.007825032230
         H           -4.367769451515     0.406597601381    -1.591421684881     1.007825032230
         H           -5.591895451515     1.020519601381    -0.465666684881     1.007825032230
         H            3.254340548485     1.846524601381    -0.070062684881     1.007825032230
         H            3.073273548485     1.068572601381     1.483906315119     1.007825032230
         H            4.819768548485    -0.645719398619     0.837129315119     1.007825032230
         H            4.996223548485     0.135099601381    -0.732985684881     1.007825032230
         H            5.476343548485     0.999340601381     0.741746315119     1.007825032230

  Basis Set: AUG-CC-PVTZ
    Blend: AUG-CC-PVTZ
  Basis Set: (AUG-CC-PVTZ AUX)
    Blend: AUG-CC-PVTZ-JKFIT
	 Reference Energy          =    -500.0115198354662880 [Eh]
	 Singles Energy            =      -0.0000000000000000 [Eh]
	 Same-Spin Energy          =      -0.5096465009572229 [Eh]
	 Opposite-Spin Energy      =      -1.7178711713475214 [Eh]
	 Correlation Energy        =      -2.2275176723047441 [Eh]
	 Total Energy              =    -502.2390375077710587 [Eh]

	 ================> DF-SCS-MP2 Energies <==================
	-----------------------------------------------------------
	 SCS Same-Spin Scale       =       0.3333333333333333 [-]
	 SCS Opposite-Spin Scale   =       1.2000000000000000 [-]
	 SCS Same-Spin Energy      =      -0.1698821669857409 [Eh]
	 SCS Opposite-Spin Energy  =      -2.0614454056170257 [Eh]
	 SCS Correlation Energy    =      -2.2313275726027668 [Eh]
	 SCS Total Energy          =    -502.2428474080690535 [Eh]
	-----------------------------------------------------------

  Dipole Moment: [D]
     X:    -1.4376      Y:     1.1982      Z:     0.8421     Total:     2.0522

*** Psi4 exiting successfully. Buy a developer a beer!
