                               Psi4 1.3.2 release

  ==> Input File <==

--------------------------------------------------------------------------
#psi4
#
memory 32 gb

molecule  {
0 1
  O        1.0716460     0.4753830     0.0137820
  O        2.5311320    -1.1057930    -0.7123110
  C       -2.3693550    -0.0883010     0.2982860
  C       -3.5980660     0.7810210     0.4066790
  C       -1.2626340     0.3942960    -0.2965320
  C        0.0082920    -0.3313460    -0.5624280
  C       -2.5132090    -1.4745150     0.8629900
  C       -4.7090750     0.3554230    -0.5595870
  C        3.3545870     0.8742710     0.4380940
  C        2.3120420    -0.0450080    -0.1482500
  C        4.7580620     0.3036620     0.3135630
  H       -3.3290990     1.8240090     0.2046860
  H       -3.9789780     0.7461160     1.4360390
  H       -1.2730680     1.4248330    -0.6509560
  H        0.2030610    -0.4353830    -1.6357720
  H        0.0402766    -1.1480285    -0.2054322
  H       -2.7951440    -1.4155820     1.9226690
  H       -3.3106690    -2.0257820     0.3507100
  H       -1.6004590    -2.0681310     0.7873000
  H       -5.0436390    -0.6667330    -0.3605950
  H       -4.3535760     0.4008270    -1.5926810
  H       -5.5777020     1.0147490    -0.4669260
  H        3.2685340     1.8407540    -0.0713220
  H        3.0874670     1.0628020     1.4826470
  H        4.8339620    -0.6514900     0.8358700
  H        5.0104170     0.1293290    -0.7342450
  H        5.4905370     0.9935700     0.7404870
units angstrom
no_reorient  #important for SAPT in psi4, default
symmetry c1  #important for SAPT in psi4, default
}

set PROPERTIES_ORIGIN ["COM"]
properties('MP2/aug-cc-pvtz', properties = ['dipole'])
--------------------------------------------------------------------------

    Molecular point group: c1
  Charge       = 0
  Multiplicity = 1
  Basis Set: AUG-CC-PVTZ
    Blend: AUG-CC-PVTZ
  Basis Set: (AUG-CC-PVTZ AUX)
    Blend: AUG-CC-PVTZ-JKFIT

    Orbital Energies [Eh]
    ---------------------

    Doubly Occupied:

       1A    -20.595592     2A    -20.540780     3A    -11.375499
       4A    -11.263473     5A    -11.244011     6A    -11.242013
       7A    -11.228345     8A    -11.227388     9A    -11.222607
      10A    -11.219200    11A    -11.217754    12A     -1.447985
      13A     -1.347617    14A     -1.114365    15A     -1.065629
      16A     -1.027808    17A     -0.982257    18A     -0.923316
      19A     -0.883432    20A     -0.840718    21A     -0.779634
      22A     -0.727455    23A     -0.688773    24A     -0.685122
      25A     -0.660754    26A     -0.639090    27A     -0.624289
      28A     -0.609751    29A     -0.588547    30A     -0.574571
      31A     -0.557960    32A     -0.545963    33A     -0.537821
      34A     -0.522058    35A     -0.518560    36A     -0.516020
      37A     -0.513991    38A     -0.493689    39A     -0.483910
      40A     -0.467244    41A     -0.460158    42A     -0.444808
      43A     -0.345981

  @DF-RHF Final Energy:  -500.00545749361760

   => Energetics <=

    Nuclear Repulsion Energy =            604.1419822457579585
    One-Electron Energy =               -1878.3030013570537449
    Two-Electron Energy =                 774.1555616176783587
    Total Energy =                       -500.0054574936175413
  Basis Set: (AUG-CC-PVTZ AUX)
    Blend: AUG-CC-PVTZ-RI
    Molecular point group: c1

    Geometry (in Angstrom), charge = 0, multiplicity = 1:

       Center              X                  Y                   Z               Mass
    ------------   -----------------  -----------------  -----------------  -----------------
         O            1.071692231415     0.474200738698     0.014298737254    15.994914619570
         O            2.531178231415    -1.106975261302    -0.711794262746    15.994914619570
         C           -2.369308768585    -0.089483261302     0.298802737254    12.000000000000
         C           -3.598019768585     0.779838738698     0.407195737254    12.000000000000
         C           -1.262587768585     0.393113738698    -0.296015262746    12.000000000000
         C            0.008338231415    -0.332528261302    -0.561911262746    12.000000000000
         C           -2.513162768585    -1.475697261302     0.863506737254    12.000000000000
         C           -4.709028768585     0.354240738698    -0.559070262746    12.000000000000
         C            3.354633231415     0.873088738698     0.438610737254    12.000000000000
         C            2.312088231415    -0.046190261302    -0.147733262746    12.000000000000
         C            4.758108231415     0.302479738698     0.314079737254    12.000000000000
         H           -3.329052768585     1.822826738698     0.205202737254     1.007825032230
         H           -3.978931768585     0.744933738698     1.436555737254     1.007825032230
         H           -1.273021768585     1.423650738698    -0.650439262746     1.007825032230
         H            0.203107231415    -0.436565261302    -1.635255262746     1.007825032230
         H            0.040322831415    -1.149210761302    -0.204915462746     1.007825032230
         H           -2.795097768585    -1.416764261302     1.923185737254     1.007825032230
         H           -3.310622768585    -2.026964261302     0.351226737254     1.007825032230
         H           -1.600412768585    -2.069313261302     0.787816737254     1.007825032230
         H           -5.043592768585    -0.667915261302    -0.360078262746     1.007825032230
         H           -4.353529768585     0.399644738698    -1.592164262746     1.007825032230
         H           -5.577655768585     1.013566738698    -0.466409262746     1.007825032230
         H            3.268580231415     1.839571738698    -0.070805262746     1.007825032230
         H            3.087513231415     1.061619738698     1.483163737254     1.007825032230
         H            4.834008231415    -0.652672261302     0.836386737254     1.007825032230
         H            5.010463231415     0.128146738698    -0.733728262746     1.007825032230
         H            5.490583231415     0.992387738698     0.741003737254     1.007825032230

  Basis Set: AUG-CC-PVTZ
    Blend: AUG-CC-PVTZ
  Basis Set: (AUG-CC-PVTZ AUX)
    Blend: AUG-CC-PVTZ-JKFIT
	 Reference Energy          =    -500.0054574936175982 [Eh]
	 Singles Energy            =      -0.0000000000000000 [Eh]
	 Same-Spin Energy          =      -0.5091947247901905 [Eh]
	 Opposite-Spin Energy      =      -1.7154888138116364 [Eh]
	 Correlation Energy        =      -2.2246835386018269 [Eh]
	 Total Energy              =    -502.2301410322194215 [Eh]

	 ================> DF-SCS-MP2 Energies <==================
	-----------------------------------------------------------
	 SCS Same-Spin Scale       =       0.3333333333333333 [-]
	 SCS Opposite-Spin Scale   =       1.2000000000000000 [-]
	 SCS Same-Spin Energy      =      -0.1697315749300635 [Eh]
	 SCS Opposite-Spin Energy  =      -2.0585865765739637 [Eh]
	 SCS Correlation Energy    =      -2.2283181515040273 [Eh]
	 SCS Total Energy          =    -502.2337756451216251 [Eh]
	-----------------------------------------------------------

  Dipole Moment: [D]
     X:    -1.4715      Y:     1.1417      Z:     0.8399     Total:     2.0431

*** Psi4 exiting successfully. Buy a developer a beer!
