                               Psi4 1.3.2 release

  ==> Input File <==

--------------------------------------------------------------------------
#psi4
#
memory 32 gb

molecule  {
0 1
  O        1.0625207     0.4564913     0.0028738
  O        2.5311320    -1.1057930    -0.7123110
  C       -2.3693550    -0.0883010     0.2982860
  C       -3.5980660     0.7810210     0.4066790
  C       -1.2626340     0.3942960    -0.2965320
  C        0.0082920    -0.3313460    -0.5624280
  C       -2.5132090    -1.4745150     0.8629900
  C       -4.7090750     0.3554230    -0.5595870
  C        3.3733357     0.8572898     0.4307902
  C        2.3120420    -0.0450080    -0.1482500
  C        4.7580620     0.3036620     0.3135630
  H       -3.3290990     1.8240090     0.2046860
  H       -3.9789780     0.7461160     1.4360390
  H       -1.2730680     1.4248330    -0.6509560
  H        0.2030610    -0.4353830    -1.6357720
  H        0.0474490    -1.3311670    -0.1253770
  H       -2.7951440    -1.4155820     1.9226690
  H       -3.3106690    -2.0257820     0.3507100
  H       -1.6004590    -2.0681310     0.7873000
  H       -5.0436390    -0.6667330    -0.3605950
  H       -4.3535760     0.4008270    -1.5926810
  H       -5.5777020     1.0147490    -0.4669260
  H        3.2685340     1.8407540    -0.0713220
  H        3.0874670     1.0628020     1.4826470
  H        4.8339620    -0.6514900     0.8358700
  H        5.0104170     0.1293290    -0.7342450
  H        5.4905370     0.9935700     0.7404870
units angstrom
no_reorient  #important for SAPT in psi4, default
symmetry c1  #important for SAPT in psi4, default
}

set PROPERTIES_ORIGIN ["COM"]
properties('MP2/aug-cc-pvtz', properties = ['dipole'])
--------------------------------------------------------------------------

    Molecular point group: c1
  Charge       = 0
  Multiplicity = 1
  Basis Set: AUG-CC-PVTZ
    Blend: AUG-CC-PVTZ
  Basis Set: (AUG-CC-PVTZ AUX)
    Blend: AUG-CC-PVTZ-JKFIT

    Orbital Energies [Eh]
    ---------------------

    Doubly Occupied:

       1A    -20.596742     2A    -20.539684     3A    -11.376106
       4A    -11.284494     5A    -11.245300     6A    -11.243696
       7A    -11.228056     8A    -11.225883     9A    -11.222681
      10A    -11.218890    11A    -11.218037    12A     -1.451590
      13A     -1.348667    14A     -1.111996    15A     -1.067653
      16A     -1.022557    17A     -0.978465    18A     -0.920920
      19A     -0.879155    20A     -0.833624    21A     -0.768040
      22A     -0.722946    23A     -0.689739    24A     -0.681599
      25A     -0.660557    26A     -0.637873    27A     -0.623922
      28A     -0.606083    29A     -0.588925    30A     -0.574879
      31A     -0.552642    32A     -0.544602    33A     -0.533737
      34A     -0.529456    35A     -0.516627    36A     -0.515142
      37A     -0.511312    38A     -0.487636    39A     -0.483514
      40A     -0.464959    41A     -0.455451    42A     -0.443908
      43A     -0.345707

  @DF-RHF Final Energy:  -500.03816752089921

   => Energetics <=

    Nuclear Repulsion Energy =            603.5659264358182554
    One-Electron Energy =               -1877.3012842711016219
    Two-Electron Energy =                 773.6971903143842155
    Total Energy =                       -500.0381675208991510
  Basis Set: (AUG-CC-PVTZ AUX)
    Blend: AUG-CC-PVTZ-RI
    Molecular point group: c1

    Geometry (in Angstrom), charge = 0, multiplicity = 1:

       Center              X                  Y                   Z               Mass
    ------------   -----------------  -----------------  -----------------  -----------------
         O            1.062014425163     0.459732168837     0.004552755226    15.994914619570
         O            2.530625725163    -1.102552131163    -0.710632044774    15.994914619570
         C           -2.369861274837    -0.085060131163     0.299964955226    12.000000000000
         C           -3.598572274837     0.784261868837     0.408357955226    12.000000000000
         C           -1.263140274837     0.397536868837    -0.294853044774    12.000000000000
         C            0.007785725163    -0.328105131163    -0.560749044774    12.000000000000
         C           -2.513715274837    -1.471274131163     0.864668955226    12.000000000000
         C           -4.709581274837     0.358663868837    -0.557908044774    12.000000000000
         C            3.372829425163     0.860530668837     0.432469155226    12.000000000000
         C            2.311535725163    -0.041767131163    -0.146571044774    12.000000000000
         C            4.757555725163     0.306902868837     0.315241955226    12.000000000000
         H           -3.329605274837     1.827249868837     0.206364955226     1.007825032230
         H           -3.979484274837     0.749356868837     1.437717955226     1.007825032230
         H           -1.273574274837     1.428073868837    -0.649277044774     1.007825032230
         H            0.202554725163    -0.432142131163    -1.634093044774     1.007825032230
         H            0.046942725163    -1.327926131163    -0.123698044774     1.007825032230
         H           -2.795650274837    -1.412341131163     1.924347955226     1.007825032230
         H           -3.311175274837    -2.022541131163     0.352388955226     1.007825032230
         H           -1.600965274837    -2.064890131163     0.788978955226     1.007825032230
         H           -5.044145274837    -0.663492131163    -0.358916044774     1.007825032230
         H           -4.354082274837     0.404067868837    -1.591002044774     1.007825032230
         H           -5.578208274837     1.017989868837    -0.465247044774     1.007825032230
         H            3.268027725163     1.843994868837    -0.069643044774     1.007825032230
         H            3.086960725163     1.066042868837     1.484325955226     1.007825032230
         H            4.833455725163    -0.648249131163     0.837548955226     1.007825032230
         H            5.009910725163     0.132569868837    -0.732566044774     1.007825032230
         H            5.490030725163     0.996810868837     0.742165955226     1.007825032230

  Basis Set: AUG-CC-PVTZ
    Blend: AUG-CC-PVTZ
  Basis Set: (AUG-CC-PVTZ AUX)
    Blend: AUG-CC-PVTZ-JKFIT
	 Reference Energy          =    -500.0381675208992078 [Eh]
	 Singles Energy            =      -0.0000000000000000 [Eh]
	 Same-Spin Energy          =      -0.5097035631267628 [Eh]
	 Opposite-Spin Energy      =      -1.7162307629325906 [Eh]
	 Correlation Energy        =      -2.2259343260593534 [Eh]
	 Total Energy              =    -502.2641018469585674 [Eh]

	 ================> DF-SCS-MP2 Energies <==================
	-----------------------------------------------------------
	 SCS Same-Spin Scale       =       0.3333333333333333 [-]
	 SCS Opposite-Spin Scale   =       1.2000000000000000 [-]
	 SCS Same-Spin Energy      =      -0.1699011877089209 [Eh]
	 SCS Opposite-Spin Energy  =      -2.0594769155191086 [Eh]
	 SCS Correlation Energy    =      -2.2293781032280293 [Eh]
	 SCS Total Energy          =    -502.2675456241272514 [Eh]
	-----------------------------------------------------------

  Dipole Moment: [D]
     X:    -1.3443      Y:     1.2302      Z:     0.8658     Total:     2.0175

*** Psi4 exiting successfully. Buy a developer a beer!
