                               Psi4 1.3.2 release

  ==> Input File <==

--------------------------------------------------------------------------
#psi4
#
memory 32 gb

molecule  {
0 1
  O        1.0716460     0.4753830     0.0137820
  O        2.5311320    -1.1057930    -0.7123110
  C       -2.4144908    -0.1507032     0.3159036
  C       -3.5980660     0.7810210     0.4066790
  C       -1.2626340     0.3942960    -0.2965320
  C        0.0082920    -0.3313460    -0.5624280
  C       -2.5132090    -1.4745150     0.8629900
  C       -4.7090750     0.3554230    -0.5595870
  C        3.3545870     0.8742710     0.4380940
  C        2.3120420    -0.0450080    -0.1482500
  C        4.7580620     0.3036620     0.3135630
  H       -3.3840429     1.8382288     0.2130965
  H       -3.9789780     0.7461160     1.4360390
  H       -1.2730680     1.4248330    -0.6509560
  H        0.2030610    -0.4353830    -1.6357720
  H        0.0474490    -1.3311670    -0.1253770
  H       -2.7951440    -1.4155820     1.9226690
  H       -3.3106690    -2.0257820     0.3507100
  H       -1.6004590    -2.0681310     0.7873000
  H       -5.0436390    -0.6667330    -0.3605950
  H       -4.3535760     0.4008270    -1.5926810
  H       -5.5777020     1.0147490    -0.4669260
  H        3.2685340     1.8407540    -0.0713220
  H        3.0874670     1.0628020     1.4826470
  H        4.8339620    -0.6514900     0.8358700
  H        5.0104170     0.1293290    -0.7342450
  H        5.4905370     0.9935700     0.7404870
units angstrom
no_reorient  #important for SAPT in psi4, default
symmetry c1  #important for SAPT in psi4, default
}

set PROPERTIES_ORIGIN ["COM"]
properties('MP2/aug-cc-pvtz', properties = ['dipole'])
--------------------------------------------------------------------------

    Molecular point group: c1
  Charge       = 0
  Multiplicity = 1
  Basis Set: AUG-CC-PVTZ
    Blend: AUG-CC-PVTZ
  Basis Set: (AUG-CC-PVTZ AUX)
    Blend: AUG-CC-PVTZ-JKFIT

    Orbital Energies [Eh]
    ---------------------

    Doubly Occupied:

       1A    -20.595990     2A    -20.539910     3A    -11.374604
       4A    -11.284754     5A    -11.252069     6A    -11.241574
       7A    -11.230054     8A    -11.229562     9A    -11.225943
      10A    -11.218511    11A    -11.217409    12A     -1.447009
      13A     -1.346622    14A     -1.112985    15A     -1.063753
      16A     -1.019827    17A     -0.988777    18A     -0.913067
      19A     -0.877626    20A     -0.827741    21A     -0.766296
      22A     -0.725821    23A     -0.688466    24A     -0.681077
      25A     -0.658852    26A     -0.640437    27A     -0.621812
      28A     -0.607111    29A     -0.590640    30A     -0.575452
      31A     -0.561255    32A     -0.542723    33A     -0.534237
      34A     -0.521549    35A     -0.517100    36A     -0.512623
      37A     -0.510928    38A     -0.491801    39A     -0.487888
      40A     -0.466622    41A     -0.456404    42A     -0.443100
      43A     -0.328667

  @DF-RHF Final Energy:  -500.02509812817470

   => Energetics <=

    Nuclear Repulsion Energy =            602.6746800606134684
    One-Electron Energy =               -1875.5222546657432758
    Two-Electron Energy =                 772.8224764769552166
    Total Energy =                       -500.0250981281747045
  Basis Set: (AUG-CC-PVTZ AUX)
    Blend: AUG-CC-PVTZ-RI
    Molecular point group: c1

    Geometry (in Angstrom), charge = 0, multiplicity = 1:

       Center              X                  Y                   Z               Mass
    ------------   -----------------  -----------------  -----------------  -----------------
         O            1.075470054181     0.480087852166     0.012373431617    15.994914619570
         O            2.534956054181    -1.101088147834    -0.713719568383    15.994914619570
         C           -2.410666745819    -0.145998347834     0.314495031617    12.000000000000
         C           -3.594241945819     0.785725852166     0.405270431617    12.000000000000
         C           -1.258809945819     0.399000852166    -0.297940568383    12.000000000000
         C            0.012116054181    -0.326641147834    -0.563836568383    12.000000000000
         C           -2.509384945819    -1.469810147834     0.861581431617    12.000000000000
         C           -4.705250945819     0.360127852166    -0.560995568383    12.000000000000
         C            3.358411054181     0.878975852166     0.436685431617    12.000000000000
         C            2.315866054181    -0.040303147834    -0.149658568383    12.000000000000
         C            4.761886054181     0.308366852166     0.312154431617    12.000000000000
         H           -3.380218845819     1.842933652166     0.211687931617     1.007825032230
         H           -3.975153945819     0.750820852166     1.434630431617     1.007825032230
         H           -1.269243945819     1.429537852166    -0.652364568383     1.007825032230
         H            0.206885054181    -0.430678147834    -1.637180568383     1.007825032230
         H            0.051273054181    -1.326462147834    -0.126785568383     1.007825032230
         H           -2.791319945819    -1.410877147834     1.921260431617     1.007825032230
         H           -3.306844945819    -2.021077147834     0.349301431617     1.007825032230
         H           -1.596634945819    -2.063426147834     0.785891431617     1.007825032230
         H           -5.039814945819    -0.662028147834    -0.362003568383     1.007825032230
         H           -4.349751945819     0.405531852166    -1.594089568383     1.007825032230
         H           -5.573877945819     1.019453852166    -0.468334568383     1.007825032230
         H            3.272358054181     1.845458852166    -0.072730568383     1.007825032230
         H            3.091291054181     1.067506852166     1.481238431617     1.007825032230
         H            4.837786054181    -0.646785147834     0.834461431617     1.007825032230
         H            5.014241054181     0.134033852166    -0.735653568383     1.007825032230
         H            5.494361054181     0.998274852166     0.739078431617     1.007825032230

  Basis Set: AUG-CC-PVTZ
    Blend: AUG-CC-PVTZ
  Basis Set: (AUG-CC-PVTZ AUX)
    Blend: AUG-CC-PVTZ-JKFIT
	 Reference Energy          =    -500.0250981281747045 [Eh]
	 Singles Energy            =      -0.0000000000000000 [Eh]
	 Same-Spin Energy          =      -0.5113744381935832 [Eh]
	 Opposite-Spin Energy      =      -1.7194441477028739 [Eh]
	 Correlation Energy        =      -2.2308185858964569 [Eh]
	 Total Energy              =    -502.2559167140711338 [Eh]

	 ================> DF-SCS-MP2 Energies <==================
	-----------------------------------------------------------
	 SCS Same-Spin Scale       =       0.3333333333333333 [-]
	 SCS Opposite-Spin Scale   =       1.2000000000000000 [-]
	 SCS Same-Spin Energy      =      -0.1704581460645277 [Eh]
	 SCS Opposite-Spin Energy  =      -2.0633329772434488 [Eh]
	 SCS Correlation Energy    =      -2.2337911233079764 [Eh]
	 SCS Total Energy          =    -502.2588892514826853 [Eh]
	-----------------------------------------------------------

  Dipole Moment: [D]
     X:    -1.5105      Y:     1.1389      Z:     0.8986     Total:     2.0943

*** Psi4 exiting successfully. Buy a developer a beer!
