                               Psi4 1.3.2 release

  ==> Input File <==

--------------------------------------------------------------------------
#psi4
#
memory 32 gb

molecule  {
0 1
  O        1.0455159     0.4188219    -0.0201213
  O        2.4682074    -1.1117306    -0.7219620
  C       -2.3693550    -0.0883010     0.2982860
  C       -3.5980660     0.7810210     0.4066790
  C       -1.2626340     0.3942960    -0.2965320
  C        0.0082920    -0.3313460    -0.5624280
  C       -2.5132090    -1.4745150     0.8629900
  C       -4.7090750     0.3554230    -0.5595870
  C        3.3545870     0.8742710     0.4380940
  C        2.3120420    -0.0450080    -0.1482500
  C        4.7580620     0.3036620     0.3135630
  H       -3.3290990     1.8240090     0.2046860
  H       -3.9789780     0.7461160     1.4360390
  H       -1.2730680     1.4248330    -0.6509560
  H        0.2030610    -0.4353830    -1.6357720
  H        0.0474490    -1.3311670    -0.1253770
  H       -2.7951440    -1.4155820     1.9226690
  H       -3.3106690    -2.0257820     0.3507100
  H       -1.6004590    -2.0681310     0.7873000
  H       -5.0436390    -0.6667330    -0.3605950
  H       -4.3535760     0.4008270    -1.5926810
  H       -5.5777020     1.0147490    -0.4669260
  H        3.2685340     1.8407540    -0.0713220
  H        3.0874670     1.0628020     1.4826470
  H        4.8339620    -0.6514900     0.8358700
  H        5.0104170     0.1293290    -0.7342450
  H        5.4905370     0.9935700     0.7404870
units angstrom
no_reorient  #important for SAPT in psi4, default
symmetry c1  #important for SAPT in psi4, default
}

set PROPERTIES_ORIGIN ["COM"]
properties('MP2/aug-cc-pvtz', properties = ['dipole'])
--------------------------------------------------------------------------

    Molecular point group: c1
  Charge       = 0
  Multiplicity = 1
  Basis Set: AUG-CC-PVTZ
    Blend: AUG-CC-PVTZ
  Basis Set: (AUG-CC-PVTZ AUX)
    Blend: AUG-CC-PVTZ-JKFIT

    Orbital Energies [Eh]
    ---------------------

    Doubly Occupied:

       1A    -20.589723     2A    -20.539079     3A    -11.378055
       4A    -11.277315     5A    -11.250822     6A    -11.240779
       7A    -11.226227     8A    -11.223603     9A    -11.223450
      10A    -11.219786    11A    -11.217331    12A     -1.459779
      13A     -1.347145    14A     -1.109577    15A     -1.070532
      16A     -1.020719    17A     -0.977423    18A     -0.921953
      19A     -0.880347    20A     -0.834073    21A     -0.768714
      22A     -0.724647    23A     -0.692913    24A     -0.684401
      25A     -0.661612    26A     -0.639018    27A     -0.623854
      28A     -0.608553    29A     -0.589046    30A     -0.573395
      31A     -0.549985    32A     -0.541650    33A     -0.531690
      34A     -0.528057    35A     -0.519278    36A     -0.513883
      37A     -0.509138    38A     -0.494762    39A     -0.481564
      40A     -0.461692    41A     -0.449641    42A     -0.445159
      43A     -0.343085

  @DF-RHF Final Energy:  -500.03626441475160

   => Energetics <=

    Nuclear Repulsion Energy =            604.7056662680857926
    One-Electron Energy =               -1879.5969537968298937
    Two-Electron Energy =                 774.8550231139926154
    Total Energy =                       -500.0362644147515994
  Basis Set: (AUG-CC-PVTZ AUX)
    Blend: AUG-CC-PVTZ-RI
    Molecular point group: c1

    Geometry (in Angstrom), charge = 0, multiplicity = 1:

       Center              X                  Y                   Z               Mass
    ------------   -----------------  -----------------  -----------------  -----------------
         O            1.054640013288     0.425225282033    -0.015658974187    15.994914619570
         O            2.477331513288    -1.105327217967    -0.717499674187    15.994914619570
         C           -2.360230886712    -0.081897617967     0.302748325813    12.000000000000
         C           -3.588941886712     0.787424382033     0.411141325813    12.000000000000
         C           -1.253509886712     0.400699382033    -0.292069674187    12.000000000000
         C            0.017416113288    -0.324942617967    -0.557965674187    12.000000000000
         C           -2.504084886712    -1.468111617967     0.867452325813    12.000000000000
         C           -4.699950886712     0.361826382033    -0.555124674187    12.000000000000
         C            3.363711113288     0.880674382033     0.442556325813    12.000000000000
         C            2.321166113288    -0.038604617967    -0.143787674187    12.000000000000
         C            4.767186113288     0.310065382033     0.318025325813    12.000000000000
         H           -3.319974886712     1.830412382033     0.209148325813     1.007825032230
         H           -3.969853886712     0.752519382033     1.440501325813     1.007825032230
         H           -1.263943886712     1.431236382033    -0.646493674187     1.007825032230
         H            0.212185113288    -0.428979617967    -1.631309674187     1.007825032230
         H            0.056573113288    -1.324763617967    -0.120914674187     1.007825032230
         H           -2.786019886712    -1.409178617967     1.927131325813     1.007825032230
         H           -3.301544886712    -2.019378617967     0.355172325813     1.007825032230
         H           -1.591334886712    -2.061727617967     0.791762325813     1.007825032230
         H           -5.034514886712    -0.660329617967    -0.356132674187     1.007825032230
         H           -4.344451886712     0.407230382033    -1.588218674187     1.007825032230
         H           -5.568577886712     1.021152382033    -0.462463674187     1.007825032230
         H            3.277658113288     1.847157382033    -0.066859674187     1.007825032230
         H            3.096591113288     1.069205382033     1.487109325813     1.007825032230
         H            4.843086113288    -0.645086617967     0.840332325813     1.007825032230
         H            5.019541113288     0.135732382033    -0.729782674187     1.007825032230
         H            5.499661113288     0.999973382033     0.744949325813     1.007825032230

  Basis Set: AUG-CC-PVTZ
    Blend: AUG-CC-PVTZ
  Basis Set: (AUG-CC-PVTZ AUX)
    Blend: AUG-CC-PVTZ-JKFIT
	 Reference Energy          =    -500.0362644147515994 [Eh]
	 Singles Energy            =      -0.0000000000000000 [Eh]
	 Same-Spin Energy          =      -0.5093795038128901 [Eh]
	 Opposite-Spin Energy      =      -1.7150797485673333 [Eh]
	 Correlation Energy        =      -2.2244592523802234 [Eh]
	 Total Energy              =    -502.2607236671317992 [Eh]

	 ================> DF-SCS-MP2 Energies <==================
	-----------------------------------------------------------
	 SCS Same-Spin Scale       =       0.3333333333333333 [-]
	 SCS Opposite-Spin Scale   =       1.2000000000000000 [-]
	 SCS Same-Spin Energy      =      -0.1697931679376300 [Eh]
	 SCS Opposite-Spin Energy  =      -2.0580956982807996 [Eh]
	 SCS Correlation Energy    =      -2.2278888662184295 [Eh]
	 SCS Total Energy          =    -502.2641532809700493 [Eh]
	-----------------------------------------------------------

  Dipole Moment: [D]
     X:    -0.9331      Y:     1.3721      Z:     0.9668     Total:     1.9204

*** Psi4 exiting successfully. Buy a developer a beer!
