                               Psi4 1.3.2 release

  ==> Input File <==

--------------------------------------------------------------------------
#psi4
#
memory 32 gb

molecule  {
0 1
  O        1.0716460     0.4753830     0.0137820
  O        2.5311320    -1.1057930    -0.7123110
  C       -2.3693550    -0.0883010     0.2982860
  C       -3.5980660     0.7810210     0.4066790
  C       -1.2519691     0.3736734    -0.2929568
  C        0.0082920    -0.3313460    -0.5624280
  C       -2.4885730    -1.4798110     0.8556556
  C       -4.7090750     0.3554230    -0.5595870
  C        3.3545870     0.8742710     0.4380940
  C        2.3120420    -0.0450080    -0.1482500
  C        4.7580620     0.3036620     0.3135630
  H       -3.3290990     1.8240090     0.2046860
  H       -3.9789780     0.7461160     1.4360390
  H       -1.2730680     1.4248330    -0.6509560
  H        0.2030610    -0.4353830    -1.6357720
  H        0.0474490    -1.3311670    -0.1253770
  H       -2.7951440    -1.4155820     1.9226690
  H       -3.3106690    -2.0257820     0.3507100
  H       -1.6004590    -2.0681310     0.7873000
  H       -5.0436390    -0.6667330    -0.3605950
  H       -4.3535760     0.4008270    -1.5926810
  H       -5.5777020     1.0147490    -0.4669260
  H        3.2685340     1.8407540    -0.0713220
  H        3.0874670     1.0628020     1.4826470
  H        4.8339620    -0.6514900     0.8358700
  H        5.0104170     0.1293290    -0.7342450
  H        5.4905370     0.9935700     0.7404870
units angstrom
no_reorient  #important for SAPT in psi4, default
symmetry c1  #important for SAPT in psi4, default
}

set PROPERTIES_ORIGIN ["COM"]
properties('MP2/aug-cc-pvtz', properties = ['dipole'])
--------------------------------------------------------------------------

    Molecular point group: c1
  Charge       = 0
  Multiplicity = 1
  Basis Set: AUG-CC-PVTZ
    Blend: AUG-CC-PVTZ
  Basis Set: (AUG-CC-PVTZ AUX)
    Blend: AUG-CC-PVTZ-JKFIT

    Orbital Energies [Eh]
    ---------------------

    Doubly Occupied:

       1A    -20.597582     2A    -20.540898     3A    -11.375715
       4A    -11.286036     5A    -11.244694     6A    -11.242289
       7A    -11.229850     8A    -11.226052     9A    -11.223290
      10A    -11.219750    11A    -11.217935    12A     -1.448427
      13A     -1.347874    14A     -1.113284    15A     -1.064259
      16A     -1.024044    17A     -0.978858    18A     -0.918448
      19A     -0.880036    20A     -0.833928    21A     -0.767753
      22A     -0.721685    23A     -0.687500    24A     -0.681542
      25A     -0.660325    26A     -0.639325    27A     -0.624921
      28A     -0.604805    29A     -0.587289    30A     -0.572687
      31A     -0.554154    32A     -0.545209    33A     -0.535116
      34A     -0.521661    35A     -0.516891    36A     -0.513611
      37A     -0.509654    38A     -0.492239    39A     -0.484733
      40A     -0.468319    41A     -0.457580    42A     -0.444613
      43A     -0.345181

  @DF-RHF Final Energy:  -500.03658497007001

   => Energetics <=

    Nuclear Repulsion Energy =            603.3843194531079916
    One-Electron Energy =               -1876.9417344402149865
    Two-Electron Energy =                 773.5208300170370421
    Total Energy =                       -500.0365849700699528
  Basis Set: (AUG-CC-PVTZ AUX)
    Blend: AUG-CC-PVTZ-RI
    Molecular point group: c1

    Geometry (in Angstrom), charge = 0, multiplicity = 1:

       Center              X                  Y                   Z               Mass
    ------------   -----------------  -----------------  -----------------  -----------------
         O            1.068932475836     0.477375287397     0.014070884532    15.994914619570
         O            2.528418475836    -1.103800712603    -0.712022115468    15.994914619570
         C           -2.372068524164    -0.086308712603     0.298574884532    12.000000000000
         C           -3.600779524164     0.783013287397     0.406967884532    12.000000000000
         C           -1.254682624164     0.375665687397    -0.292667915468    12.000000000000
         C            0.005578475836    -0.329353712603    -0.562139115468    12.000000000000
         C           -2.491286524164    -1.477818712603     0.855944484532    12.000000000000
         C           -4.711788524164     0.357415287397    -0.559298115468    12.000000000000
         C            3.351873475836     0.876263287397     0.438382884532    12.000000000000
         C            2.309328475836    -0.043015712603    -0.147961115468    12.000000000000
         C            4.755348475836     0.305654287397     0.313851884532    12.000000000000
         H           -3.331812524164     1.826001287397     0.204974884532     1.007825032230
         H           -3.981691524164     0.748108287397     1.436327884532     1.007825032230
         H           -1.275781524164     1.426825287397    -0.650667115468     1.007825032230
         H            0.200347475836    -0.433390712603    -1.635483115468     1.007825032230
         H            0.044735475836    -1.329174712603    -0.125088115468     1.007825032230
         H           -2.797857524164    -1.413589712603     1.922957884532     1.007825032230
         H           -3.313382524164    -2.023789712603     0.350998884532     1.007825032230
         H           -1.603172524164    -2.066138712603     0.787588884532     1.007825032230
         H           -5.046352524164    -0.664740712603    -0.360306115468     1.007825032230
         H           -4.356289524164     0.402819287397    -1.592392115468     1.007825032230
         H           -5.580415524164     1.016741287397    -0.466637115468     1.007825032230
         H            3.265820475836     1.842746287397    -0.071033115468     1.007825032230
         H            3.084753475836     1.064794287397     1.482935884532     1.007825032230
         H            4.831248475836    -0.649497712603     0.836158884532     1.007825032230
         H            5.007703475836     0.131321287397    -0.733956115468     1.007825032230
         H            5.487823475836     0.995562287397     0.740775884532     1.007825032230

  Basis Set: AUG-CC-PVTZ
    Blend: AUG-CC-PVTZ
  Basis Set: (AUG-CC-PVTZ AUX)
    Blend: AUG-CC-PVTZ-JKFIT
	 Reference Energy          =    -500.0365849700700096 [Eh]
	 Singles Energy            =      -0.0000000000000000 [Eh]
	 Same-Spin Energy          =      -0.5099844686886740 [Eh]
	 Opposite-Spin Energy      =      -1.7170499842976119 [Eh]
	 Correlation Energy        =      -2.2270344529862860 [Eh]
	 Total Energy              =    -502.2636194230562978 [Eh]

	 ================> DF-SCS-MP2 Energies <==================
	-----------------------------------------------------------
	 SCS Same-Spin Scale       =       0.3333333333333333 [-]
	 SCS Opposite-Spin Scale   =       1.2000000000000000 [-]
	 SCS Same-Spin Energy      =      -0.1699948228962246 [Eh]
	 SCS Opposite-Spin Energy  =      -2.0604599811571340 [Eh]
	 SCS Correlation Energy    =      -2.2304548040533585 [Eh]
	 SCS Total Energy          =    -502.2670397741233614 [Eh]
	-----------------------------------------------------------

  Dipole Moment: [D]
     X:    -1.4568      Y:     1.1814      Z:     0.8289     Total:     2.0506

*** Psi4 exiting successfully. Buy a developer a beer!
