                               Psi4 1.3.2 release

  ==> Input File <==

--------------------------------------------------------------------------
#psi4
#
memory 32 gb

molecule  {
0 1
  O        1.0716460     0.4753830     0.0137820
  O        2.5311320    -1.1057930    -0.7123110
  C       -2.3473269    -0.1293897     0.3040796
  C       -3.5980660     0.7810210     0.4066790
  C       -1.2626340     0.3942960    -0.2965320
  C        0.0082920    -0.3313460    -0.5624280
  C       -2.5132090    -1.4745150     0.8629900
  C       -4.7090750     0.3554230    -0.5595870
  C        3.3545870     0.8742710     0.4380940
  C        2.3120420    -0.0450080    -0.1482500
  C        4.7580620     0.3036620     0.3135630
  H       -3.3290990     1.8240090     0.2046860
  H       -3.9789780     0.7461160     1.4360390
  H       -1.2373273     1.4202937    -0.6631654
  H        0.2030610    -0.4353830    -1.6357720
  H        0.0474490    -1.3311670    -0.1253770
  H       -2.7951440    -1.4155820     1.9226690
  H       -3.3106690    -2.0257820     0.3507100
  H       -1.6004590    -2.0681310     0.7873000
  H       -5.0436390    -0.6667330    -0.3605950
  H       -4.3535760     0.4008270    -1.5926810
  H       -5.5777020     1.0147490    -0.4669260
  H        3.2685340     1.8407540    -0.0713220
  H        3.0874670     1.0628020     1.4826470
  H        4.8339620    -0.6514900     0.8358700
  H        5.0104170     0.1293290    -0.7342450
  H        5.4905370     0.9935700     0.7404870
units angstrom
no_reorient  #important for SAPT in psi4, default
symmetry c1  #important for SAPT in psi4, default
}

set PROPERTIES_ORIGIN ["COM"]
properties('MP2/aug-cc-pvtz', properties = ['dipole'])
--------------------------------------------------------------------------

    Molecular point group: c1
  Charge       = 0
  Multiplicity = 1
  Basis Set: AUG-CC-PVTZ
    Blend: AUG-CC-PVTZ
  Basis Set: (AUG-CC-PVTZ AUX)
    Blend: AUG-CC-PVTZ-JKFIT

    Orbital Energies [Eh]
    ---------------------

    Doubly Occupied:

       1A    -20.596757     2A    -20.540411     3A    -11.375144
       4A    -11.284373     5A    -11.244895     6A    -11.242003
       7A    -11.229456     8A    -11.226146     9A    -11.223975
      10A    -11.218221    11A    -11.217728    12A     -1.447663
      13A     -1.347209    14A     -1.112129    15A     -1.063431
      16A     -1.020434    17A     -0.983298    18A     -0.918865
      19A     -0.876803    20A     -0.830219    21A     -0.767242
      22A     -0.724879    23A     -0.687695    24A     -0.679688
      25A     -0.659444    26A     -0.639376    27A     -0.621166
      28A     -0.605543    29A     -0.588527    30A     -0.576209
      31A     -0.555512    32A     -0.544703    33A     -0.535121
      34A     -0.523880    35A     -0.518515    36A     -0.514262
      37A     -0.510847    38A     -0.492023    39A     -0.484893
      40A     -0.457810    41A     -0.455695    42A     -0.443869
      43A     -0.346356

  @DF-RHF Final Energy:  -500.03556842582282

   => Energetics <=

    Nuclear Repulsion Energy =            603.1498786080800301
    One-Electron Energy =               -1876.5060648427479464
    Two-Electron Energy =                 773.3206178088449860
    Total Energy =                       -500.0355684258228166
  Basis Set: (AUG-CC-PVTZ AUX)
    Blend: AUG-CC-PVTZ-RI
    Molecular point group: c1

    Geometry (in Angstrom), charge = 0, multiplicity = 1:

       Center              X                  Y                   Z               Mass
    ------------   -----------------  -----------------  -----------------  -----------------
         O            1.069721978474     0.478570662503     0.013415414900    15.994914619570
         O            2.529207978474    -1.102605337497    -0.712677585100    15.994914619570
         C           -2.349250921526    -0.126202037497     0.303713014900    12.000000000000
         C           -3.599990021526     0.784208662503     0.406312414900    12.000000000000
         C           -1.264558021526     0.397483662503    -0.296898585100    12.000000000000
         C            0.006367978474    -0.328158337497    -0.562794585100    12.000000000000
         C           -2.515133021526    -1.471327337497     0.862623414900    12.000000000000
         C           -4.710999021526     0.358610662503    -0.559953585100    12.000000000000
         C            3.352662978474     0.877458662503     0.437727414900    12.000000000000
         C            2.310117978474    -0.041820337497    -0.148616585100    12.000000000000
         C            4.756137978474     0.306849662503     0.313196414900    12.000000000000
         H           -3.331023021526     1.827196662503     0.204319414900     1.007825032230
         H           -3.980902021526     0.749303662503     1.435672414900     1.007825032230
         H           -1.239251321526     1.423481362503    -0.663531985100     1.007825032230
         H            0.201136978474    -0.432195337497    -1.636138585100     1.007825032230
         H            0.045524978474    -1.327979337497    -0.125743585100     1.007825032230
         H           -2.797068021526    -1.412394337497     1.922302414900     1.007825032230
         H           -3.312593021526    -2.022594337497     0.350343414900     1.007825032230
         H           -1.602383021526    -2.064943337497     0.786933414900     1.007825032230
         H           -5.045563021526    -0.663545337497    -0.360961585100     1.007825032230
         H           -4.355500021526     0.404014662503    -1.593047585100     1.007825032230
         H           -5.579626021526     1.017936662503    -0.467292585100     1.007825032230
         H            3.266609978474     1.843941662503    -0.071688585100     1.007825032230
         H            3.085542978474     1.065989662503     1.482280414900     1.007825032230
         H            4.832037978474    -0.648302337497     0.835503414900     1.007825032230
         H            5.008492978474     0.132516662503    -0.734611585100     1.007825032230
         H            5.488612978474     0.996757662503     0.740120414900     1.007825032230

  Basis Set: AUG-CC-PVTZ
    Blend: AUG-CC-PVTZ
  Basis Set: (AUG-CC-PVTZ AUX)
    Blend: AUG-CC-PVTZ-JKFIT
	 Reference Energy          =    -500.0355684258228166 [Eh]
	 Singles Energy            =      -0.0000000000000000 [Eh]
	 Same-Spin Energy          =      -0.5098366358051034 [Eh]
	 Opposite-Spin Energy      =      -1.7169750805968822 [Eh]
	 Correlation Energy        =      -2.2268117164019854 [Eh]
	 Total Energy              =    -502.2623801422247993 [Eh]

	 ================> DF-SCS-MP2 Energies <==================
	-----------------------------------------------------------
	 SCS Same-Spin Scale       =       0.3333333333333333 [-]
	 SCS Opposite-Spin Scale   =       1.2000000000000000 [-]
	 SCS Same-Spin Energy      =      -0.1699455452683678 [Eh]
	 SCS Opposite-Spin Energy  =      -2.0603700967162584 [Eh]
	 SCS Correlation Energy    =      -2.2303156419846264 [Eh]
	 SCS Total Energy          =    -502.2658840678074625 [Eh]
	-----------------------------------------------------------

  Dipole Moment: [D]
     X:    -1.4375      Y:     1.1436      Z:     0.8484     Total:     2.0234

*** Psi4 exiting successfully. Buy a developer a beer!
