                               Psi4 1.3.2 release

  ==> Input File <==

--------------------------------------------------------------------------
#psi4
#
memory 32 gb

molecule  {
0 1
  O        1.0716460     0.4753830     0.0137820
  O        2.5311320    -1.1057930    -0.7123110
  C       -2.3621566    -0.0776643     0.2953773
  C       -3.5980660     0.7810210     0.4066790
  C       -1.2626340     0.3942960    -0.2965320
  C        0.0082920    -0.3313460    -0.5624280
  C       -2.5132090    -1.4745150     0.8629900
  C       -4.7090750     0.3554230    -0.5595870
  C        3.3545870     0.8742710     0.4380940
  C        2.3120420    -0.0450080    -0.1482500
  C        4.7580620     0.3036620     0.3135630
  H       -3.3200093     1.8213599     0.2033375
  H       -3.9789780     0.7461160     1.4360390
  H       -1.2730680     1.4248330    -0.6509560
  H        0.2030610    -0.4353830    -1.6357720
  H        0.0474490    -1.3311670    -0.1253770
  H       -2.7951440    -1.4155820     1.9226690
  H       -3.3106690    -2.0257820     0.3507100
  H       -1.6004590    -2.0681310     0.7873000
  H       -5.0436390    -0.6667330    -0.3605950
  H       -4.3535760     0.4008270    -1.5926810
  H       -5.5777020     1.0147490    -0.4669260
  H        3.2685340     1.8407540    -0.0713220
  H        3.0874670     1.0628020     1.4826470
  H        4.8339620    -0.6514900     0.8358700
  H        5.0104170     0.1293290    -0.7342450
  H        5.4905370     0.9935700     0.7404870
units angstrom
no_reorient  #important for SAPT in psi4, default
symmetry c1  #important for SAPT in psi4, default
}

set PROPERTIES_ORIGIN ["COM"]
properties('MP2/aug-cc-pvtz', properties = ['dipole'])
--------------------------------------------------------------------------

    Molecular point group: c1
  Charge       = 0
  Multiplicity = 1
  Basis Set: AUG-CC-PVTZ
    Blend: AUG-CC-PVTZ
  Basis Set: (AUG-CC-PVTZ AUX)
    Blend: AUG-CC-PVTZ-JKFIT

    Orbital Energies [Eh]
    ---------------------

    Doubly Occupied:

       1A    -20.597520     2A    -20.540895     3A    -11.375664
       4A    -11.286811     5A    -11.243030     6A    -11.242292
       7A    -11.228332     8A    -11.226441     9A    -11.222086
      10A    -11.219364    11A    -11.217939    12A     -1.448297
      13A     -1.347756    14A     -1.112881    15A     -1.063935
      16A     -1.022176    17A     -0.976267    18A     -0.920699
      19A     -0.879378    20A     -0.834506    21A     -0.767607
      22A     -0.722253    23A     -0.687796    24A     -0.679743
      25A     -0.660353    26A     -0.638308    27A     -0.624159
      28A     -0.604995    29A     -0.587934    30A     -0.574114
      31A     -0.551775    32A     -0.544836    33A     -0.533589
      34A     -0.522295    35A     -0.517602    36A     -0.514984
      37A     -0.512163    38A     -0.492356    39A     -0.484524
      40A     -0.463443    41A     -0.457364    42A     -0.444634
      43A     -0.349052

  @DF-RHF Final Energy:  -500.03874071713244

   => Energetics <=

    Nuclear Repulsion Energy =            603.1524427121381677
    One-Electron Energy =               -1876.4980646428896307
    Two-Electron Energy =                 773.3068812136189081
    Total Energy =                       -500.0387407171324412
  Basis Set: (AUG-CC-PVTZ AUX)
    Blend: AUG-CC-PVTZ-RI
    Molecular point group: c1

    Geometry (in Angstrom), charge = 0, multiplicity = 1:

       Center              X                  Y                   Z               Mass
    ------------   -----------------  -----------------  -----------------  -----------------
         O            1.071033933802     0.474582514841     0.014014215114    15.994914619570
         O            2.530519933802    -1.106593485159    -0.712078784886    15.994914619570
         C           -2.362768666198    -0.078464785159     0.295609515114    12.000000000000
         C           -3.598678066198     0.780220514841     0.406911215114    12.000000000000
         C           -1.263246066198     0.393495514841    -0.296299784886    12.000000000000
         C            0.007679933802    -0.332146485159    -0.562195784886    12.000000000000
         C           -2.513821066198    -1.475315485159     0.863222215114    12.000000000000
         C           -4.709687066198     0.354622514841    -0.559354784886    12.000000000000
         C            3.353974933802     0.873470514841     0.438326215114    12.000000000000
         C            2.311429933802    -0.045808485159    -0.148017784886    12.000000000000
         C            4.757449933802     0.302861514841     0.313795215114    12.000000000000
         H           -3.320621366198     1.820559414841     0.203569715114     1.007825032230
         H           -3.979590066198     0.745315514841     1.436271215114     1.007825032230
         H           -1.273680066198     1.424032514841    -0.650723784886     1.007825032230
         H            0.202448933802    -0.436183485159    -1.635539784886     1.007825032230
         H            0.046836933802    -1.331967485159    -0.125144784886     1.007825032230
         H           -2.795756066198    -1.416382485159     1.922901215114     1.007825032230
         H           -3.311281066198    -2.026582485159     0.350942215114     1.007825032230
         H           -1.601071066198    -2.068931485159     0.787532215114     1.007825032230
         H           -5.044251066198    -0.667533485159    -0.360362784886     1.007825032230
         H           -4.354188066198     0.400026514841    -1.592448784886     1.007825032230
         H           -5.578314066198     1.013948514841    -0.466693784886     1.007825032230
         H            3.267921933802     1.839953514841    -0.071089784886     1.007825032230
         H            3.086854933802     1.062001514841     1.482879215114     1.007825032230
         H            4.833349933802    -0.652290485159     0.836102215114     1.007825032230
         H            5.009804933802     0.128528514841    -0.734012784886     1.007825032230
         H            5.489924933802     0.992769514841     0.740719215114     1.007825032230

  Basis Set: AUG-CC-PVTZ
    Blend: AUG-CC-PVTZ
  Basis Set: (AUG-CC-PVTZ AUX)
    Blend: AUG-CC-PVTZ-JKFIT
	 Reference Energy          =    -500.0387407171324412 [Eh]
	 Singles Energy            =      -0.0000000000000000 [Eh]
	 Same-Spin Energy          =      -0.5095599628787308 [Eh]
	 Opposite-Spin Energy      =      -1.7165137709143006 [Eh]
	 Correlation Energy        =      -2.2260737337930312 [Eh]
	 Total Energy              =    -502.2648144509254848 [Eh]

	 ================> DF-SCS-MP2 Energies <==================
	-----------------------------------------------------------
	 SCS Same-Spin Scale       =       0.3333333333333333 [-]
	 SCS Opposite-Spin Scale   =       1.2000000000000000 [-]
	 SCS Same-Spin Energy      =      -0.1698533209595769 [Eh]
	 SCS Opposite-Spin Energy  =      -2.0598165250971605 [Eh]
	 SCS Correlation Energy    =      -2.2296698460567375 [Eh]
	 SCS Total Energy          =    -502.2684105631892066 [Eh]
	-----------------------------------------------------------

  Dipole Moment: [D]
     X:    -1.4366      Y:     1.1891      Z:     0.8208     Total:     2.0376

*** Psi4 exiting successfully. Buy a developer a beer!
