                               Psi4 1.3.2 release

  ==> Input File <==

--------------------------------------------------------------------------
#psi4
#
memory 32 gb

molecule  {
0 1
  O        1.0716460     0.4753830     0.0137820
  O        2.5311320    -1.1057930    -0.7123110
  C       -2.3693550    -0.0883010     0.2982860
  C       -3.5980660     0.7810210     0.4066790
  C       -1.2626340     0.3942960    -0.2965320
  C        0.0082920    -0.3313460    -0.5624280
  C       -2.5132090    -1.4745150     0.8629900
  C       -4.7090750     0.3554230    -0.5595870
  C        3.3545870     0.8742710     0.4380940
  C        2.2874286    -0.0452763    -0.1017013
  C        4.7580620     0.3036620     0.3135630
  H       -3.3290990     1.8240090     0.2046860
  H       -3.9789780     0.7461160     1.4360390
  H       -1.2730680     1.4248330    -0.6509560
  H        0.2030610    -0.4353830    -1.6357720
  H        0.0474490    -1.3311670    -0.1253770
  H       -2.7951440    -1.4155820     1.9226690
  H       -3.3106690    -2.0257820     0.3507100
  H       -1.6004590    -2.0681310     0.7873000
  H       -5.0436390    -0.6667330    -0.3605950
  H       -4.3535760     0.4008270    -1.5926810
  H       -5.5777020     1.0147490    -0.4669260
  H        3.2685340     1.8407540    -0.0713220
  H        3.0568800     1.0403513     1.4781786
  H        4.8339620    -0.6514900     0.8358700
  H        5.0104170     0.1293290    -0.7342450
  H        5.4905370     0.9935700     0.7404870
units angstrom
no_reorient  #important for SAPT in psi4, default
symmetry c1  #important for SAPT in psi4, default
}

set PROPERTIES_ORIGIN ["COM"]
properties('MP2/aug-cc-pvtz', properties = ['dipole'])
--------------------------------------------------------------------------

    Molecular point group: c1
  Charge       = 0
  Multiplicity = 1
  Basis Set: AUG-CC-PVTZ
    Blend: AUG-CC-PVTZ
  Basis Set: (AUG-CC-PVTZ AUX)
    Blend: AUG-CC-PVTZ-JKFIT

    Orbital Energies [Eh]
    ---------------------

    Doubly Occupied:

       1A    -20.604072     2A    -20.533744     3A    -11.375907
       4A    -11.289723     5A    -11.246151     6A    -11.242004
       7A    -11.229639     8A    -11.227716     9A    -11.224943
      10A    -11.220179    11A    -11.217376    12A     -1.455055
      13A     -1.333904    14A     -1.114495    15A     -1.063953
      16A     -1.024094    17A     -0.980532    18A     -0.922253
      19A     -0.880386    20A     -0.835600    21A     -0.772041
      22A     -0.723183    23A     -0.686022    24A     -0.682244
      25A     -0.659445    26A     -0.639425    27A     -0.623933
      28A     -0.606692    29A     -0.586758    30A     -0.575368
      31A     -0.553827    32A     -0.545614    33A     -0.533196
      34A     -0.523865    35A     -0.516488    36A     -0.514040
      37A     -0.511636    38A     -0.490798    39A     -0.484957
      40A     -0.466949    41A     -0.453143    42A     -0.439911
      43A     -0.348053

  @DF-RHF Final Energy:  -500.03442788322650

   => Energetics <=

    Nuclear Repulsion Energy =            603.2173038064239563
    One-Electron Energy =               -1876.5848422710078012
    Two-Electron Energy =                 773.3331105813574595
    Total Energy =                       -500.0344278832264990
  Basis Set: (AUG-CC-PVTZ AUX)
    Blend: AUG-CC-PVTZ-RI
    Molecular point group: c1

    Geometry (in Angstrom), charge = 0, multiplicity = 1:

       Center              X                  Y                   Z               Mass
    ------------   -----------------  -----------------  -----------------  -----------------
         O            1.073735331432     0.475548575242     0.010232743928    15.994914619570
         O            2.533221331432    -1.105627424758    -0.715860256072    15.994914619570
         C           -2.367265668568    -0.088135424758     0.294736743928    12.000000000000
         C           -3.595976668568     0.781186575242     0.403129743928    12.000000000000
         C           -1.260544668568     0.394461575242    -0.300081256072    12.000000000000
         C            0.010381331432    -0.331180424758    -0.565977256072    12.000000000000
         C           -2.511119668568    -1.474349424758     0.859440743928    12.000000000000
         C           -4.706985668568     0.355588575242    -0.563136256072    12.000000000000
         C            3.356676331432     0.874436575242     0.434544743928    12.000000000000
         C            2.289517931432    -0.045110724758    -0.105250556072    12.000000000000
         C            4.760151331432     0.303827575242     0.310013743928    12.000000000000
         H           -3.327009668568     1.824174575242     0.201136743928     1.007825032230
         H           -3.976888668568     0.746281575242     1.432489743928     1.007825032230
         H           -1.270978668568     1.424998575242    -0.654505256072     1.007825032230
         H            0.205150331432    -0.435217424758    -1.639321256072     1.007825032230
         H            0.049538331432    -1.331001424758    -0.128926256072     1.007825032230
         H           -2.793054668568    -1.415416424758     1.919119743928     1.007825032230
         H           -3.308579668568    -2.025616424758     0.347160743928     1.007825032230
         H           -1.598369668568    -2.067965424758     0.783750743928     1.007825032230
         H           -5.041549668568    -0.666567424758    -0.364144256072     1.007825032230
         H           -4.351486668568     0.400992575242    -1.596230256072     1.007825032230
         H           -5.575612668568     1.014914575242    -0.470475256072     1.007825032230
         H            3.270623331432     1.840919575242    -0.074871256072     1.007825032230
         H            3.058969331432     1.040516875242     1.474629343928     1.007825032230
         H            4.836051331432    -0.651324424758     0.832320743928     1.007825032230
         H            5.012506331432     0.129494575242    -0.737794256072     1.007825032230
         H            5.492626331432     0.993735575242     0.736937743928     1.007825032230

  Basis Set: AUG-CC-PVTZ
    Blend: AUG-CC-PVTZ
  Basis Set: (AUG-CC-PVTZ AUX)
    Blend: AUG-CC-PVTZ-JKFIT
	 Reference Energy          =    -500.0344278832264990 [Eh]
	 Singles Energy            =      -0.0000000000000000 [Eh]
	 Same-Spin Energy          =      -0.5101137801584072 [Eh]
	 Opposite-Spin Energy      =      -1.7174535190278333 [Eh]
	 Correlation Energy        =      -2.2275672991862407 [Eh]
	 Total Energy              =    -502.2619951824127611 [Eh]

	 ================> DF-SCS-MP2 Energies <==================
	-----------------------------------------------------------
	 SCS Same-Spin Scale       =       0.3333333333333333 [-]
	 SCS Opposite-Spin Scale   =       1.2000000000000000 [-]
	 SCS Same-Spin Energy      =      -0.1700379267194691 [Eh]
	 SCS Opposite-Spin Energy  =      -2.0609442228333998 [Eh]
	 SCS Correlation Energy    =      -2.2309821495528688 [Eh]
	 SCS Total Energy          =    -502.2654100327793572 [Eh]
	-----------------------------------------------------------

  Dipole Moment: [D]
     X:    -1.7204      Y:     1.2725      Z:     0.9075     Total:     2.3244

*** Psi4 exiting successfully. Buy a developer a beer!
