                               Psi4 1.3.2 release

  ==> Input File <==

--------------------------------------------------------------------------
#psi4
#
memory 32 gb

molecule  {
0 1
  O        1.0716460     0.4753830     0.0137820
  O        2.4681097    -1.1123265    -0.7208792
  C       -2.3693550    -0.0883010     0.2982860
  C       -3.5980660     0.7810210     0.4066790
  C       -1.2626340     0.3942960    -0.2965320
  C        0.0082920    -0.3313460    -0.5624280
  C       -2.5132090    -1.4745150     0.8629900
  C       -4.7090750     0.3554230    -0.5595870
  C        3.2963558     0.9228681     0.4601211
  C        2.3120420    -0.0450080    -0.1482500
  C        4.7580620     0.3036620     0.3135630
  H       -3.3290990     1.8240090     0.2046860
  H       -3.9789780     0.7461160     1.4360390
  H       -1.2730680     1.4248330    -0.6509560
  H        0.2030610    -0.4353830    -1.6357720
  H        0.0474490    -1.3311670    -0.1253770
  H       -2.7951440    -1.4155820     1.9226690
  H       -3.3106690    -2.0257820     0.3507100
  H       -1.6004590    -2.0681310     0.7873000
  H       -5.0436390    -0.6667330    -0.3605950
  H       -4.3535760     0.4008270    -1.5926810
  H       -5.5777020     1.0147490    -0.4669260
  H        3.2685340     1.8407540    -0.0713220
  H        3.0874670     1.0628020     1.4826470
  H        4.8339620    -0.6514900     0.8358700
  H        5.0104170     0.1293290    -0.7342450
  H        5.4905370     0.9935700     0.7404870
units angstrom
no_reorient  #important for SAPT in psi4, default
symmetry c1  #important for SAPT in psi4, default
}

set PROPERTIES_ORIGIN ["COM"]
properties('MP2/aug-cc-pvtz', properties = ['dipole'])
--------------------------------------------------------------------------

    Molecular point group: c1
  Charge       = 0
  Multiplicity = 1
  Basis Set: AUG-CC-PVTZ
    Blend: AUG-CC-PVTZ
  Basis Set: (AUG-CC-PVTZ AUX)
    Blend: AUG-CC-PVTZ-JKFIT

    Orbital Energies [Eh]
    ---------------------

    Doubly Occupied:

       1A    -20.592100     2A    -20.542448     3A    -11.376549
       4A    -11.283227     5A    -11.242841     6A    -11.242473
       7A    -11.227311     8A    -11.225176     9A    -11.222767
      10A    -11.221606    11A    -11.218293    12A     -1.449183
      13A     -1.344043    14A     -1.111106    15A     -1.061043
      16A     -1.018547    17A     -0.975719    18A     -0.918023
      19A     -0.880356    20A     -0.833274    21A     -0.767975
      22A     -0.723503    23A     -0.686628    24A     -0.680214
      25A     -0.661468    26A     -0.642331    27A     -0.622769
      28A     -0.606768    29A     -0.586497    30A     -0.572511
      31A     -0.551076    32A     -0.542171    33A     -0.532728
      34A     -0.522430    35A     -0.516770    36A     -0.512734
      37A     -0.505750    38A     -0.496797    39A     -0.482662
      40A     -0.463955    41A     -0.455639    42A     -0.447341
      43A     -0.344311

  @DF-RHF Final Energy:  -500.03097416032608

   => Energetics <=

    Nuclear Repulsion Energy =            603.2780412780557526
    One-Electron Energy =               -1876.7958040072628592
    Two-Electron Energy =                 773.4867885688810247
    Total Energy =                       -500.0309741603260818
  Basis Set: (AUG-CC-PVTZ AUX)
    Blend: AUG-CC-PVTZ-RI
    Molecular point group: c1

    Geometry (in Angstrom), charge = 0, multiplicity = 1:

       Center              X                  Y                   Z               Mass
    ------------   -----------------  -----------------  -----------------  -----------------
         O            1.082578961450     0.472316929938     0.012966647657    15.994914619570
         O            2.479042661450    -1.115392570062    -0.721694552343    15.994914619570
         C           -2.358422038550    -0.091367070062     0.297470647657    12.000000000000
         C           -3.587133038550     0.777954929938     0.405863647657    12.000000000000
         C           -1.251701038550     0.391229929938    -0.297347352343    12.000000000000
         C            0.019224961450    -0.334412070062    -0.563243352343    12.000000000000
         C           -2.502276038550    -1.477581070062     0.862174647657    12.000000000000
         C           -4.698142038550     0.352356929938    -0.560402352343    12.000000000000
         C            3.307288761450     0.919802029938     0.459305747657    12.000000000000
         C            2.322974961450    -0.048074070062    -0.149065352343    12.000000000000
         C            4.768994961450     0.300595929938     0.312747647657    12.000000000000
         H           -3.318166038550     1.820942929938     0.203870647657     1.007825032230
         H           -3.968045038550     0.743049929938     1.435223647657     1.007825032230
         H           -1.262135038550     1.421766929938    -0.651771352343     1.007825032230
         H            0.213993961450    -0.438449070062    -1.636587352343     1.007825032230
         H            0.058381961450    -1.334233070062    -0.126192352343     1.007825032230
         H           -2.784211038550    -1.418648070062     1.921853647657     1.007825032230
         H           -3.299736038550    -2.028848070062     0.349894647657     1.007825032230
         H           -1.589526038550    -2.071197070062     0.786484647657     1.007825032230
         H           -5.032706038550    -0.669799070062    -0.361410352343     1.007825032230
         H           -4.342643038550     0.397760929938    -1.593496352343     1.007825032230
         H           -5.566769038550     1.011682929938    -0.467741352343     1.007825032230
         H            3.279466961450     1.837687929938    -0.072137352343     1.007825032230
         H            3.098399961450     1.059735929938     1.481831647657     1.007825032230
         H            4.844894961450    -0.654556070062     0.835054647657     1.007825032230
         H            5.021349961450     0.126262929938    -0.735060352343     1.007825032230
         H            5.501469961450     0.990503929938     0.739671647657     1.007825032230

  Basis Set: AUG-CC-PVTZ
    Blend: AUG-CC-PVTZ
  Basis Set: (AUG-CC-PVTZ AUX)
    Blend: AUG-CC-PVTZ-JKFIT
	 Reference Energy          =    -500.0309741603260818 [Eh]
	 Singles Energy            =      -0.0000000000000000 [Eh]
	 Same-Spin Energy          =      -0.5097455710319879 [Eh]
	 Opposite-Spin Energy      =      -1.7173020985254834 [Eh]
	 Correlation Energy        =      -2.2270476695574715 [Eh]
	 Total Energy              =    -502.2580218298835462 [Eh]

	 ================> DF-SCS-MP2 Energies <==================
	-----------------------------------------------------------
	 SCS Same-Spin Scale       =       0.3333333333333333 [-]
	 SCS Opposite-Spin Scale   =       1.2000000000000000 [-]
	 SCS Same-Spin Energy      =      -0.1699151903439960 [Eh]
	 SCS Opposite-Spin Energy  =      -2.0607625182305802 [Eh]
	 SCS Correlation Energy    =      -2.2306777085745764 [Eh]
	 SCS Total Energy          =    -502.2616518689006853 [Eh]
	-----------------------------------------------------------

  Dipole Moment: [D]
     X:    -1.2378      Y:     1.2156      Z:     0.8560     Total:     1.9346

*** Psi4 exiting successfully. Buy a developer a beer!
