                               Psi4 1.4a3.dev225

  ==> Input File <==

--------------------------------------------------------------------------
#psi4
#
memory 32 gb

molecule  {
0 1
  O       -1.1411000    -0.4541930    -0.0251880
  O       -2.5814580     1.1752260    -0.6867450
  C        2.3134570     0.0186930     0.2462000
  C        3.5222300    -0.8802230     0.3222130
  C        1.1937340    -0.4134970    -0.3651820
  C       -0.0795204     0.3431493    -0.5707761
  C        2.4850690     1.3863280     0.8546590
  C        4.7190700    -0.3405130    -0.4677320
  C       -3.4286640    -0.8122060     0.4327630
  C       -2.3749380     0.0938890    -0.1583950
  C       -4.8282690    -0.2261570     0.3119590
  H        3.2581340    -1.8761120    -0.0507320
  H        3.8122360    -1.0018650     1.3748590
  H        1.1815530    -1.4238220    -0.7735790
  H       -0.2705280     0.5138520    -1.6430550
  H       -0.0714200     1.3330110    -0.0949940
  H        3.0182560     1.3061200     1.8081990
  H        3.0814560     2.0379150     0.2067330
  H        1.5342700     1.8877430     1.0433380
  H        5.0646870     0.6170420    -0.0694620
  H        4.4484560    -0.1949880    -1.5176090
  H        5.5583810    -1.0408350    -0.4253590
  H       -3.3536290    -1.7820470    -0.0715700
  H       -3.1585900    -0.9983310     1.4781360
  H       -4.8922970     0.7333770     0.8287030
  H       -5.0879650    -0.0561110    -0.7346540
  H       -5.5642940    -0.9066400     0.7478690
units angstrom
no_reorient  #important for SAPT in psi4, default
symmetry c1  #important for SAPT in psi4, default
}

set PROPERTIES_ORIGIN ["COM"]
properties('MP2/aug-cc-pvtz', properties = ['dipole'])
--------------------------------------------------------------------------

    Molecular point group: c1
  Charge       = 0
  Multiplicity = 1
  Basis Set: AUG-CC-PVTZ
    Blend: AUG-CC-PVTZ
  Basis Set: (AUG-CC-PVTZ AUX)
    Blend: AUG-CC-PVTZ-JKFIT

    Orbital Energies [Eh]
    ---------------------

    Doubly Occupied:

       1A    -20.599555     2A    -20.542341     3A    -11.377230
       4A    -11.286636     5A    -11.243787     6A    -11.243563
       7A    -11.228162     8A    -11.225562     9A    -11.223136
      10A    -11.218870    11A    -11.218827    12A     -1.451864
      13A     -1.350699    14A     -1.111127    15A     -1.064197
      16A     -1.020878    17A     -0.976684    18A     -0.920885
      19A     -0.879541    20A     -0.832349    21A     -0.769345
      22A     -0.722498    23A     -0.689597    24A     -0.680726
      25A     -0.661802    26A     -0.638161    27A     -0.623387
      28A     -0.605458    29A     -0.589670    30A     -0.571746
      31A     -0.553292    32A     -0.544978    33A     -0.532141
      34A     -0.523115    35A     -0.518569    36A     -0.513411
      37A     -0.512100    38A     -0.492546    39A     -0.484027
      40A     -0.464607    41A     -0.456855    42A     -0.445573
      43A     -0.345376

  @DF-RHF Final Energy:  -500.03851950409307

   => Energetics <=

    Nuclear Repulsion Energy =            602.7231843510643330
    One-Electron Energy =               -1875.6136597456700201
    Two-Electron Energy =                 772.8519558905127269
    Total Energy =                       -500.0385195040930739
  Basis Set: (AUG-CC-PVTZ AUX)
    Blend: AUG-CC-PVTZ-RI
    Molecular point group: c1

    Geometry (in Angstrom), charge = 0, multiplicity = 1:

       Center              X                  Y                   Z               Mass
    ------------   -----------------  -----------------  -----------------  -----------------
         O           -1.085690241954    -0.458728536165    -0.012405811154    15.994914619570
         O           -2.526048241954     1.170690463835    -0.673962811154    15.994914619570
         C            2.368866758046     0.014157463835     0.258982188846    12.000000000000
         C            3.577639758046    -0.884758536165     0.334995188846    12.000000000000
         C            1.249143758046    -0.418032536165    -0.352399811154    12.000000000000
         C           -0.024110641954     0.338613763835    -0.557993911154    12.000000000000
         C            2.540478758046     1.381792463835     0.867441188846    12.000000000000
         C            4.774479758046    -0.345048536165    -0.454949811154    12.000000000000
         C           -3.373254241954    -0.816741536165     0.445545188846    12.000000000000
         C           -2.319528241954     0.089353463835    -0.145612811154    12.000000000000
         C           -4.772859241954    -0.230692536165     0.324741188846    12.000000000000
         H            3.313543758046    -1.880647536165    -0.037949811154     1.007825032230
         H            3.867645758046    -1.006400536165     1.387641188846     1.007825032230
         H            1.236962758046    -1.428357536165    -0.760796811154     1.007825032230
         H           -0.215118241954     0.509316463835    -1.630272811154     1.007825032230
         H           -0.016010241954     1.328475463835    -0.082211811154     1.007825032230
         H            3.073665758046     1.301584463835     1.820981188846     1.007825032230
         H            3.136865758046     2.033379463835     0.219515188846     1.007825032230
         H            1.589679758046     1.883207463835     1.056120188846     1.007825032230
         H            5.120096758046     0.612506463835    -0.056679811154     1.007825032230
         H            4.503865758046    -0.199523536165    -1.504826811154     1.007825032230
         H            5.613790758046    -1.045370536165    -0.412576811154     1.007825032230
         H           -3.298219241954    -1.786582536165    -0.058787811154     1.007825032230
         H           -3.103180241954    -1.002866536165     1.490918188846     1.007825032230
         H           -4.836887241954     0.728841463835     0.841485188846     1.007825032230
         H           -5.032555241954    -0.060646536165    -0.721871811154     1.007825032230
         H           -5.508884241954    -0.911175536165     0.760651188846     1.007825032230

  Basis Set: AUG-CC-PVTZ
    Blend: AUG-CC-PVTZ
  Basis Set: (AUG-CC-PVTZ AUX)
    Blend: AUG-CC-PVTZ-JKFIT
	 Reference Energy          =    -500.0385195040930739 [Eh]
	 Singles Energy            =      -0.0000000000000000 [Eh]
	 Same-Spin Energy          =      -0.5096378336092879 [Eh]
	 Opposite-Spin Energy      =      -1.7167102312861997 [Eh]
	 Correlation Energy        =      -2.2263480648954879 [Eh]
	 Total Energy              =    -502.2648675689885636 [Eh]

	 ================> DF-SCS-MP2 Energies <==================
	-----------------------------------------------------------
	 SCS Same-Spin Scale       =       0.3333333333333333 [-]
	 SCS Opposite-Spin Scale   =       1.2000000000000000 [-]
	 SCS Same-Spin Energy      =      -0.1698792778697626 [Eh]
	 SCS Opposite-Spin Energy  =      -2.0600522775434396 [Eh]
	 SCS Correlation Energy    =      -2.2299315554132022 [Eh]
	 SCS Total Energy          =    -502.2684510595062761 [Eh]
	-----------------------------------------------------------

  Dipole Moment: [D]
     X:     1.3412      Y:    -1.2203      Z:     0.8173     Total:     1.9889

*** Psi4 exiting successfully. Buy a developer a beer!
