                               Psi4 1.3.2 release

  ==> Input File <==

--------------------------------------------------------------------------
#psi4
#
memory 32 gb

molecule  {
0 1
  O        1.0716460     0.4753830     0.0137820
  O        2.5311320    -1.1057930    -0.7123110
  C       -2.3693550    -0.0883010     0.2982860
  C       -3.6107666     0.7611985     0.4184867
  C       -1.2626340     0.3942960    -0.2965320
  C        0.0082920    -0.3313460    -0.5624280
  C       -2.5379909    -1.4689895     0.8696309
  C       -4.7090750     0.3554230    -0.5595870
  C        3.3545870     0.8742710     0.4380940
  C        2.3120420    -0.0450080    -0.1482500
  C        4.7580620     0.3036620     0.3135630
  H       -3.3290990     1.8240090     0.2046860
  H       -3.9789780     0.7461160     1.4360390
  H       -1.2730680     1.4248330    -0.6509560
  H        0.2030610    -0.4353830    -1.6357720
  H        0.0474490    -1.3311670    -0.1253770
  H       -2.7951440    -1.4155820     1.9226690
  H       -3.3106690    -2.0257820     0.3507100
  H       -1.6004590    -2.0681310     0.7873000
  H       -5.0436390    -0.6667330    -0.3605950
  H       -4.3535760     0.4008270    -1.5926810
  H       -5.5777020     1.0147490    -0.4669260
  H        3.2685340     1.8407540    -0.0713220
  H        3.0874670     1.0628020     1.4826470
  H        4.8339620    -0.6514900     0.8358700
  H        5.0104170     0.1293290    -0.7342450
  H        5.4905370     0.9935700     0.7404870
units angstrom
no_reorient  #important for SAPT in psi4, default
symmetry c1  #important for SAPT in psi4, default
}

set PROPERTIES_ORIGIN ["COM"]
properties('MP2/aug-cc-pvtz', properties = ['dipole'])
--------------------------------------------------------------------------

    Molecular point group: c1
  Charge       = 0
  Multiplicity = 1
  Basis Set: AUG-CC-PVTZ
    Blend: AUG-CC-PVTZ
  Basis Set: (AUG-CC-PVTZ AUX)
    Blend: AUG-CC-PVTZ-JKFIT

    Orbital Energies [Eh]
    ---------------------

    Doubly Occupied:

       1A    -20.597456     2A    -20.540828     3A    -11.375605
       4A    -11.286794     5A    -11.244380     6A    -11.242242
       7A    -11.228177     8A    -11.225856     9A    -11.224427
      10A    -11.218984    11A    -11.217895    12A     -1.448236
      13A     -1.347692    14A     -1.112701    15A     -1.064094
      16A     -1.022639    17A     -0.978203    18A     -0.919631
      19A     -0.878827    20A     -0.833967    21A     -0.767573
      22A     -0.722683    23A     -0.687742    24A     -0.679389
      25A     -0.660193    26A     -0.637216    27A     -0.624507
      28A     -0.605394    29A     -0.590415    30A     -0.577516
      31A     -0.551541    32A     -0.544635    33A     -0.531916
      34A     -0.522612    35A     -0.518298    36A     -0.516890
      37A     -0.512543    38A     -0.492279    39A     -0.481789
      40A     -0.461486    41A     -0.456800    42A     -0.444541
      43A     -0.347410

  @DF-RHF Final Energy:  -500.03651959928379

   => Energetics <=

    Nuclear Repulsion Energy =            603.0085001151485358
    One-Electron Energy =               -1876.2020357060437163
    Two-Electron Energy =                 773.1570159916113880
    Total Energy =                       -500.0365195992837926
  Basis Set: (AUG-CC-PVTZ AUX)
    Blend: AUG-CC-PVTZ-RI
    Molecular point group: c1

    Geometry (in Angstrom), charge = 0, multiplicity = 1:

       Center              X                  Y                   Z               Mass
    ------------   -----------------  -----------------  -----------------  -----------------
         O            1.074527073623     0.476481976867     0.012363850940    15.994914619570
         O            2.534013073623    -1.104694023133    -0.713729149060    15.994914619570
         C           -2.366473926377    -0.087202023133     0.296867850940    12.000000000000
         C           -3.607885526377     0.762297476867     0.417068550940    12.000000000000
         C           -1.259752926377     0.395394976867    -0.297950149060    12.000000000000
         C            0.011173073623    -0.330247023133    -0.563846149060    12.000000000000
         C           -2.535109826377    -1.467890523133     0.868212750940    12.000000000000
         C           -4.706193926377     0.356521976867    -0.561005149060    12.000000000000
         C            3.357468073623     0.875369976867     0.436675850940    12.000000000000
         C            2.314923073623    -0.043909023133    -0.149668149060    12.000000000000
         C            4.760943073623     0.304760976867     0.312144850940    12.000000000000
         H           -3.326217926377     1.825107976867     0.203267850940     1.007825032230
         H           -3.976096926377     0.747214976867     1.434620850940     1.007825032230
         H           -1.270186926377     1.425931976867    -0.652374149060     1.007825032230
         H            0.205942073623    -0.434284023133    -1.637190149060     1.007825032230
         H            0.050330073623    -1.330068023133    -0.126795149060     1.007825032230
         H           -2.792262926377    -1.414483023133     1.921250850940     1.007825032230
         H           -3.307787926377    -2.024683023133     0.349291850940     1.007825032230
         H           -1.597577926377    -2.067032023133     0.785881850940     1.007825032230
         H           -5.040757926377    -0.665634023133    -0.362013149060     1.007825032230
         H           -4.350694926377     0.401925976867    -1.594099149060     1.007825032230
         H           -5.574820926377     1.015847976867    -0.468344149060     1.007825032230
         H            3.271415073623     1.841852976867    -0.072740149060     1.007825032230
         H            3.090348073623     1.063900976867     1.481228850940     1.007825032230
         H            4.836843073623    -0.650391023133     0.834451850940     1.007825032230
         H            5.013298073623     0.130427976867    -0.735663149060     1.007825032230
         H            5.493418073623     0.994668976867     0.739068850940     1.007825032230

  Basis Set: AUG-CC-PVTZ
    Blend: AUG-CC-PVTZ
  Basis Set: (AUG-CC-PVTZ AUX)
    Blend: AUG-CC-PVTZ-JKFIT
	 Reference Energy          =    -500.0365195992837926 [Eh]
	 Singles Energy            =      -0.0000000000000000 [Eh]
	 Same-Spin Energy          =      -0.5098473036046575 [Eh]
	 Opposite-Spin Energy      =      -1.7170554094732129 [Eh]
	 Correlation Energy        =      -2.2269027130778705 [Eh]
	 Total Energy              =    -502.2634223123616835 [Eh]

	 ================> DF-SCS-MP2 Energies <==================
	-----------------------------------------------------------
	 SCS Same-Spin Scale       =       0.3333333333333333 [-]
	 SCS Opposite-Spin Scale   =       1.2000000000000000 [-]
	 SCS Same-Spin Energy      =      -0.1699491012015525 [Eh]
	 SCS Opposite-Spin Energy  =      -2.0604664913678552 [Eh]
	 SCS Correlation Energy    =      -2.2304155925694076 [Eh]
	 SCS Total Energy          =    -502.2669351918531788 [Eh]
	-----------------------------------------------------------

  Dipole Moment: [D]
     X:    -1.4428      Y:     1.1762      Z:     0.8351     Total:     2.0402

*** Psi4 exiting successfully. Buy a developer a beer!
