                               Psi4 1.3.2 release

  ==> Input File <==

--------------------------------------------------------------------------
#psi4
#
memory 32 gb

molecule  {
0 1
  O        1.0716460     0.4753830     0.0137820
  O        2.5311320    -1.1057930    -0.7123110
  C       -2.3693550    -0.0883010     0.2982860
  C       -3.5980660     0.7810210     0.4066790
  C       -1.2712702     0.3737997    -0.2831429
  C        0.0082920    -0.3313460    -0.5624280
  C       -2.5132090    -1.4745150     0.8629900
  C       -4.7090750     0.3554230    -0.5595870
  C        3.3545870     0.8742710     0.4380940
  C        2.3120420    -0.0450080    -0.1482500
  C        4.7580620     0.3036620     0.3135630
  H       -3.3290990     1.8240090     0.2046860
  H       -3.9789780     0.7461160     1.4360390
  H       -1.2730680     1.4248330    -0.6509560
  H        0.2030610    -0.4353830    -1.6357720
  H        0.0299318    -1.3285909    -0.1183298
  H       -2.7951440    -1.4155820     1.9226690
  H       -3.3106690    -2.0257820     0.3507100
  H       -1.6004590    -2.0681310     0.7873000
  H       -5.0436390    -0.6667330    -0.3605950
  H       -4.3535760     0.4008270    -1.5926810
  H       -5.5777020     1.0147490    -0.4669260
  H        3.2685340     1.8407540    -0.0713220
  H        3.0874670     1.0628020     1.4826470
  H        4.8339620    -0.6514900     0.8358700
  H        5.0104170     0.1293290    -0.7342450
  H        5.4905370     0.9935700     0.7404870
units angstrom
no_reorient  #important for SAPT in psi4, default
symmetry c1  #important for SAPT in psi4, default
}

set PROPERTIES_ORIGIN ["COM"]
properties('MP2/aug-cc-pvtz', properties = ['dipole'])
--------------------------------------------------------------------------

    Molecular point group: c1
  Charge       = 0
  Multiplicity = 1
  Basis Set: AUG-CC-PVTZ
    Blend: AUG-CC-PVTZ
  Basis Set: (AUG-CC-PVTZ AUX)
    Blend: AUG-CC-PVTZ-JKFIT

    Orbital Energies [Eh]
    ---------------------

    Doubly Occupied:

       1A    -20.598068     2A    -20.540941     3A    -11.375887
       4A    -11.287023     5A    -11.242409     6A    -11.241108
       7A    -11.228541     8A    -11.225759     9A    -11.222595
      10A    -11.219296    11A    -11.218007    12A     -1.448439
      13A     -1.347830    14A     -1.115104    15A     -1.064063
      16A     -1.022385    17A     -0.977736    18A     -0.920810
      19A     -0.879618    20A     -0.834611    21A     -0.767306
      22A     -0.720737    23A     -0.687225    24A     -0.681029
      25A     -0.660058    26A     -0.638780    27A     -0.624166
      28A     -0.605507    29A     -0.587935    30A     -0.574946
      31A     -0.552887    32A     -0.545064    33A     -0.533756
      34A     -0.521901    35A     -0.517162    36A     -0.514994
      37A     -0.510296    38A     -0.492457    39A     -0.484371
      40A     -0.463203    41A     -0.456857    42A     -0.444835
      43A     -0.350823

  @DF-RHF Final Energy:  -500.03809373276988

   => Energetics <=

    Nuclear Repulsion Energy =            603.3287752138909354
    One-Electron Energy =               -1876.8406869742657364
    Two-Electron Energy =                 773.4738180276050343
    Total Energy =                       -500.0380937327698803
  Basis Set: (AUG-CC-PVTZ AUX)
    Blend: AUG-CC-PVTZ-RI
    Molecular point group: c1

    Geometry (in Angstrom), charge = 0, multiplicity = 1:

       Center              X                  Y                   Z               Mass
    ------------   -----------------  -----------------  -----------------  -----------------
         O            1.072422847478     0.476941864311     0.012707262177    15.994914619570
         O            2.531908847478    -1.104234135689    -0.713385737823    15.994914619570
         C           -2.368578152522    -0.086742135689     0.297211262177    12.000000000000
         C           -3.597289152522     0.782579864311     0.405604262177    12.000000000000
         C           -1.270493352522     0.375358564311    -0.284217637823    12.000000000000
         C            0.009068847478    -0.329787135689    -0.563502737823    12.000000000000
         C           -2.512432152522    -1.472956135689     0.861915262177    12.000000000000
         C           -4.708298152522     0.356981864311    -0.560661737823    12.000000000000
         C            3.355363847478     0.875829864311     0.437019262177    12.000000000000
         C            2.312818847478    -0.043449135689    -0.149324737823    12.000000000000
         C            4.758838847478     0.305220864311     0.312488262177    12.000000000000
         H           -3.328322152522     1.825567864311     0.203611262177     1.007825032230
         H           -3.978201152522     0.747674864311     1.434964262177     1.007825032230
         H           -1.272291152522     1.426391864311    -0.652030737823     1.007825032230
         H            0.203837847478    -0.433824135689    -1.636846737823     1.007825032230
         H            0.030708647478    -1.327032035689    -0.119404537823     1.007825032230
         H           -2.794367152522    -1.414023135689     1.921594262177     1.007825032230
         H           -3.309892152522    -2.024223135689     0.349635262177     1.007825032230
         H           -1.599682152522    -2.066572135689     0.786225262177     1.007825032230
         H           -5.042862152522    -0.665174135689    -0.361669737823     1.007825032230
         H           -4.352799152522     0.402385864311    -1.593755737823     1.007825032230
         H           -5.576925152522     1.016307864311    -0.468000737823     1.007825032230
         H            3.269310847478     1.842312864311    -0.072396737823     1.007825032230
         H            3.088243847478     1.064360864311     1.481572262177     1.007825032230
         H            4.834738847478    -0.649931135689     0.834795262177     1.007825032230
         H            5.011193847478     0.130887864311    -0.735319737823     1.007825032230
         H            5.491313847478     0.995128864311     0.739412262177     1.007825032230

  Basis Set: AUG-CC-PVTZ
    Blend: AUG-CC-PVTZ
  Basis Set: (AUG-CC-PVTZ AUX)
    Blend: AUG-CC-PVTZ-JKFIT
	 Reference Energy          =    -500.0380937327698803 [Eh]
	 Singles Energy            =      -0.0000000000000000 [Eh]
	 Same-Spin Energy          =      -0.5096103277037251 [Eh]
	 Opposite-Spin Energy      =      -1.7164832955543465 [Eh]
	 Correlation Energy        =      -2.2260936232580715 [Eh]
	 Total Energy              =    -502.2641873560279464 [Eh]

	 ================> DF-SCS-MP2 Energies <==================
	-----------------------------------------------------------
	 SCS Same-Spin Scale       =       0.3333333333333333 [-]
	 SCS Opposite-Spin Scale   =       1.2000000000000000 [-]
	 SCS Same-Spin Energy      =      -0.1698701092345750 [Eh]
	 SCS Opposite-Spin Energy  =      -2.0597799546652156 [Eh]
	 SCS Correlation Energy    =      -2.2296500638997907 [Eh]
	 SCS Total Energy          =    -502.2677437966696630 [Eh]
	-----------------------------------------------------------

  Dipole Moment: [D]
     X:    -1.4421      Y:     1.1781      Z:     0.8315     Total:     2.0394

*** Psi4 exiting successfully. Buy a developer a beer!
