                               Psi4 1.3.2 release

  ==> Input File <==

--------------------------------------------------------------------------
#psi4
#
memory 32 gb

molecule  {
0 1
  O        1.0716460     0.4753830     0.0137820
  O        2.5311320    -1.1057930    -0.7123110
  C       -2.3693550    -0.0883010     0.2982860
  C       -3.5980660     0.7810210     0.4066790
  C       -1.2626340     0.3942960    -0.2965320
  C        0.0082920    -0.3313460    -0.5624280
  C       -2.5132090    -1.4745150     0.8629900
  C       -4.7090750     0.3554230    -0.5595870
  C        3.3545870     0.8742710     0.4380940
  C        2.3120420    -0.0450080    -0.1482500
  C        4.7580620     0.3036620     0.3135630
  H       -3.3290990     1.8240090     0.2046860
  H       -3.9789780     0.7461160     1.4360390
  H       -1.2740254     1.5193923    -0.6834770
  H        0.2030610    -0.4353830    -1.6357720
  H        0.0474490    -1.3311670    -0.1253770
  H       -2.7951440    -1.4155820     1.9226690
  H       -3.3106690    -2.0257820     0.3507100
  H       -1.6004590    -2.0681310     0.7873000
  H       -5.0436390    -0.6667330    -0.3605950
  H       -4.3535760     0.4008270    -1.5926810
  H       -5.5777020     1.0147490    -0.4669260
  H        3.2685340     1.8407540    -0.0713220
  H        3.0874670     1.0628020     1.4826470
  H        4.8339620    -0.6514900     0.8358700
  H        5.0104170     0.1293290    -0.7342450
  H        5.4905370     0.9935700     0.7404870
units angstrom
no_reorient  #important for SAPT in psi4, default
symmetry c1  #important for SAPT in psi4, default
}

set PROPERTIES_ORIGIN ["COM"]
properties('MP2/aug-cc-pvtz', properties = ['dipole'])
--------------------------------------------------------------------------

    Molecular point group: c1
  Charge       = 0
  Multiplicity = 1
  Basis Set: AUG-CC-PVTZ
    Blend: AUG-CC-PVTZ
  Basis Set: (AUG-CC-PVTZ AUX)
    Blend: AUG-CC-PVTZ-JKFIT

    Orbital Energies [Eh]
    ---------------------

    Doubly Occupied:

       1A    -20.597467     2A    -20.540906     3A    -11.375649
       4A    -11.287932     5A    -11.245297     6A    -11.242233
       7A    -11.234700     8A    -11.228356     9A    -11.227501
      10A    -11.219158    11A    -11.217907    12A     -1.448287
      13A     -1.347753    14A     -1.111818    15A     -1.063990
      16A     -1.021049    17A     -0.978082    18A     -0.918159
      19A     -0.879337    20A     -0.832477    21A     -0.767082
      22A     -0.717085    23A     -0.685921    24A     -0.680174
      25A     -0.658767    26A     -0.636120    27A     -0.623958
      28A     -0.603514    29A     -0.586680    30A     -0.574884
      31A     -0.553152    32A     -0.544864    33A     -0.533669
      34A     -0.521493    35A     -0.516554    36A     -0.514338
      37A     -0.507288    38A     -0.492053    39A     -0.483873
      40A     -0.463415    41A     -0.457151    42A     -0.444518
      43A     -0.346951

  @DF-RHF Final Energy:  -500.03124276582605

   => Energetics <=

    Nuclear Repulsion Energy =            602.6032915021748977
    One-Electron Energy =               -1875.4059428621667394
    Two-Electron Energy =                 772.7714085941657913
    Total Energy =                       -500.0312427658260503
  Basis Set: (AUG-CC-PVTZ AUX)
    Blend: AUG-CC-PVTZ-RI
    Molecular point group: c1

    Geometry (in Angstrom), charge = 0, multiplicity = 1:

       Center              X                  Y                   Z               Mass
    ------------   -----------------  -----------------  -----------------  -----------------
         O            1.071652109509     0.474772575601     0.013991872779    15.994914619570
         O            2.531138109509    -1.106403424399    -0.712101127221    15.994914619570
         C           -2.369348890491    -0.088911424399     0.298495872779    12.000000000000
         C           -3.598059890491     0.780410575601     0.406888872779    12.000000000000
         C           -1.262627890491     0.393685575601    -0.296322127221    12.000000000000
         C            0.008298109509    -0.331956424399    -0.562218127221    12.000000000000
         C           -2.513202890491    -1.475125424399     0.863199872779    12.000000000000
         C           -4.709068890491     0.354812575601    -0.559377127221    12.000000000000
         C            3.354593109509     0.873660575601     0.438303872779    12.000000000000
         C            2.312048109509    -0.045618424399    -0.148040127221    12.000000000000
         C            4.758068109509     0.303051575601     0.313772872779    12.000000000000
         H           -3.329092890491     1.823398575601     0.204895872779     1.007825032230
         H           -3.978971890491     0.745505575601     1.436248872779     1.007825032230
         H           -1.274019290491     1.518781875601    -0.683267127221     1.007825032230
         H            0.203067109509    -0.435993424399    -1.635562127221     1.007825032230
         H            0.047455109509    -1.331777424399    -0.125167127221     1.007825032230
         H           -2.795137890491    -1.416192424399     1.922878872779     1.007825032230
         H           -3.310662890491    -2.026392424399     0.350919872779     1.007825032230
         H           -1.600452890491    -2.068741424399     0.787509872779     1.007825032230
         H           -5.043632890491    -0.667343424399    -0.360385127221     1.007825032230
         H           -4.353569890491     0.400216575601    -1.592471127221     1.007825032230
         H           -5.577695890491     1.014138575601    -0.466716127221     1.007825032230
         H            3.268540109509     1.840143575601    -0.071112127221     1.007825032230
         H            3.087473109509     1.062191575601     1.482856872779     1.007825032230
         H            4.833968109509    -0.652100424399     0.836079872779     1.007825032230
         H            5.010423109509     0.128718575601    -0.734035127221     1.007825032230
         H            5.490543109509     0.992959575601     0.740696872779     1.007825032230

  Basis Set: AUG-CC-PVTZ
    Blend: AUG-CC-PVTZ
  Basis Set: (AUG-CC-PVTZ AUX)
    Blend: AUG-CC-PVTZ-JKFIT
	 Reference Energy          =    -500.0312427658260503 [Eh]
	 Singles Energy            =      -0.0000000000000000 [Eh]
	 Same-Spin Energy          =      -0.5100034689402213 [Eh]
	 Opposite-Spin Energy      =      -1.7177115503690477 [Eh]
	 Correlation Energy        =      -2.2277150193092687 [Eh]
	 Total Energy              =    -502.2589577851352942 [Eh]

	 ================> DF-SCS-MP2 Energies <==================
	-----------------------------------------------------------
	 SCS Same-Spin Scale       =       0.3333333333333333 [-]
	 SCS Opposite-Spin Scale   =       1.2000000000000000 [-]
	 SCS Same-Spin Energy      =      -0.1700011563134071 [Eh]
	 SCS Opposite-Spin Energy  =      -2.0612538604428572 [Eh]
	 SCS Correlation Energy    =      -2.2312550167562644 [Eh]
	 SCS Total Energy          =    -502.2624977825823294 [Eh]
	-----------------------------------------------------------

  Dipole Moment: [D]
     X:    -1.4368      Y:     1.1332      Z:     0.8505     Total:     2.0179

*** Psi4 exiting successfully. Buy a developer a beer!
