                               Psi4 1.3.2 release

  ==> Input File <==

--------------------------------------------------------------------------
#psi4
#
memory 32 gb

molecule  {
0 1
  O        1.0716460     0.4753830     0.0137820
  O        2.5311320    -1.1057930    -0.7123110
  C       -2.3466268    -0.0592715     0.3359043
  C       -3.5980660     0.7810210     0.4066790
  C       -1.2626340     0.3942960    -0.2965320
  C        0.0082920    -0.3313460    -0.5624280
  C       -2.5132090    -1.4745150     0.8629900
  C       -4.7394156     0.3952654    -0.5407693
  C        3.3545870     0.8742710     0.4380940
  C        2.3120420    -0.0450080    -0.1482500
  C        4.7580620     0.3036620     0.3135630
  H       -3.3290990     1.8240090     0.2046860
  H       -3.9789780     0.7461160     1.4360390
  H       -1.2730680     1.4248330    -0.6509560
  H        0.2030610    -0.4353830    -1.6357720
  H        0.0474490    -1.3311670    -0.1253770
  H       -2.7951440    -1.4155820     1.9226690
  H       -3.3106690    -2.0257820     0.3507100
  H       -1.6004590    -2.0681310     0.7873000
  H       -5.0436390    -0.6667330    -0.3605950
  H       -4.3535760     0.4008270    -1.5926810
  H       -5.5777020     1.0147490    -0.4669260
  H        3.2685340     1.8407540    -0.0713220
  H        3.0874670     1.0628020     1.4826470
  H        4.8339620    -0.6514900     0.8358700
  H        5.0104170     0.1293290    -0.7342450
  H        5.4905370     0.9935700     0.7404870
units angstrom
no_reorient  #important for SAPT in psi4, default
symmetry c1  #important for SAPT in psi4, default
}

set PROPERTIES_ORIGIN ["COM"]
properties('MP2/aug-cc-pvtz', properties = ['dipole'])
--------------------------------------------------------------------------

    Molecular point group: c1
  Charge       = 0
  Multiplicity = 1
  Basis Set: AUG-CC-PVTZ
    Blend: AUG-CC-PVTZ
  Basis Set: (AUG-CC-PVTZ AUX)
    Blend: AUG-CC-PVTZ-JKFIT

    Orbital Energies [Eh]
    ---------------------

    Doubly Occupied:

       1A    -20.597848     2A    -20.541145     3A    -11.375901
       4A    -11.287470     5A    -11.244155     6A    -11.242440
       7A    -11.228209     8A    -11.226519     9A    -11.223298
      10A    -11.220420    11A    -11.218053    12A     -1.448618
      13A     -1.348045    14A     -1.112366    15A     -1.064009
      16A     -1.022417    17A     -0.976656    18A     -0.921066
      19A     -0.880115    20A     -0.835243    21A     -0.767916
      22A     -0.722138    23A     -0.688041    24A     -0.679658
      25A     -0.660555    26A     -0.638607    27A     -0.622213
      28A     -0.607090    29A     -0.590227    30A     -0.571741
      31A     -0.554928    32A     -0.547533    33A     -0.533886
      34A     -0.522567    35A     -0.517782    36A     -0.515816
      37A     -0.507953    38A     -0.492444    39A     -0.476555
      40A     -0.465675    41A     -0.457716    42A     -0.445045
      43A     -0.350268

  @DF-RHF Final Energy:  -500.03412722638853

   => Energetics <=

    Nuclear Repulsion Energy =            602.7622169963373153
    One-Electron Energy =               -1875.6919959210865727
    Two-Electron Energy =                 772.8956516983608935
    Total Energy =                       -500.0341272263884775
  Basis Set: (AUG-CC-PVTZ AUX)
    Blend: AUG-CC-PVTZ-RI
    Molecular point group: c1

    Geometry (in Angstrom), charge = 0, multiplicity = 1:

       Center              X                  Y                   Z               Mass
    ------------   -----------------  -----------------  -----------------  -----------------
         O            1.072231066630     0.470089083104     0.009443896335    15.994914619570
         O            2.531717066630    -1.111086916896    -0.716649103665    15.994914619570
         C           -2.346041733370    -0.064565416896     0.331566196335    12.000000000000
         C           -3.597480933370     0.775727083104     0.402340896335    12.000000000000
         C           -1.262048933370     0.389002083104    -0.300870103665    12.000000000000
         C            0.008877066630    -0.336639916896    -0.566766103665    12.000000000000
         C           -2.512623933370    -1.479808916896     0.858651896335    12.000000000000
         C           -4.738830533370     0.389971483104    -0.545107403665    12.000000000000
         C            3.355172066630     0.868977083104     0.433755896335    12.000000000000
         C            2.312627066630    -0.050301916896    -0.152588103665    12.000000000000
         C            4.758647066630     0.298368083104     0.309224896335    12.000000000000
         H           -3.328513933370     1.818715083104     0.200347896335     1.007825032230
         H           -3.978392933370     0.740822083104     1.431700896335     1.007825032230
         H           -1.272482933370     1.419539083104    -0.655294103665     1.007825032230
         H            0.203646066630    -0.440676916896    -1.640110103665     1.007825032230
         H            0.048034066630    -1.336460916896    -0.129715103665     1.007825032230
         H           -2.794558933370    -1.420875916896     1.918330896335     1.007825032230
         H           -3.310083933370    -2.031075916896     0.346371896335     1.007825032230
         H           -1.599873933370    -2.073424916896     0.782961896335     1.007825032230
         H           -5.043053933370    -0.672026916896    -0.364933103665     1.007825032230
         H           -4.352990933370     0.395533083104    -1.597019103665     1.007825032230
         H           -5.577116933370     1.009455083104    -0.471264103665     1.007825032230
         H            3.269119066630     1.835460083104    -0.075660103665     1.007825032230
         H            3.088052066630     1.057508083104     1.478308896335     1.007825032230
         H            4.834547066630    -0.656783916896     0.831531896335     1.007825032230
         H            5.011002066630     0.124035083104    -0.738583103665     1.007825032230
         H            5.491122066630     0.988276083104     0.736148896335     1.007825032230

  Basis Set: AUG-CC-PVTZ
    Blend: AUG-CC-PVTZ
  Basis Set: (AUG-CC-PVTZ AUX)
    Blend: AUG-CC-PVTZ-JKFIT
	 Reference Energy          =    -500.0341272263885344 [Eh]
	 Singles Energy            =      -0.0000000000000000 [Eh]
	 Same-Spin Energy          =      -0.5095719174203648 [Eh]
	 Opposite-Spin Energy      =      -1.7166896329172325 [Eh]
	 Correlation Energy        =      -2.2262615503375973 [Eh]
	 Total Energy              =    -502.2603887767261313 [Eh]

	 ================> DF-SCS-MP2 Energies <==================
	-----------------------------------------------------------
	 SCS Same-Spin Scale       =       0.3333333333333333 [-]
	 SCS Opposite-Spin Scale   =       1.2000000000000000 [-]
	 SCS Same-Spin Energy      =      -0.1698573058067883 [Eh]
	 SCS Opposite-Spin Energy  =      -2.0600275595006790 [Eh]
	 SCS Correlation Energy    =      -2.2298848653074672 [Eh]
	 SCS Total Energy          =    -502.2640120916959745 [Eh]
	-----------------------------------------------------------

  Dipole Moment: [D]
     X:    -1.4225      Y:     1.1919      Z:     0.7819     Total:     2.0138

*** Psi4 exiting successfully. Buy a developer a beer!
