                               Psi4 1.3.2 release

  ==> Input File <==

--------------------------------------------------------------------------
#psi4
#
memory 32 gb

molecule  {
0 1
  O        1.0716460     0.4753830     0.0137820
  O        2.5311320    -1.1057930    -0.7123110
  C       -2.3693550    -0.0883010     0.2982860
  C       -3.5980660     0.7810210     0.4066790
  C       -1.2626340     0.3942960    -0.2965320
  C       -0.0002360    -0.3228189    -0.5584890
  C       -2.5132090    -1.4745150     0.8629900
  C       -4.7090750     0.3554230    -0.5595870
  C        3.3545870     0.8742710     0.4380940
  C        2.3166191    -0.0357622    -0.1424744
  C        4.7580620     0.3036620     0.3135630
  H       -3.3290990     1.8240090     0.2046860
  H       -3.9789780     0.7461160     1.4360390
  H       -1.2730680     1.4248330    -0.6509560
  H        0.2030610    -0.4353830    -1.6357720
  H        0.0474490    -1.3311670    -0.1253770
  H       -2.7951440    -1.4155820     1.9226690
  H       -3.3106690    -2.0257820     0.3507100
  H       -1.6004590    -2.0681310     0.7873000
  H       -5.0436390    -0.6667330    -0.3605950
  H       -4.3535760     0.4008270    -1.5926810
  H       -5.5777020     1.0147490    -0.4669260
  H        3.2685340     1.8407540    -0.0713220
  H        3.0874670     1.0628020     1.4826470
  H        4.8339620    -0.6514900     0.8358700
  H        5.0104170     0.1293290    -0.7342450
  H        5.4905370     0.9935700     0.7404870
units angstrom
no_reorient  #important for SAPT in psi4, default
symmetry c1  #important for SAPT in psi4, default
}

set PROPERTIES_ORIGIN ["COM"]
properties('MP2/aug-cc-pvtz', properties = ['dipole'])
--------------------------------------------------------------------------

    Molecular point group: c1
  Charge       = 0
  Multiplicity = 1
  Basis Set: AUG-CC-PVTZ
    Blend: AUG-CC-PVTZ
  Basis Set: (AUG-CC-PVTZ AUX)
    Blend: AUG-CC-PVTZ-JKFIT

    Orbital Energies [Eh]
    ---------------------

    Doubly Occupied:

       1A    -20.596919     2A    -20.539192     3A    -11.376501
       4A    -11.286880     5A    -11.244890     6A    -11.242756
       7A    -11.228685     8A    -11.226517     9A    -11.222798
      10A    -11.219402    11A    -11.218445    12A     -1.445613
      13A     -1.341857    14A     -1.113473    15A     -1.066309
      16A     -1.023165    17A     -0.978509    18A     -0.920275
      19A     -0.880701    20A     -0.833565    21A     -0.766362
      22A     -0.723536    23A     -0.687569    24A     -0.679118
      25A     -0.658639    26A     -0.639291    27A     -0.624420
      28A     -0.604840    29A     -0.588240    30A     -0.574789
      31A     -0.552395    32A     -0.544126    33A     -0.532724
      34A     -0.523213    35A     -0.517080    36A     -0.514626
      37A     -0.511370    38A     -0.491397    39A     -0.484301
      40A     -0.466431    41A     -0.454548    42A     -0.444544
      43A     -0.346298

  @DF-RHF Final Energy:  -500.03684548832746

   => Energetics <=

    Nuclear Repulsion Energy =            603.0737730407188337
    One-Electron Energy =               -1876.3486162846456864
    Two-Electron Energy =                 773.2379977555993946
    Total Energy =                       -500.0368454883274580
  Basis Set: (AUG-CC-PVTZ AUX)
    Blend: AUG-CC-PVTZ-RI
    Molecular point group: c1

    Geometry (in Angstrom), charge = 0, multiplicity = 1:

       Center              X                  Y                   Z               Mass
    ------------   -----------------  -----------------  -----------------  -----------------
         O            1.071949620314     0.474016879172     0.013035202060    15.994914619570
         O            2.531435620314    -1.107159120828    -0.713057797940    15.994914619570
         C           -2.369051379686    -0.089667120828     0.297539202060    12.000000000000
         C           -3.597762379686     0.779654879172     0.405932202060    12.000000000000
         C           -1.262330379686     0.392929879172    -0.297278797940    12.000000000000
         C            0.000067620314    -0.324185020828    -0.559235797940    12.000000000000
         C           -2.512905379686    -1.475881120828     0.862243202060    12.000000000000
         C           -4.708771379686     0.354056879172    -0.560333797940    12.000000000000
         C            3.354890620314     0.872904879172     0.437347202060    12.000000000000
         C            2.316922720314    -0.037128320828    -0.143221197940    12.000000000000
         C            4.758365620314     0.302295879172     0.312816202060    12.000000000000
         H           -3.328795379686     1.822642879172     0.203939202060     1.007825032230
         H           -3.978674379686     0.744749879172     1.435292202060     1.007825032230
         H           -1.272764379686     1.423466879172    -0.651702797940     1.007825032230
         H            0.203364620314    -0.436749120828    -1.636518797940     1.007825032230
         H            0.047752620314    -1.332533120828    -0.126123797940     1.007825032230
         H           -2.794840379686    -1.416948120828     1.921922202060     1.007825032230
         H           -3.310365379686    -2.027148120828     0.349963202060     1.007825032230
         H           -1.600155379686    -2.069497120828     0.786553202060     1.007825032230
         H           -5.043335379686    -0.668099120828    -0.361341797940     1.007825032230
         H           -4.353272379686     0.399460879172    -1.593427797940     1.007825032230
         H           -5.577398379686     1.013382879172    -0.467672797940     1.007825032230
         H            3.268837620314     1.839387879172    -0.072068797940     1.007825032230
         H            3.087770620314     1.061435879172     1.481900202060     1.007825032230
         H            4.834265620314    -0.652856120828     0.835123202060     1.007825032230
         H            5.010720620314     0.127962879172    -0.734991797940     1.007825032230
         H            5.490840620314     0.992203879172     0.739740202060     1.007825032230

  Basis Set: AUG-CC-PVTZ
    Blend: AUG-CC-PVTZ
  Basis Set: (AUG-CC-PVTZ AUX)
    Blend: AUG-CC-PVTZ-JKFIT
	 Reference Energy          =    -500.0368454883274580 [Eh]
	 Singles Energy            =      -0.0000000000000000 [Eh]
	 Same-Spin Energy          =      -0.5101278652535413 [Eh]
	 Opposite-Spin Energy      =      -1.7173515632236573 [Eh]
	 Correlation Energy        =      -2.2274794284771984 [Eh]
	 Total Energy              =    -502.2643249168046395 [Eh]

	 ================> DF-SCS-MP2 Energies <==================
	-----------------------------------------------------------
	 SCS Same-Spin Scale       =       0.3333333333333333 [-]
	 SCS Opposite-Spin Scale   =       1.2000000000000000 [-]
	 SCS Same-Spin Energy      =      -0.1700426217511804 [Eh]
	 SCS Opposite-Spin Energy  =      -2.0608218758683887 [Eh]
	 SCS Correlation Energy    =      -2.2308644976195691 [Eh]
	 SCS Total Energy          =    -502.2677099859470218 [Eh]
	-----------------------------------------------------------

  Dipole Moment: [D]
     X:    -1.4577      Y:     1.2392      Z:     0.8705     Total:     2.1020

*** Psi4 exiting successfully. Buy a developer a beer!
