                               Psi4 1.3.2 release

  ==> Input File <==

--------------------------------------------------------------------------
#psi4
#
memory 32 gb

molecule  {
0 1
  O        1.0886057     0.4581926     0.0059930
  O        2.5311320    -1.1057930    -0.7123110
  C       -2.3693550    -0.0883010     0.2982860
  C       -3.5980660     0.7810210     0.4066790
  C       -1.2756850     0.3754220    -0.3086727
  C        0.0082920    -0.3313460    -0.5624280
  C       -2.5132090    -1.4745150     0.8629900
  C       -4.7090750     0.3554230    -0.5595870
  C        3.3545870     0.8742710     0.4380940
  C        2.3120420    -0.0450080    -0.1482500
  C        4.7580620     0.3036620     0.3135630
  H       -3.3290990     1.8240090     0.2046860
  H       -3.9789780     0.7461160     1.4360390
  H       -1.2730680     1.4248330    -0.6509560
  H        0.2030610    -0.4353830    -1.6357720
  H        0.0474490    -1.3311670    -0.1253770
  H       -2.7951440    -1.4155820     1.9226690
  H       -3.3106690    -2.0257820     0.3507100
  H       -1.6004590    -2.0681310     0.7873000
  H       -5.0436390    -0.6667330    -0.3605950
  H       -4.3535760     0.4008270    -1.5926810
  H       -5.5777020     1.0147490    -0.4669260
  H        3.2685340     1.8407540    -0.0713220
  H        3.0874670     1.0628020     1.4826470
  H        4.8339620    -0.6514900     0.8358700
  H        5.0104170     0.1293290    -0.7342450
  H        5.4905370     0.9935700     0.7404870
units angstrom
no_reorient  #important for SAPT in psi4, default
symmetry c1  #important for SAPT in psi4, default
}

set PROPERTIES_ORIGIN ["COM"]
properties('MP2/aug-cc-pvtz', properties = ['dipole'])
--------------------------------------------------------------------------

    Molecular point group: c1
  Charge       = 0
  Multiplicity = 1
  Basis Set: AUG-CC-PVTZ
    Blend: AUG-CC-PVTZ
  Basis Set: (AUG-CC-PVTZ AUX)
    Blend: AUG-CC-PVTZ-JKFIT

    Orbital Energies [Eh]
    ---------------------

    Doubly Occupied:

       1A    -20.598197     2A    -20.535860     3A    -11.372374
       4A    -11.288257     5A    -11.244003     6A    -11.241228
       7A    -11.229393     8A    -11.226805     9A    -11.224351
      10A    -11.219892    11A    -11.217039    12A     -1.455416
      13A     -1.345831    14A     -1.115368    15A     -1.063787
      16A     -1.023554    17A     -0.979505    18A     -0.922056
      19A     -0.879114    20A     -0.835560    21A     -0.768712
      22A     -0.723043    23A     -0.687864    24A     -0.682467
      25A     -0.661524    26A     -0.639470    27A     -0.624549
      28A     -0.605858    29A     -0.588144    30A     -0.575816
      31A     -0.553462    32A     -0.545185    33A     -0.533833
      34A     -0.521571    35A     -0.516544    36A     -0.514832
      37A     -0.510141    38A     -0.491717    39A     -0.485081
      40A     -0.465003    41A     -0.455762    42A     -0.442905
      43A     -0.350174

  @DF-RHF Final Energy:  -500.03975726460641

   => Energetics <=

    Nuclear Repulsion Energy =            603.6053112368972506
    One-Electron Energy =               -1877.3676416390476334
    Two-Electron Energy =                 773.7225731375440319
    Total Energy =                       -500.0397572646063509
  Basis Set: (AUG-CC-PVTZ AUX)
    Blend: AUG-CC-PVTZ-RI
    Molecular point group: c1

    Geometry (in Angstrom), charge = 0, multiplicity = 1:

       Center              X                  Y                   Z               Mass
    ------------   -----------------  -----------------  -----------------  -----------------
         O            1.087871189945     0.461404653237     0.007724169688    15.994914619570
         O            2.530397489945    -1.102580946763    -0.710579830312    15.994914619570
         C           -2.370089510055    -0.085088946763     0.300017169688    12.000000000000
         C           -3.598800510055     0.784233053237     0.408410169688    12.000000000000
         C           -1.276419510055     0.378634053237    -0.306941530312    12.000000000000
         C            0.007557489945    -0.328133946763    -0.560696830312    12.000000000000
         C           -2.513943510055    -1.471302946763     0.864721169688    12.000000000000
         C           -4.709809510055     0.358635053237    -0.557855830312    12.000000000000
         C            3.353852489945     0.877483053237     0.439825169688    12.000000000000
         C            2.311307489945    -0.041795946763    -0.146518830312    12.000000000000
         C            4.757327489945     0.306874053237     0.315294169688    12.000000000000
         H           -3.329833510055     1.827221053237     0.206417169688     1.007825032230
         H           -3.979712510055     0.749328053237     1.437770169688     1.007825032230
         H           -1.273802510055     1.428045053237    -0.649224830312     1.007825032230
         H            0.202326489945    -0.432170946763    -1.634040830312     1.007825032230
         H            0.046714489945    -1.327954946763    -0.123645830312     1.007825032230
         H           -2.795878510055    -1.412369946763     1.924400169688     1.007825032230
         H           -3.311403510055    -2.022569946763     0.352441169688     1.007825032230
         H           -1.601193510055    -2.064918946763     0.789031169688     1.007825032230
         H           -5.044373510055    -0.663520946763    -0.358863830312     1.007825032230
         H           -4.354310510055     0.404039053237    -1.590949830312     1.007825032230
         H           -5.578436510055     1.017961053237    -0.465194830312     1.007825032230
         H            3.267799489945     1.843966053237    -0.069590830312     1.007825032230
         H            3.086732489945     1.066014053237     1.484378169688     1.007825032230
         H            4.833227489945    -0.648277946763     0.837601169688     1.007825032230
         H            5.009682489945     0.132541053237    -0.732513830312     1.007825032230
         H            5.489802489945     0.996782053237     0.742218169688     1.007825032230

  Basis Set: AUG-CC-PVTZ
    Blend: AUG-CC-PVTZ
  Basis Set: (AUG-CC-PVTZ AUX)
    Blend: AUG-CC-PVTZ-JKFIT
	 Reference Energy          =    -500.0397572646064077 [Eh]
	 Singles Energy            =      -0.0000000000000000 [Eh]
	 Same-Spin Energy          =      -0.5092759731114467 [Eh]
	 Opposite-Spin Energy      =      -1.7155043147735554 [Eh]
	 Correlation Energy        =      -2.2247802878850020 [Eh]
	 Total Energy              =    -502.2645375524913902 [Eh]

	 ================> DF-SCS-MP2 Energies <==================
	-----------------------------------------------------------
	 SCS Same-Spin Scale       =       0.3333333333333333 [-]
	 SCS Opposite-Spin Scale   =       1.2000000000000000 [-]
	 SCS Same-Spin Energy      =      -0.1697586577038155 [Eh]
	 SCS Opposite-Spin Energy  =      -2.0586051777282663 [Eh]
	 SCS Correlation Energy    =      -2.2283638354320821 [Eh]
	 SCS Total Energy          =    -502.2681211000385133 [Eh]
	-----------------------------------------------------------

  Dipole Moment: [D]
     X:    -1.6164      Y:     1.2434      Z:     0.8794     Total:     2.2208

*** Psi4 exiting successfully. Buy a developer a beer!
