                               Psi4 1.3.2 release

  ==> Input File <==

--------------------------------------------------------------------------
#psi4
#
memory 32 gb

molecule  {
0 1
  O        1.0716460     0.4753830     0.0137820
  O        2.5311320    -1.1057930    -0.7123110
  C       -2.3693550    -0.0883010     0.2982860
  C       -3.5980660     0.7810210     0.4066790
  C       -1.2626340     0.3942960    -0.2965320
  C        0.0082920    -0.3313460    -0.5624280
  C       -2.5132090    -1.4745150     0.8629900
  C       -4.7090750     0.3554230    -0.5595870
  C        3.3545870     0.8742710     0.4380940
  C        2.2756076    -0.0449903    -0.0781767
  C        4.7580620     0.3036620     0.3135630
  H       -3.3290990     1.8240090     0.2046860
  H       -3.9789780     0.7461160     1.4360390
  H       -1.2730680     1.4248330    -0.6509560
  H        0.2030610    -0.4353830    -1.6357720
  H        0.0474490    -1.3311670    -0.1253770
  H       -2.7951440    -1.4155820     1.9226690
  H       -3.3106690    -2.0257820     0.3507100
  H       -1.6004590    -2.0681310     0.7873000
  H       -5.0436390    -0.6667330    -0.3605950
  H       -4.3535760     0.4008270    -1.5926810
  H       -5.5777020     1.0147490    -0.4669260
  H        3.2685340     1.8407540    -0.0713220
  H        3.0417203     1.0290483     1.4754688
  H        4.8339620    -0.6514900     0.8358700
  H        5.0104170     0.1293290    -0.7342450
  H        5.4905370     0.9935700     0.7404870
units angstrom
no_reorient  #important for SAPT in psi4, default
symmetry c1  #important for SAPT in psi4, default
}

set PROPERTIES_ORIGIN ["COM"]
properties('MP2/aug-cc-pvtz', properties = ['dipole'])
--------------------------------------------------------------------------

    Molecular point group: c1
  Charge       = 0
  Multiplicity = 1
  Basis Set: AUG-CC-PVTZ
    Blend: AUG-CC-PVTZ
  Basis Set: (AUG-CC-PVTZ AUX)
    Blend: AUG-CC-PVTZ-JKFIT

    Orbital Energies [Eh]
    ---------------------

    Doubly Occupied:

       1A    -20.607325     2A    -20.530327     3A    -11.376315
       4A    -11.291276     5A    -11.247054     6A    -11.242083
       7A    -11.230223     8A    -11.228344     9A    -11.225733
      10A    -11.220643    11A    -11.217191    12A     -1.459749
      13A     -1.325475    14A     -1.115467    15A     -1.064181
      16A     -1.025185    17A     -0.981760    18A     -0.923536
      19A     -0.881092    20A     -0.836628    21A     -0.774447
      22A     -0.723643    23A     -0.687178    24A     -0.681165
      25A     -0.659683    26A     -0.639829    27A     -0.624191
      28A     -0.607336    29A     -0.585951    30A     -0.575636
      31A     -0.554293    32A     -0.546091    33A     -0.533269
      34A     -0.524795    35A     -0.517052    36A     -0.514149
      37A     -0.509738    38A     -0.490349    39A     -0.485416
      40A     -0.467763    41A     -0.449619    42A     -0.437022
      43A     -0.348981

  @DF-RHF Final Energy:  -500.03030747895480

   => Energetics <=

    Nuclear Repulsion Energy =            603.2680886163378773
    One-Electron Energy =               -1876.6624258241899952
    Two-Electron Energy =                 773.3640297288972079
    Total Energy =                       -500.0303074789547964
  Basis Set: (AUG-CC-PVTZ AUX)
    Blend: AUG-CC-PVTZ-RI
    Molecular point group: c1

    Geometry (in Angstrom), charge = 0, multiplicity = 1:

       Center              X                  Y                   Z               Mass
    ------------   -----------------  -----------------  -----------------  -----------------
         O            1.074741834940     0.475599559739     0.008441986202    15.994914619570
         O            2.534227834940    -1.105576440261    -0.717651013798    15.994914619570
         C           -2.366259165060    -0.088084440261     0.292945986202    12.000000000000
         C           -3.594970165060     0.781237559739     0.401338986202    12.000000000000
         C           -1.259538165060     0.394512559739    -0.301872013798    12.000000000000
         C            0.011387834940    -0.331129440261    -0.567768013798    12.000000000000
         C           -2.510113165060    -1.474298440261     0.857649986202    12.000000000000
         C           -4.705979165060     0.355639559739    -0.564927013798    12.000000000000
         C            3.357682834940     0.874487559739     0.432753986202    12.000000000000
         C            2.278703434940    -0.044773740261    -0.083516713798    12.000000000000
         C            4.761157834940     0.303878559739     0.308222986202    12.000000000000
         H           -3.326003165060     1.824225559739     0.199345986202     1.007825032230
         H           -3.975882165060     0.746332559739     1.430698986202     1.007825032230
         H           -1.269972165060     1.425049559739    -0.656296013798     1.007825032230
         H            0.206156834940    -0.435166440261    -1.641112013798     1.007825032230
         H            0.050544834940    -1.330950440261    -0.130717013798     1.007825032230
         H           -2.792048165060    -1.415365440261     1.917328986202     1.007825032230
         H           -3.307573165060    -2.025565440261     0.345369986202     1.007825032230
         H           -1.597363165060    -2.067914440261     0.781959986202     1.007825032230
         H           -5.040543165060    -0.666516440261    -0.365935013798     1.007825032230
         H           -4.350480165060     0.401043559739    -1.598021013798     1.007825032230
         H           -5.574606165060     1.014965559739    -0.472266013798     1.007825032230
         H            3.271629834940     1.840970559739    -0.076662013798     1.007825032230
         H            3.044816134940     1.029264859739     1.470128786202     1.007825032230
         H            4.837057834940    -0.651273440261     0.830529986202     1.007825032230
         H            5.013512834940     0.129545559739    -0.739585013798     1.007825032230
         H            5.493632834940     0.993786559739     0.735146986202     1.007825032230

  Basis Set: AUG-CC-PVTZ
    Blend: AUG-CC-PVTZ
  Basis Set: (AUG-CC-PVTZ AUX)
    Blend: AUG-CC-PVTZ-JKFIT
	 Reference Energy          =    -500.0303074789547964 [Eh]
	 Singles Energy            =      -0.0000000000000000 [Eh]
	 Same-Spin Energy          =      -0.5103773127798830 [Eh]
	 Opposite-Spin Energy      =      -1.7179613323982643 [Eh]
	 Correlation Energy        =      -2.2283386451781473 [Eh]
	 Total Energy              =    -502.2586461241329516 [Eh]

	 ================> DF-SCS-MP2 Energies <==================
	-----------------------------------------------------------
	 SCS Same-Spin Scale       =       0.3333333333333333 [-]
	 SCS Opposite-Spin Scale   =       1.2000000000000000 [-]
	 SCS Same-Spin Energy      =      -0.1701257709266276 [Eh]
	 SCS Opposite-Spin Energy  =      -2.0615535988779170 [Eh]
	 SCS Correlation Energy    =      -2.2316793698045445 [Eh]
	 SCS Total Energy          =    -502.2619868487593635 [Eh]
	-----------------------------------------------------------

  Dipole Moment: [D]
     X:    -1.8497      Y:     1.3184      Z:     0.9423     Total:     2.4591

*** Psi4 exiting successfully. Buy a developer a beer!
