                               Psi4 1.3.2 release

  ==> Input File <==

--------------------------------------------------------------------------
#psi4
#
memory 32 gb

molecule  {
0 1
  O        1.0716460     0.4753830     0.0137820
  O        2.5311320    -1.1057930    -0.7123110
  C       -2.3507868    -0.1206970     0.2289792
  C       -3.5980660     0.7810210     0.4066790
  C       -1.2626340     0.3942960    -0.2965320
  C        0.0082920    -0.3313460    -0.5624280
  C       -2.5132090    -1.4745150     0.8629900
  C       -4.7090750     0.3554230    -0.5595870
  C        3.3545870     0.8742710     0.4380940
  C        2.3120420    -0.0450080    -0.1482500
  C        4.7580620     0.3036620     0.3135630
  H       -3.3290990     1.8240090     0.2046860
  H       -3.9789780     0.7461160     1.4360390
  H       -1.2730680     1.4248330    -0.6509560
  H        0.2030610    -0.4353830    -1.6357720
  H        0.0474490    -1.3311670    -0.1253770
  H       -2.7953084    -1.4730509     1.9242618
  H       -3.3106690    -2.0257820     0.3507100
  H       -1.6004590    -2.0681310     0.7873000
  H       -5.0436390    -0.6667330    -0.3605950
  H       -4.3535760     0.4008270    -1.5926810
  H       -5.5777020     1.0147490    -0.4669260
  H        3.2685340     1.8407540    -0.0713220
  H        3.0874670     1.0628020     1.4826470
  H        4.8339620    -0.6514900     0.8358700
  H        5.0104170     0.1293290    -0.7342450
  H        5.4905370     0.9935700     0.7404870
units angstrom
no_reorient  #important for SAPT in psi4, default
symmetry c1  #important for SAPT in psi4, default
}

set PROPERTIES_ORIGIN ["COM"]
properties('MP2/aug-cc-pvtz', properties = ['dipole'])
--------------------------------------------------------------------------

    Molecular point group: c1
  Charge       = 0
  Multiplicity = 1
  Basis Set: AUG-CC-PVTZ
    Blend: AUG-CC-PVTZ
  Basis Set: (AUG-CC-PVTZ AUX)
    Blend: AUG-CC-PVTZ-JKFIT

    Orbital Energies [Eh]
    ---------------------

    Doubly Occupied:

       1A    -20.597775     2A    -20.541092     3A    -11.375857
       4A    -11.286199     5A    -11.242485     6A    -11.241457
       7A    -11.229038     8A    -11.226356     9A    -11.220862
      10A    -11.218086    11A    -11.217118    12A     -1.448512
      13A     -1.347959    14A     -1.113245    15A     -1.063637
      16A     -1.021739    17A     -0.977124    18A     -0.922682
      19A     -0.877267    20A     -0.831955    21A     -0.768074
      22A     -0.724082    23A     -0.688206    24A     -0.679778
      25A     -0.660810    26A     -0.638328    27A     -0.622176
      28A     -0.605552    29A     -0.588111    30A     -0.569453
      31A     -0.553866    32A     -0.544381    33A     -0.534512
      34A     -0.525865    35A     -0.519227    36A     -0.514985
      37A     -0.511405    38A     -0.492631    39A     -0.484083
      40A     -0.458431    41A     -0.452000    42A     -0.444458
      43A     -0.354862

  @DF-RHF Final Energy:  -500.03511723422815

   => Energetics <=

    Nuclear Repulsion Energy =            603.2515863992809955
    One-Electron Energy =               -1876.7019632355800240
    Two-Electron Energy =                 773.4152596020708188
    Total Energy =                       -500.0351172342282098
  Basis Set: (AUG-CC-PVTZ AUX)
    Blend: AUG-CC-PVTZ-RI
    Molecular point group: c1

    Geometry (in Angstrom), charge = 0, multiplicity = 1:

       Center              X                  Y                   Z               Mass
    ------------   -----------------  -----------------  -----------------  -----------------
         O            1.070219719523     0.478244181291     0.019099009867    15.994914619570
         O            2.529705719523    -1.102931818709    -0.706993990133    15.994914619570
         C           -2.352213080477    -0.117835818709     0.234296209867    12.000000000000
         C           -3.599492280477     0.783882181291     0.411996009867    12.000000000000
         C           -1.264060280477     0.397157181291    -0.291214990133    12.000000000000
         C            0.006865719523    -0.328484818709    -0.557110990133    12.000000000000
         C           -2.514635280477    -1.471653818709     0.868307009867    12.000000000000
         C           -4.710501280477     0.358284181291    -0.554269990133    12.000000000000
         C            3.353160719523     0.877132181291     0.443411009867    12.000000000000
         C            2.310615719523    -0.042146818709    -0.142932990133    12.000000000000
         C            4.756635719523     0.306523181291     0.318880009867    12.000000000000
         H           -3.330525280477     1.826870181291     0.210003009867     1.007825032230
         H           -3.980404280477     0.748977181291     1.441356009867     1.007825032230
         H           -1.274494280477     1.427694181291    -0.645638990133     1.007825032230
         H            0.201634719523    -0.432521818709    -1.630454990133     1.007825032230
         H            0.046022719523    -1.328305818709    -0.120059990133     1.007825032230
         H           -2.796734680477    -1.470189718709     1.929578809867     1.007825032230
         H           -3.312095280477    -2.022920818709     0.356027009867     1.007825032230
         H           -1.601885280477    -2.065269818709     0.792617009867     1.007825032230
         H           -5.045065280477    -0.663871818709    -0.355277990133     1.007825032230
         H           -4.355002280477     0.403688181291    -1.587363990133     1.007825032230
         H           -5.579128280477     1.017610181291    -0.461608990133     1.007825032230
         H            3.267107719523     1.843615181291    -0.066004990133     1.007825032230
         H            3.086040719523     1.065663181291     1.487964009867     1.007825032230
         H            4.832535719523    -0.648628818709     0.841187009867     1.007825032230
         H            5.008990719523     0.132190181291    -0.728927990133     1.007825032230
         H            5.489110719523     0.996431181291     0.745804009867     1.007825032230

  Basis Set: AUG-CC-PVTZ
    Blend: AUG-CC-PVTZ
  Basis Set: (AUG-CC-PVTZ AUX)
    Blend: AUG-CC-PVTZ-JKFIT
	 Reference Energy          =    -500.0351172342281529 [Eh]
	 Singles Energy            =      -0.0000000000000000 [Eh]
	 Same-Spin Energy          =      -0.5092876400297293 [Eh]
	 Opposite-Spin Energy      =      -1.7162627610788754 [Eh]
	 Correlation Energy        =      -2.2255504011086047 [Eh]
	 Total Energy              =    -502.2606676353367448 [Eh]

	 ================> DF-SCS-MP2 Energies <==================
	-----------------------------------------------------------
	 SCS Same-Spin Scale       =       0.3333333333333333 [-]
	 SCS Opposite-Spin Scale   =       1.2000000000000000 [-]
	 SCS Same-Spin Energy      =      -0.1697625466765764 [Eh]
	 SCS Opposite-Spin Energy  =      -2.0595153132946504 [Eh]
	 SCS Correlation Energy    =      -2.2292778599712268 [Eh]
	 SCS Total Energy          =    -502.2643950941993580 [Eh]
	-----------------------------------------------------------

  Dipole Moment: [D]
     X:    -1.3596      Y:     1.1885      Z:     0.8827     Total:     2.0100

*** Psi4 exiting successfully. Buy a developer a beer!
