                               Psi4 1.3.2 release

  ==> Input File <==

--------------------------------------------------------------------------
#psi4
#
memory 32 gb

molecule  {
0 1
  O        1.0716460     0.4753830     0.0137820
  O        2.5311320    -1.1057930    -0.7123110
  C       -2.3693550    -0.0883010     0.2982860
  C       -3.5980660     0.7810210     0.4066790
  C       -1.2626340     0.3942960    -0.2965320
  C        0.0082920    -0.3313460    -0.5624280
  C       -2.5132090    -1.4745150     0.8629900
  C       -4.7090750     0.3554230    -0.5595870
  C        3.3545870     0.8742710     0.4380940
  C        2.3120420    -0.0450080    -0.1482500
  C        4.7580620     0.3036620     0.3135630
  H       -3.3290990     1.8240090     0.2046860
  H       -3.9789780     0.7461160     1.4360390
  H       -1.2721106     1.3302737    -0.6184350
  H        0.2030610    -0.4353830    -1.6357720
  H        0.0474490    -1.3311670    -0.1253770
  H       -2.7951440    -1.4155820     1.9226690
  H       -3.3106690    -2.0257820     0.3507100
  H       -1.6004590    -2.0681310     0.7873000
  H       -5.0436390    -0.6667330    -0.3605950
  H       -4.3535760     0.4008270    -1.5926810
  H       -5.5777020     1.0147490    -0.4669260
  H        3.2685340     1.8407540    -0.0713220
  H        3.0874670     1.0628020     1.4826470
  H        4.8339620    -0.6514900     0.8358700
  H        5.0104170     0.1293290    -0.7342450
  H        5.4905370     0.9935700     0.7404870
units angstrom
no_reorient  #important for SAPT in psi4, default
symmetry c1  #important for SAPT in psi4, default
}

set PROPERTIES_ORIGIN ["COM"]
properties('MP2/aug-cc-pvtz', properties = ['dipole'])
--------------------------------------------------------------------------

    Molecular point group: c1
  Charge       = 0
  Multiplicity = 1
  Basis Set: AUG-CC-PVTZ
    Blend: AUG-CC-PVTZ
  Basis Set: (AUG-CC-PVTZ AUX)
    Blend: AUG-CC-PVTZ-JKFIT

    Orbital Energies [Eh]
    ---------------------

    Doubly Occupied:

       1A    -20.597171     2A    -20.540635     3A    -11.375402
       4A    -11.285318     5A    -11.243611     6A    -11.242150
       7A    -11.228558     8A    -11.225551     9A    -11.219324
      10A    -11.217825    11A    -11.211133    12A     -1.447978
      13A     -1.347474    14A     -1.114013    15A     -1.063859
      16A     -1.023220    17A     -0.978179    18A     -0.922115
      19A     -0.878975    20A     -0.835447    21A     -0.768257
      22A     -0.731291    23A     -0.689966    24A     -0.679885
      25A     -0.661785    26A     -0.641057    27A     -0.623579
      28A     -0.607044    29A     -0.589121    30A     -0.574101
      31A     -0.552648    32A     -0.544409    33A     -0.534200
      34A     -0.524297    35A     -0.519111    36A     -0.514869
      37A     -0.513431    38A     -0.492353    39A     -0.483967
      40A     -0.467133    41A     -0.457260    42A     -0.444341
      43A     -0.345573

  @DF-RHF Final Energy:  -500.03253114563745

   => Energetics <=

    Nuclear Repulsion Energy =            603.6081296221210550
    One-Electron Energy =               -1877.3660948076937984
    Two-Electron Energy =                 773.7254340399351804
    Total Energy =                       -500.0325311456374493
  Basis Set: (AUG-CC-PVTZ AUX)
    Blend: AUG-CC-PVTZ-RI
    Molecular point group: c1

    Geometry (in Angstrom), charge = 0, multiplicity = 1:

       Center              X                  Y                   Z               Mass
    ------------   -----------------  -----------------  -----------------  -----------------
         O            1.071639748217     0.475993460351     0.013571983959    15.994914619570
         O            2.531125748217    -1.105182539649    -0.712521016041    15.994914619570
         C           -2.369361251783    -0.087690539649     0.298075983959    12.000000000000
         C           -3.598072251783     0.781631460351     0.406468983959    12.000000000000
         C           -1.262640251783     0.394906460351    -0.296742016041    12.000000000000
         C            0.008285748217    -0.330735539649    -0.562638016041    12.000000000000
         C           -2.513215251783    -1.473904539649     0.862779983959    12.000000000000
         C           -4.709081251783     0.356033460351    -0.559797016041    12.000000000000
         C            3.354580748217     0.874881460351     0.437883983959    12.000000000000
         C            2.312035748217    -0.044397539649    -0.148460016041    12.000000000000
         C            4.758055748217     0.304272460351     0.313352983959    12.000000000000
         H           -3.329105251783     1.824619460351     0.204475983959     1.007825032230
         H           -3.978984251783     0.746726460351     1.435828983959     1.007825032230
         H           -1.272116851783     1.330884160351    -0.618645016041     1.007825032230
         H            0.203054748217    -0.434772539649    -1.635982016041     1.007825032230
         H            0.047442748217    -1.330556539649    -0.125587016041     1.007825032230
         H           -2.795150251783    -1.414971539649     1.922458983959     1.007825032230
         H           -3.310675251783    -2.025171539649     0.350499983959     1.007825032230
         H           -1.600465251783    -2.067520539649     0.787089983959     1.007825032230
         H           -5.043645251783    -0.666122539649    -0.360805016041     1.007825032230
         H           -4.353582251783     0.401437460351    -1.592891016041     1.007825032230
         H           -5.577708251783     1.015359460351    -0.467136016041     1.007825032230
         H            3.268527748217     1.841364460351    -0.071532016041     1.007825032230
         H            3.087460748217     1.063412460351     1.482436983959     1.007825032230
         H            4.833955748217    -0.650879539649     0.835659983959     1.007825032230
         H            5.010410748217     0.129939460351    -0.734455016041     1.007825032230
         H            5.490530748217     0.994180460351     0.740276983959     1.007825032230

  Basis Set: AUG-CC-PVTZ
    Blend: AUG-CC-PVTZ
  Basis Set: (AUG-CC-PVTZ AUX)
    Blend: AUG-CC-PVTZ-JKFIT
	 Reference Energy          =    -500.0325311456374493 [Eh]
	 Singles Energy            =      -0.0000000000000000 [Eh]
	 Same-Spin Energy          =      -0.5095736061825600 [Eh]
	 Opposite-Spin Energy      =      -1.7162959329877905 [Eh]
	 Correlation Energy        =      -2.2258695391703505 [Eh]
	 Total Energy              =    -502.2584006848077820 [Eh]

	 ================> DF-SCS-MP2 Energies <==================
	-----------------------------------------------------------
	 SCS Same-Spin Scale       =       0.3333333333333333 [-]
	 SCS Opposite-Spin Scale   =       1.2000000000000000 [-]
	 SCS Same-Spin Energy      =      -0.1698578687275200 [Eh]
	 SCS Opposite-Spin Energy  =      -2.0595551195853483 [Eh]
	 SCS Correlation Energy    =      -2.2294129883128684 [Eh]
	 SCS Total Energy          =    -502.2619441339502941 [Eh]
	-----------------------------------------------------------

  Dipole Moment: [D]
     X:    -1.4595      Y:     1.2170      Z:     0.8195     Total:     2.0695

*** Psi4 exiting successfully. Buy a developer a beer!
