                               Psi4 1.3.2 release

  ==> Input File <==

--------------------------------------------------------------------------
#psi4
#
memory 32 gb

molecule  {
0 1
  O        1.0716460     0.4753830     0.0137820
  O        2.5311320    -1.1057930    -0.7123110
  C       -2.3693550    -0.0883010     0.2982860
  C       -3.5980660     0.7810210     0.4066790
  C       -1.2626340     0.3942960    -0.2965320
  C        0.0082920    -0.3313460    -0.5624280
  C       -2.5132090    -1.4745150     0.8629900
  C       -4.7090750     0.3554230    -0.5595870
  C        3.3545870     0.8742710     0.4380940
  C        2.2569958     0.0078663    -0.1279534
  C        4.7855717     0.3689704     0.3497830
  H       -3.3290990     1.8240090     0.2046860
  H       -3.9789780     0.7461160     1.4360390
  H       -1.2730680     1.4248330    -0.6509560
  H        0.2030610    -0.4353830    -1.6357720
  H        0.0474490    -1.3311670    -0.1253770
  H       -2.7951440    -1.4155820     1.9226690
  H       -3.3106690    -2.0257820     0.3507100
  H       -1.6004590    -2.0681310     0.7873000
  H       -5.0436390    -0.6667330    -0.3605950
  H       -4.3535760     0.4008270    -1.5926810
  H       -5.5777020     1.0147490    -0.4669260
  H        3.2685340     1.8407540    -0.0713220
  H        3.0874670     1.0628020     1.4826470
  H        4.8339620    -0.6514900     0.8358700
  H        5.0104170     0.1293290    -0.7342450
  H        5.4905370     0.9935700     0.7404870
units angstrom
no_reorient  #important for SAPT in psi4, default
symmetry c1  #important for SAPT in psi4, default
}

set PROPERTIES_ORIGIN ["COM"]
properties('MP2/aug-cc-pvtz', properties = ['dipole'])
--------------------------------------------------------------------------

    Molecular point group: c1
  Charge       = 0
  Multiplicity = 1
  Basis Set: AUG-CC-PVTZ
    Blend: AUG-CC-PVTZ
  Basis Set: (AUG-CC-PVTZ AUX)
    Blend: AUG-CC-PVTZ-JKFIT

    Orbital Energies [Eh]
    ---------------------

    Doubly Occupied:

       1A    -20.615714     2A    -20.523233     3A    -11.378328
       4A    -11.295574     5A    -11.249482     6A    -11.241545
       7A    -11.231740     8A    -11.229775     9A    -11.227783
      10A    -11.221876    11A    -11.216875    12A     -1.475886
      13A     -1.309858    14A     -1.118009    15A     -1.064177
      16A     -1.028198    17A     -0.984989    18A     -0.926908
      19A     -0.882648    20A     -0.839341    21A     -0.781773
      22A     -0.726748    23A     -0.692280    24A     -0.680821
      25A     -0.663455    26A     -0.639886    27A     -0.623887
      28A     -0.604580    29A     -0.589369    30A     -0.580356
      31A     -0.562507    32A     -0.551337    33A     -0.532900
      34A     -0.525954    35A     -0.517955    36A     -0.512529
      37A     -0.504630    38A     -0.487126    39A     -0.477071
      40A     -0.469951    41A     -0.442764    42A     -0.432536
      43A     -0.351395

  @DF-RHF Final Energy:  -500.01928887267667

   => Energetics <=

    Nuclear Repulsion Energy =            602.9017822369066835
    One-Electron Energy =               -1875.8146458358692144
    Two-Electron Energy =                 772.8935747262859195
    Total Energy =                       -500.0192888726766114
  Basis Set: (AUG-CC-PVTZ AUX)
    Blend: AUG-CC-PVTZ-RI
    Molecular point group: c1

    Geometry (in Angstrom), charge = 0, multiplicity = 1:

       Center              X                  Y                   Z               Mass
    ------------   -----------------  -----------------  -----------------  -----------------
         O            1.073762560429     0.466298739529     0.009437700904    15.994914619570
         O            2.533248560429    -1.114877260471    -0.716655299096    15.994914619570
         C           -2.367238439571    -0.097385260471     0.293941700904    12.000000000000
         C           -3.595949439571     0.771936739529     0.402334700904    12.000000000000
         C           -1.260517439571     0.385211739529    -0.300876299096    12.000000000000
         C            0.010408560429    -0.340430260471    -0.566772299096    12.000000000000
         C           -2.511092439571    -1.483599260471     0.858645700904    12.000000000000
         C           -4.706958439571     0.346338739529    -0.563931299096    12.000000000000
         C            3.356703560429     0.865186739529     0.433749700904    12.000000000000
         C            2.259112360429    -0.001217960471    -0.132297699096    12.000000000000
         C            4.787688260429     0.359886139529     0.345438700904    12.000000000000
         H           -3.326982439571     1.814924739529     0.200341700904     1.007825032230
         H           -3.976861439571     0.737031739529     1.431694700904     1.007825032230
         H           -1.270951439571     1.415748739529    -0.655300299096     1.007825032230
         H            0.205177560429    -0.444467260471    -1.640116299096     1.007825032230
         H            0.049565560429    -1.340251260471    -0.129721299096     1.007825032230
         H           -2.793027439571    -1.424666260471     1.918324700904     1.007825032230
         H           -3.308552439571    -2.034866260471     0.346365700904     1.007825032230
         H           -1.598342439571    -2.077215260471     0.782955700904     1.007825032230
         H           -5.041522439571    -0.675817260471    -0.364939299096     1.007825032230
         H           -4.351459439571     0.391742739529    -1.597025299096     1.007825032230
         H           -5.575585439571     1.005664739529    -0.471270299096     1.007825032230
         H            3.270650560429     1.831669739529    -0.075666299096     1.007825032230
         H            3.089583560429     1.053717739529     1.478302700904     1.007825032230
         H            4.836078560429    -0.660574260471     0.831525700904     1.007825032230
         H            5.012533560429     0.120244739529    -0.738589299096     1.007825032230
         H            5.492653560429     0.984485739529     0.736142700904     1.007825032230

  Basis Set: AUG-CC-PVTZ
    Blend: AUG-CC-PVTZ
  Basis Set: (AUG-CC-PVTZ AUX)
    Blend: AUG-CC-PVTZ-JKFIT
	 Reference Energy          =    -500.0192888726766682 [Eh]
	 Singles Energy            =      -0.0000000000000000 [Eh]
	 Same-Spin Energy          =      -0.5105543772932837 [Eh]
	 Opposite-Spin Energy      =      -1.7182186075843688 [Eh]
	 Correlation Energy        =      -2.2287729848776525 [Eh]
	 Total Energy              =    -502.2480618575543190 [Eh]

	 ================> DF-SCS-MP2 Energies <==================
	-----------------------------------------------------------
	 SCS Same-Spin Scale       =       0.3333333333333333 [-]
	 SCS Opposite-Spin Scale   =       1.2000000000000000 [-]
	 SCS Same-Spin Energy      =      -0.1701847924310946 [Eh]
	 SCS Opposite-Spin Energy  =      -2.0618623291012423 [Eh]
	 SCS Correlation Energy    =      -2.2320471215323368 [Eh]
	 SCS Total Energy          =    -502.2513359942090005 [Eh]
	-----------------------------------------------------------

  Dipole Moment: [D]
     X:    -2.1676      Y:     1.4943      Z:     0.9713     Total:     2.8062

*** Psi4 exiting successfully. Buy a developer a beer!
