                               Psi4 1.3.2 release

  ==> Input File <==

--------------------------------------------------------------------------
#psi4
#
memory 32 gb

molecule  {
0 1
  O        1.0910272     0.5126851     0.0354470
  O        2.5311320    -1.1057930    -0.7123110
  C       -2.3693550    -0.0883010     0.2982860
  C       -3.5980660     0.7810210     0.4066790
  C       -1.2626340     0.3942960    -0.2965320
  C        0.0082920    -0.3313460    -0.5624280
  C       -2.5132090    -1.4745150     0.8629900
  C       -4.7090750     0.3554230    -0.5595870
  C        3.3161426     0.9073883     0.4521637
  C        2.3120420    -0.0450080    -0.1482500
  C        4.7580620     0.3036620     0.3135630
  H       -3.3290990     1.8240090     0.2046860
  H       -3.9789780     0.7461160     1.4360390
  H       -1.2730680     1.4248330    -0.6509560
  H        0.2030610    -0.4353830    -1.6357720
  H        0.0474490    -1.3311670    -0.1253770
  H       -2.7951440    -1.4155820     1.9226690
  H       -3.3106690    -2.0257820     0.3507100
  H       -1.6004590    -2.0681310     0.7873000
  H       -5.0436390    -0.6667330    -0.3605950
  H       -4.3535760     0.4008270    -1.5926810
  H       -5.5777020     1.0147490    -0.4669260
  H        3.2685340     1.8407540    -0.0713220
  H        3.0874670     1.0628020     1.4826470
  H        4.8339620    -0.6514900     0.8358700
  H        5.0104170     0.1293290    -0.7342450
  H        5.4905370     0.9935700     0.7404870
units angstrom
no_reorient  #important for SAPT in psi4, default
symmetry c1  #important for SAPT in psi4, default
}

set PROPERTIES_ORIGIN ["COM"]
properties('MP2/aug-cc-pvtz', properties = ['dipole'])
--------------------------------------------------------------------------

    Molecular point group: c1
  Charge       = 0
  Multiplicity = 1
  Basis Set: AUG-CC-PVTZ
    Blend: AUG-CC-PVTZ
  Basis Set: (AUG-CC-PVTZ AUX)
    Blend: AUG-CC-PVTZ-JKFIT

    Orbital Energies [Eh]
    ---------------------

    Doubly Occupied:

       1A    -20.598197     2A    -20.542940     3A    -11.374749
       4A    -11.290641     5A    -11.245446     6A    -11.236681
       7A    -11.229179     8A    -11.227467     9A    -11.224552
      10A    -11.219873    11A    -11.217315    12A     -1.442059
      13A     -1.345796    14A     -1.113574    15A     -1.057434
      16A     -1.020334    17A     -0.977193    18A     -0.917308
      19A     -0.878956    20A     -0.833651    21A     -0.766482
      22A     -0.722479    23A     -0.683875    24A     -0.677693
      25A     -0.659680    26A     -0.640717    27A     -0.623514
      28A     -0.603840    29A     -0.586736    30A     -0.573210
      31A     -0.553649    32A     -0.546083    33A     -0.534727
      34A     -0.518926    35A     -0.517572    36A     -0.513921
      37A     -0.501670    38A     -0.498234    39A     -0.484451
      40A     -0.466921    41A     -0.460611    42A     -0.444726
      43A     -0.346793

  @DF-RHF Final Energy:  -500.03142674607903

   => Energetics <=

    Nuclear Repulsion Energy =            602.1554460812071738
    One-Electron Energy =               -1874.5340337715372243
    Two-Electron Energy =                 772.3471609442510726
    Total Energy =                       -500.0314267460789779
  Basis Set: (AUG-CC-PVTZ AUX)
    Blend: AUG-CC-PVTZ-RI
    Molecular point group: c1

    Geometry (in Angstrom), charge = 0, multiplicity = 1:

       Center              X                  Y                   Z               Mass
    ------------   -----------------  -----------------  -----------------  -----------------
         O            1.091996492037     0.506317688100     0.032145732923    15.994914619570
         O            2.532101292037    -1.112160411900    -0.715612267077    15.994914619570
         C           -2.368385707963    -0.094668411900     0.294984732923    12.000000000000
         C           -3.597096707963     0.774653588100     0.403377732923    12.000000000000
         C           -1.261664707963     0.387928588100    -0.299833267077    12.000000000000
         C            0.009261292037    -0.337713411900    -0.565729267077    12.000000000000
         C           -2.512239707963    -1.480882411900     0.859688732923    12.000000000000
         C           -4.708105707963     0.349055588100    -0.562888267077    12.000000000000
         C            3.317111892037     0.901020888100     0.448862432923    12.000000000000
         C            2.313011292037    -0.051375411900    -0.151551267077    12.000000000000
         C            4.759031292037     0.297294588100     0.310261732923    12.000000000000
         H           -3.328129707963     1.817641588100     0.201384732923     1.007825032230
         H           -3.978008707963     0.739748588100     1.432737732923     1.007825032230
         H           -1.272098707963     1.418465588100    -0.654257267077     1.007825032230
         H            0.204030292037    -0.441750411900    -1.639073267077     1.007825032230
         H            0.048418292037    -1.337534411900    -0.128678267077     1.007825032230
         H           -2.794174707963    -1.421949411900     1.919367732923     1.007825032230
         H           -3.309699707963    -2.032149411900     0.347408732923     1.007825032230
         H           -1.599489707963    -2.074498411900     0.783998732923     1.007825032230
         H           -5.042669707963    -0.673100411900    -0.363896267077     1.007825032230
         H           -4.352606707963     0.394459588100    -1.595982267077     1.007825032230
         H           -5.576732707963     1.008381588100    -0.470227267077     1.007825032230
         H            3.269503292037     1.834386588100    -0.074623267077     1.007825032230
         H            3.088436292037     1.056434588100     1.479345732923     1.007825032230
         H            4.834931292037    -0.657857411900     0.832568732923     1.007825032230
         H            5.011386292037     0.122961588100    -0.737546267077     1.007825032230
         H            5.491506292037     0.987202588100     0.737185732923     1.007825032230

  Basis Set: AUG-CC-PVTZ
    Blend: AUG-CC-PVTZ
  Basis Set: (AUG-CC-PVTZ AUX)
    Blend: AUG-CC-PVTZ-JKFIT
	 Reference Energy          =    -500.0314267460790347 [Eh]
	 Singles Energy            =      -0.0000000000000000 [Eh]
	 Same-Spin Energy          =      -0.5101458491592017 [Eh]
	 Opposite-Spin Energy      =      -1.7185503400887034 [Eh]
	 Correlation Energy        =      -2.2286961892479051 [Eh]
	 Total Energy              =    -502.2601229353269332 [Eh]

	 ================> DF-SCS-MP2 Energies <==================
	-----------------------------------------------------------
	 SCS Same-Spin Scale       =       0.3333333333333333 [-]
	 SCS Opposite-Spin Scale   =       1.2000000000000000 [-]
	 SCS Same-Spin Energy      =      -0.1700486163864006 [Eh]
	 SCS Opposite-Spin Energy  =      -2.0622604081064440 [Eh]
	 SCS Correlation Energy    =      -2.2323090244928445 [Eh]
	 SCS Total Energy          =    -502.2637357705718841 [Eh]
	-----------------------------------------------------------

  Dipole Moment: [D]
     X:    -1.6475      Y:     1.0879      Z:     0.7666     Total:     2.1179

*** Psi4 exiting successfully. Buy a developer a beer!
