                               Psi4 1.3.2 release

  ==> Input File <==

--------------------------------------------------------------------------
#psi4
#
memory 32 gb

molecule  {
0 1
  O        1.0716460     0.4753830     0.0137820
  O        2.5311320    -1.1057930    -0.7123110
  C       -2.3693550    -0.0883010     0.2982860
  C       -3.5980660     0.7810210     0.4066790
  C       -1.2626340     0.3942960    -0.2965320
  C        0.0082920    -0.3313460    -0.5624280
  C       -2.5132090    -1.4745150     0.8629900
  C       -4.7090750     0.3554230    -0.5595870
  C        3.3545870     0.8742710     0.4380940
  C        2.2941021     0.0418532    -0.1020625
  C        4.7580620     0.3036620     0.3135630
  H       -3.3290990     1.8240090     0.2046860
  H       -3.9789780     0.7461160     1.4360390
  H       -1.2730680     1.4248330    -0.6509560
  H        0.2030610    -0.4353830    -1.6357720
  H        0.0474490    -1.3311670    -0.1253770
  H       -2.7951440    -1.4155820     1.9226690
  H       -3.3106690    -2.0257820     0.3507100
  H       -1.6004590    -2.0681310     0.7873000
  H       -5.0436390    -0.6667330    -0.3605950
  H       -4.3535760     0.4008270    -1.5926810
  H       -5.5777020     1.0147490    -0.4669260
  H        3.2685340     1.8407540    -0.0713220
  H        3.0874670     1.0628020     1.4826470
  H        4.8339620    -0.6514900     0.8358700
  H        5.0104170     0.1293290    -0.7342450
  H        5.4905370     0.9935700     0.7404870
units angstrom
no_reorient  #important for SAPT in psi4, default
symmetry c1  #important for SAPT in psi4, default
}

set PROPERTIES_ORIGIN ["COM"]
properties('MP2/aug-cc-pvtz', properties = ['dipole'])
--------------------------------------------------------------------------

    Molecular point group: c1
  Charge       = 0
  Multiplicity = 1
  Basis Set: AUG-CC-PVTZ
    Blend: AUG-CC-PVTZ
  Basis Set: (AUG-CC-PVTZ AUX)
    Blend: AUG-CC-PVTZ-JKFIT

    Orbital Energies [Eh]
    ---------------------

    Doubly Occupied:

       1A    -20.611021     2A    -20.519945     3A    -11.380894
       4A    -11.293098     5A    -11.247957     6A    -11.244310
       7A    -11.230741     8A    -11.228496     9A    -11.226279
      10A    -11.221002    11A    -11.219653    12A     -1.461866
      13A     -1.289612    14A     -1.116633    15A     -1.075962
      16A     -1.027982    17A     -0.983393    18A     -0.927313
      19A     -0.888358    20A     -0.839128    21A     -0.774822
      22A     -0.725497    23A     -0.688688    24A     -0.683933
      25A     -0.657251    26A     -0.642465    27A     -0.623077
      28A     -0.609146    29A     -0.583995    30A     -0.574564
      31A     -0.552838    32A     -0.544431    33A     -0.532847
      34A     -0.530212    35A     -0.517468    36A     -0.514794
      37A     -0.503891    38A     -0.490684    39A     -0.485833
      40A     -0.468241    41A     -0.433040    42A     -0.432049
      43A     -0.350000

  @DF-RHF Final Energy:  -500.01737163395529

   => Energetics <=

    Nuclear Repulsion Energy =            602.9075943906517523
    One-Electron Energy =               -1875.9431096773898844
    Two-Electron Energy =                 773.0181436527830101
    Total Energy =                       -500.0173716339552357
  Basis Set: (AUG-CC-PVTZ AUX)
    Blend: AUG-CC-PVTZ-RI
    Molecular point group: c1

    Geometry (in Angstrom), charge = 0, multiplicity = 1:

       Center              X                  Y                   Z               Mass
    ------------   -----------------  -----------------  -----------------  -----------------
         O            1.073024904355     0.468706310412     0.010231661615    15.994914619570
         O            2.532510904355    -1.112469689588    -0.715861338385    15.994914619570
         C           -2.367976095645    -0.094977689588     0.294735661615    12.000000000000
         C           -3.596687095645     0.774344310412     0.403128661615    12.000000000000
         C           -1.261255095645     0.387619310412    -0.300082338385    12.000000000000
         C            0.009670904355    -0.338022689588    -0.565978338385    12.000000000000
         C           -2.511830095645    -1.481191689588     0.859439661615    12.000000000000
         C           -4.707696095645     0.348746310412    -0.563137338385    12.000000000000
         C            3.355965904355     0.867594310412     0.434543661615    12.000000000000
         C            2.295481004355     0.035176510412    -0.105612838385    12.000000000000
         C            4.759440904355     0.296985310412     0.310012661615    12.000000000000
         H           -3.327720095645     1.817332310412     0.201135661615     1.007825032230
         H           -3.977599095645     0.739439310412     1.432488661615     1.007825032230
         H           -1.271689095645     1.418156310412    -0.654506338385     1.007825032230
         H            0.204439904355    -0.442059689588    -1.639322338385     1.007825032230
         H            0.048827904355    -1.337843689588    -0.128927338385     1.007825032230
         H           -2.793765095645    -1.422258689588     1.919118661615     1.007825032230
         H           -3.309290095645    -2.032458689588     0.347159661615     1.007825032230
         H           -1.599080095645    -2.074807689588     0.783749661615     1.007825032230
         H           -5.042260095645    -0.673409689588    -0.364145338385     1.007825032230
         H           -4.352197095645     0.394150310412    -1.596231338385     1.007825032230
         H           -5.576323095645     1.008072310412    -0.470476338385     1.007825032230
         H            3.269912904355     1.834077310412    -0.074872338385     1.007825032230
         H            3.088845904355     1.056125310412     1.479096661615     1.007825032230
         H            4.835340904355    -0.658166689588     0.832319661615     1.007825032230
         H            5.011795904355     0.122652310412    -0.737795338385     1.007825032230
         H            5.491915904355     0.986893310412     0.736936661615     1.007825032230

  Basis Set: AUG-CC-PVTZ
    Blend: AUG-CC-PVTZ
  Basis Set: (AUG-CC-PVTZ AUX)
    Blend: AUG-CC-PVTZ-JKFIT
	 Reference Energy          =    -500.0173716339552925 [Eh]
	 Singles Energy            =      -0.0000000000000000 [Eh]
	 Same-Spin Energy          =      -0.5116671216487805 [Eh]
	 Opposite-Spin Energy      =      -1.7201173963369194 [Eh]
	 Correlation Energy        =      -2.2317845179856999 [Eh]
	 Total Energy              =    -502.2491561519410084 [Eh]

	 ================> DF-SCS-MP2 Energies <==================
	-----------------------------------------------------------
	 SCS Same-Spin Scale       =       0.3333333333333333 [-]
	 SCS Opposite-Spin Scale   =       1.2000000000000000 [-]
	 SCS Same-Spin Energy      =      -0.1705557072162601 [Eh]
	 SCS Opposite-Spin Energy  =      -2.0641408756043034 [Eh]
	 SCS Correlation Energy    =      -2.2346965828205634 [Eh]
	 SCS Total Energy          =    -502.2520682167758537 [Eh]
	-----------------------------------------------------------

  Dipole Moment: [D]
     X:    -1.8729      Y:     1.6405      Z:     1.0727     Total:     2.7110

*** Psi4 exiting successfully. Buy a developer a beer!
