                               Psi4 1.4a3.dev225

  ==> Input File <==

--------------------------------------------------------------------------
#psi4
#
memory 32 gb

molecule  {
0 1
  O       -1.1411000    -0.4541930    -0.0251880
  O       -2.5814580     1.1752260    -0.6867450
  C        2.3134570     0.0186930     0.2462000
  C        3.4821592    -0.8504240     0.3196932
  C        1.1937340    -0.4134970    -0.3651820
  C       -0.0647290     0.3542590    -0.5783780
  C        2.4850690     1.3863280     0.8546590
  C        4.7190700    -0.3405130    -0.4677320
  C       -3.4286640    -0.8122060     0.4327630
  C       -2.3749380     0.0938890    -0.1583950
  C       -4.8282690    -0.2261570     0.3119590
  H        3.2581340    -1.8761120    -0.0507320
  H        3.8122360    -1.0018650     1.3748590
  H        1.1815530    -1.4238220    -0.7735790
  H       -0.2705280     0.5138520    -1.6430550
  H       -0.0714200     1.3330110    -0.0949940
  H        3.0182560     1.3061200     1.8081990
  H        3.0814560     2.0379150     0.2067330
  H        1.5342700     1.8877430     1.0433380
  H        5.0646870     0.6170420    -0.0694620
  H        4.4484560    -0.1949880    -1.5176090
  H        5.5583810    -1.0408350    -0.4253590
  H       -3.3536290    -1.7820470    -0.0715700
  H       -3.1585900    -0.9983310     1.4781360
  H       -4.8922970     0.7333770     0.8287030
  H       -5.0879650    -0.0561110    -0.7346540
  H       -5.5642940    -0.9066400     0.7478690
units angstrom
no_reorient  #important for SAPT in psi4, default
symmetry c1  #important for SAPT in psi4, default
}

set PROPERTIES_ORIGIN ["COM"]
properties('MP2/aug-cc-pvtz', properties = ['dipole'])
--------------------------------------------------------------------------

    Molecular point group: c1
  Charge       = 0
  Multiplicity = 1
  Basis Set: AUG-CC-PVTZ
    Blend: AUG-CC-PVTZ
  Basis Set: (AUG-CC-PVTZ AUX)
    Blend: AUG-CC-PVTZ-JKFIT

    Orbital Energies [Eh]
    ---------------------

    Doubly Occupied:

       1A    -20.597467     2A    -20.541045     3A    -11.375928
       4A    -11.287114     5A    -11.242752     6A    -11.242497
       7A    -11.229557     8A    -11.226315     9A    -11.224265
      10A    -11.220513    11A    -11.218297    12A     -1.447236
      13A     -1.347616    14A     -1.117584    15A     -1.063420
      16A     -1.020337    17A     -0.975813    18A     -0.922097
      19A     -0.881492    20A     -0.832687    21A     -0.767100
      22A     -0.723296    23A     -0.688357    24A     -0.680593
      25A     -0.660040    26A     -0.639301    27A     -0.622806
      28A     -0.605407    29A     -0.589996    30A     -0.571430
      31A     -0.553575    32A     -0.546305    33A     -0.533549
      34A     -0.522501    35A     -0.518014    36A     -0.514446
      37A     -0.506121    38A     -0.492529    39A     -0.478960
      40A     -0.474164    41A     -0.457437    42A     -0.444486
      43A     -0.344885

  @DF-RHF Final Energy:  -500.03531652125986

   => Energetics <=

    Nuclear Repulsion Energy =            603.1844018178433089
    One-Electron Energy =               -1876.5407700906903301
    Two-Electron Energy =                 773.3210517515872198
    Total Energy =                       -500.0353165212598014
  Basis Set: (AUG-CC-PVTZ AUX)
    Blend: AUG-CC-PVTZ-RI
    Molecular point group: c1

    Geometry (in Angstrom), charge = 0, multiplicity = 1:

       Center              X                  Y                   Z               Mass
    ------------   -----------------  -----------------  -----------------  -----------------
         O           -1.083747105534    -0.461873040578    -0.011627792534    15.994914619570
         O           -2.524105105534     1.167545959422    -0.673184792534    15.994914619570
         C            2.370809894466     0.011012959422     0.259760207466    12.000000000000
         C            3.539512094466    -0.858104040578     0.333253407466    12.000000000000
         C            1.251086894466    -0.421177040578    -0.351621792534    12.000000000000
         C           -0.007376105534     0.346578959422    -0.564817792534    12.000000000000
         C            2.542421894466     1.378647959422     0.868219207466    12.000000000000
         C            4.776422894466    -0.348193040578    -0.454171792534    12.000000000000
         C           -3.371311105534    -0.819886040578     0.446323207466    12.000000000000
         C           -2.317585105534     0.086208959422    -0.144834792534    12.000000000000
         C           -4.770916105534    -0.233837040578     0.325519207466    12.000000000000
         H            3.315486894466    -1.883792040578    -0.037171792534     1.007825032230
         H            3.869588894466    -1.009545040578     1.388419207466     1.007825032230
         H            1.238905894466    -1.431502040578    -0.760018792534     1.007825032230
         H           -0.213175105534     0.506171959422    -1.629494792534     1.007825032230
         H           -0.014067105534     1.325330959422    -0.081433792534     1.007825032230
         H            3.075608894466     1.298439959422     1.821759207466     1.007825032230
         H            3.138808894466     2.030234959422     0.220293207466     1.007825032230
         H            1.591622894466     1.880062959422     1.056898207466     1.007825032230
         H            5.122039894466     0.609361959422    -0.055901792534     1.007825032230
         H            4.505808894466    -0.202668040578    -1.504048792534     1.007825032230
         H            5.615733894466    -1.048515040578    -0.411798792534     1.007825032230
         H           -3.296276105534    -1.789727040578    -0.058009792534     1.007825032230
         H           -3.101237105534    -1.006011040578     1.491696207466     1.007825032230
         H           -4.834944105534     0.725696959422     0.842263207466     1.007825032230
         H           -5.030612105534    -0.063791040578    -0.721093792534     1.007825032230
         H           -5.506941105534    -0.914320040578     0.761429207466     1.007825032230

  Basis Set: AUG-CC-PVTZ
    Blend: AUG-CC-PVTZ
  Basis Set: (AUG-CC-PVTZ AUX)
    Blend: AUG-CC-PVTZ-JKFIT
	 Reference Energy          =    -500.0353165212598583 [Eh]
	 Singles Energy            =      -0.0000000000000000 [Eh]
	 Same-Spin Energy          =      -0.5101467574124496 [Eh]
	 Opposite-Spin Energy      =      -1.7174648783211215 [Eh]
	 Correlation Energy        =      -2.2276116357335711 [Eh]
	 Total Energy              =    -502.2629281569934392 [Eh]

	 ================> DF-SCS-MP2 Energies <==================
	-----------------------------------------------------------
	 SCS Same-Spin Scale       =       0.3333333333333333 [-]
	 SCS Opposite-Spin Scale   =       1.2000000000000000 [-]
	 SCS Same-Spin Energy      =      -0.1700489191374832 [Eh]
	 SCS Opposite-Spin Energy  =      -2.0609578539853457 [Eh]
	 SCS Correlation Energy    =      -2.2310067731228287 [Eh]
	 SCS Total Energy          =    -502.2663232943826870 [Eh]
	-----------------------------------------------------------

  Dipole Moment: [D]
     X:     1.4306      Y:    -1.1968      Z:     0.7946     Total:     2.0274

*** Psi4 exiting successfully. Buy a developer a beer!
