                               Psi4 1.3.2 release

  ==> Input File <==

--------------------------------------------------------------------------
#psi4
#
memory 32 gb

molecule  {
0 1
  O        1.0716460     0.4753830     0.0137820
  O        2.5311320    -1.1057930    -0.7123110
  C       -2.3693550    -0.0883010     0.2982860
  C       -3.5980660     0.7810210     0.4066790
  C       -1.2626340     0.3942960    -0.2965320
  C        0.0082920    -0.3313460    -0.5624280
  C       -2.5132090    -1.4745150     0.8629900
  C       -4.7090750     0.3554230    -0.5595870
  C        3.3545870     0.8742710     0.4380940
  C        2.1289387     0.0318105    -0.1243314
  C        4.7580620     0.3036620     0.3135630
  H       -3.3290990     1.8240090     0.2046860
  H       -3.9789780     0.7461160     1.4360390
  H       -1.2730680     1.4248330    -0.6509560
  H        0.2030610    -0.4353830    -1.6357720
  H        0.0474490    -1.3311670    -0.1253770
  H       -2.7951440    -1.4155820     1.9226690
  H       -3.3106690    -2.0257820     0.3507100
  H       -1.6004590    -2.0681310     0.7873000
  H       -5.0436390    -0.6667330    -0.3605950
  H       -4.3535760     0.4008270    -1.5926810
  H       -5.5777020     1.0147490    -0.4669260
  H        3.2685340     1.8407540    -0.0713220
  H        3.0874670     1.0628020     1.4826470
  H        4.8339620    -0.6514900     0.8358700
  H        5.0104170     0.1293290    -0.7342450
  H        5.4905370     0.9935700     0.7404870
units angstrom
no_reorient  #important for SAPT in psi4, default
symmetry c1  #important for SAPT in psi4, default
}

set PROPERTIES_ORIGIN ["COM"]
properties('MP2/aug-cc-pvtz', properties = ['dipole'])
--------------------------------------------------------------------------

    Molecular point group: c1
  Charge       = 0
  Multiplicity = 1
  Basis Set: AUG-CC-PVTZ
    Blend: AUG-CC-PVTZ
  Basis Set: (AUG-CC-PVTZ AUX)
    Blend: AUG-CC-PVTZ-JKFIT

    Orbital Energies [Eh]
    ---------------------

    Doubly Occupied:

       1A    -20.644094     2A    -20.499261     3A    -11.370506
       4A    -11.310322     5A    -11.258320     6A    -11.237482
       7A    -11.235941     8A    -11.235712     9A    -11.235082
      10A    -11.226581    11A    -11.207592    12A     -1.559212
      13A     -1.269075    14A     -1.128346    15A     -1.065656
      16A     -1.025613    17A     -0.995140    18A     -0.936494
      19A     -0.874985    20A     -0.843725    21A     -0.813804
      22A     -0.741515    23A     -0.723311    24A     -0.689030
      25A     -0.659430    26A     -0.647252    27A     -0.629321
      28A     -0.604352    29A     -0.589386    30A     -0.577988
      31A     -0.562115    32A     -0.551914    33A     -0.545244
      34A     -0.527335    35A     -0.521962    36A     -0.514214
      37A     -0.493171    38A     -0.485912    39A     -0.480185
      40A     -0.474023    41A     -0.420342    42A     -0.402244
      43A     -0.359221

  @DF-RHF Final Energy:  -499.97831606609589

   => Energetics <=

    Nuclear Repulsion Energy =            604.7522793400198680
    One-Electron Energy =               -1879.1163694271729128
    Two-Electron Energy =                 774.3857740210571592
    Total Energy =                       -499.9783160660958856
  Basis Set: (AUG-CC-PVTZ AUX)
    Blend: AUG-CC-PVTZ-RI
    Molecular point group: c1

    Geometry (in Angstrom), charge = 0, multiplicity = 1:

       Center              X                  Y                   Z               Mass
    ------------   -----------------  -----------------  -----------------  -----------------
         O            1.085720419983     0.469478256587     0.011943391744    15.994914619570
         O            2.545206419983    -1.111697743413    -0.714149608256    15.994914619570
         C           -2.355280580017    -0.094205743413     0.296447391744    12.000000000000
         C           -3.583991580017     0.775116256587     0.404840391744    12.000000000000
         C           -1.248559580017     0.388391256587    -0.298370608256    12.000000000000
         C            0.022366419983    -0.337250743413    -0.564266608256    12.000000000000
         C           -2.499134580017    -1.480419743413     0.861151391744    12.000000000000
         C           -4.695000580017     0.349518256587    -0.561425608256    12.000000000000
         C            3.368661419983     0.868366256587     0.436255391744    12.000000000000
         C            2.143013119983     0.025905756587    -0.126170008256    12.000000000000
         C            4.772136419983     0.297757256587     0.311724391744    12.000000000000
         H           -3.315024580017     1.818104256587     0.202847391744     1.007825032230
         H           -3.964903580017     0.740211256587     1.434200391744     1.007825032230
         H           -1.258993580017     1.418928256587    -0.652794608256     1.007825032230
         H            0.217135419983    -0.441287743413    -1.637610608256     1.007825032230
         H            0.061523419983    -1.337071743413    -0.127215608256     1.007825032230
         H           -2.781069580017    -1.421486743413     1.920830391744     1.007825032230
         H           -3.296594580017    -2.031686743413     0.348871391744     1.007825032230
         H           -1.586384580017    -2.074035743413     0.785461391744     1.007825032230
         H           -5.029564580017    -0.672637743413    -0.362433608256     1.007825032230
         H           -4.339501580017     0.394922256587    -1.594519608256     1.007825032230
         H           -5.563627580017     1.008844256587    -0.468764608256     1.007825032230
         H            3.282608419983     1.834849256587    -0.073160608256     1.007825032230
         H            3.101541419983     1.056897256587     1.480808391744     1.007825032230
         H            4.848036419983    -0.657394743413     0.834031391744     1.007825032230
         H            5.024491419983     0.123424256587    -0.736083608256     1.007825032230
         H            5.504611419983     0.987665256587     0.738648391744     1.007825032230

  Basis Set: AUG-CC-PVTZ
    Blend: AUG-CC-PVTZ
  Basis Set: (AUG-CC-PVTZ AUX)
    Blend: AUG-CC-PVTZ-JKFIT
	 Reference Energy          =    -499.9783160660958856 [Eh]
	 Singles Energy            =      -0.0000000000000000 [Eh]
	 Same-Spin Energy          =      -0.5104158042562832 [Eh]
	 Opposite-Spin Energy      =      -1.7175339338786735 [Eh]
	 Correlation Energy        =      -2.2279497381349564 [Eh]
	 Total Energy              =    -502.2062658042308385 [Eh]

	 ================> DF-SCS-MP2 Energies <==================
	-----------------------------------------------------------
	 SCS Same-Spin Scale       =       0.3333333333333333 [-]
	 SCS Opposite-Spin Scale   =       1.2000000000000000 [-]
	 SCS Same-Spin Energy      =      -0.1701386014187611 [Eh]
	 SCS Opposite-Spin Energy  =      -2.0610407206544079 [Eh]
	 SCS Correlation Energy    =      -2.2311793220731690 [Eh]
	 SCS Total Energy          =    -502.2094953881690458 [Eh]
	-----------------------------------------------------------

  Dipole Moment: [D]
     X:    -3.4872      Y:     1.6972      Z:     1.0206     Total:     4.0104

*** Psi4 exiting successfully. Buy a developer a beer!
