                               Psi4 1.4a3.dev225

  ==> Input File <==

--------------------------------------------------------------------------
#psi4
#
memory 32 gb

molecule  {
0 1
  O       -1.1411000    -0.4541930    -0.0251880
  O       -2.5814580     1.1752260    -0.6867450
  C        2.3134570     0.0186930     0.2462000
  C        3.5222300    -0.8802230     0.3222130
  C        1.1937340    -0.4134970    -0.3651820
  C       -0.0647290     0.3542590    -0.5783780
  C        2.4850690     1.3863280     0.8546590
  C        4.7190700    -0.3405130    -0.4677320
  C       -3.4286640    -0.8122060     0.4327630
  C       -2.3749380     0.0938890    -0.1583950
  C       -4.8282690    -0.2261570     0.3119590
  H        3.2581340    -1.8761120    -0.0507320
  H        3.8122360    -1.0018650     1.3748590
  H        1.1815530    -1.4238220    -0.7735790
  H       -0.2705280     0.5138520    -1.6430550
  H       -0.0714200     1.3330110    -0.0949940
  H        3.0182560     1.3061200     1.8081990
  H        3.0814560     2.0379150     0.2067330
  H        1.5342700     1.8877430     1.0433380
  H        5.0646870     0.6170420    -0.0694620
  H        4.4484560    -0.1949880    -1.5176090
  H        5.5583810    -1.0408350    -0.4253590
  H       -3.3536290    -1.7820470    -0.0715700
  H       -3.1635201    -0.9949334     1.4590533
  H       -4.8922970     0.7333770     0.8287030
  H       -5.0879650    -0.0561110    -0.7346540
  H       -5.5642940    -0.9066400     0.7478690
units angstrom
no_reorient  #important for SAPT in psi4, default
symmetry c1  #important for SAPT in psi4, default
}

set PROPERTIES_ORIGIN ["COM"]
properties('MP2/aug-cc-pvtz', properties = ['dipole'])
--------------------------------------------------------------------------

    Molecular point group: c1
  Charge       = 0
  Multiplicity = 1
  Basis Set: AUG-CC-PVTZ
    Blend: AUG-CC-PVTZ
  Basis Set: (AUG-CC-PVTZ AUX)
    Blend: AUG-CC-PVTZ-JKFIT

    Orbital Energies [Eh]
    ---------------------

    Doubly Occupied:

       1A    -20.597248     2A    -20.540752     3A    -11.375588
       4A    -11.286873     5A    -11.244567     6A    -11.240259
       7A    -11.228640     8A    -11.226194     9A    -11.223518
      10A    -11.219319    11A    -11.218022    12A     -1.446995
      13A     -1.347347    14A     -1.112186    15A     -1.063960
      16A     -1.022014    17A     -0.977025    18A     -0.920378
      19A     -0.880076    20A     -0.832979    21A     -0.767259
      22A     -0.722922    23A     -0.688045    24A     -0.679547
      25A     -0.660045    26A     -0.638948    27A     -0.624035
      28A     -0.605250    29A     -0.589406    30A     -0.571839
      31A     -0.553808    32A     -0.545656    33A     -0.533357
      34A     -0.522199    35A     -0.517789    36A     -0.513408
      37A     -0.512717    38A     -0.493337    39A     -0.484640
      40A     -0.465892    41A     -0.457132    42A     -0.444294
      43A     -0.346072

  @DF-RHF Final Energy:  -500.03854366113535

   => Energetics <=

    Nuclear Repulsion Energy =            602.6000609181498930
    One-Electron Energy =               -1875.3941344089025733
    Two-Electron Energy =                 772.7555298296173305
    Total Energy =                       -500.0385436611353498
  Basis Set: (AUG-CC-PVTZ AUX)
    Blend: AUG-CC-PVTZ-RI
    Molecular point group: c1

    Geometry (in Angstrom), charge = 0, multiplicity = 1:

       Center              X                  Y                   Z               Mass
    ------------   -----------------  -----------------  -----------------  -----------------
         O           -1.086795376559    -0.459604432525    -0.011698289124    15.994914619570
         O           -2.527153376559     1.169814567475    -0.673255289124    15.994914619570
         C            2.367761623441     0.013281567475     0.259689710876    12.000000000000
         C            3.576534623441    -0.885634432525     0.335702710876    12.000000000000
         C            1.248038623441    -0.418908432525    -0.351692289124    12.000000000000
         C           -0.010424376559     0.348847567475    -0.564888289124    12.000000000000
         C            2.539373623441     1.380916567475     0.868148710876    12.000000000000
         C            4.773374623441    -0.345924432525    -0.454242289124    12.000000000000
         C           -3.374359376559    -0.817617432525     0.446252710876    12.000000000000
         C           -2.320633376559     0.088477567475    -0.144905289124    12.000000000000
         C           -4.773964376559    -0.231568432525     0.325448710876    12.000000000000
         H            3.312438623441    -1.881523432525    -0.037242289124     1.007825032230
         H            3.866540623441    -1.007276432525     1.388348710876     1.007825032230
         H            1.235857623441    -1.429233432525    -0.760089289124     1.007825032230
         H           -0.216223376559     0.508440567475    -1.629565289124     1.007825032230
         H           -0.017115376559     1.327599567475    -0.081504289124     1.007825032230
         H            3.072560623441     1.300708567475     1.821688710876     1.007825032230
         H            3.135760623441     2.032503567475     0.220222710876     1.007825032230
         H            1.588574623441     1.882331567475     1.056827710876     1.007825032230
         H            5.118991623441     0.611630567475    -0.055972289124     1.007825032230
         H            4.502760623441    -0.200399432525    -1.504119289124     1.007825032230
         H            5.612685623441    -1.046246432525    -0.411869289124     1.007825032230
         H           -3.299324376559    -1.787458432525    -0.058080289124     1.007825032230
         H           -3.109215476559    -1.000344832525     1.472543010876     1.007825032230
         H           -4.837992376559     0.727965567475     0.842192710876     1.007825032230
         H           -5.033660376559    -0.061522432525    -0.721164289124     1.007825032230
         H           -5.509989376559    -0.912051432525     0.761358710876     1.007825032230

  Basis Set: AUG-CC-PVTZ
    Blend: AUG-CC-PVTZ
  Basis Set: (AUG-CC-PVTZ AUX)
    Blend: AUG-CC-PVTZ-JKFIT
	 Reference Energy          =    -500.0385436611353498 [Eh]
	 Singles Energy            =      -0.0000000000000000 [Eh]
	 Same-Spin Energy          =      -0.5096899734328795 [Eh]
	 Opposite-Spin Energy      =      -1.7168102027950991 [Eh]
	 Correlation Energy        =      -2.2265001762279786 [Eh]
	 Total Energy              =    -502.2650438373633506 [Eh]

	 ================> DF-SCS-MP2 Energies <==================
	-----------------------------------------------------------
	 SCS Same-Spin Scale       =       0.3333333333333333 [-]
	 SCS Opposite-Spin Scale   =       1.2000000000000000 [-]
	 SCS Same-Spin Energy      =      -0.1698966578109598 [Eh]
	 SCS Opposite-Spin Energy  =      -2.0601722433541187 [Eh]
	 SCS Correlation Energy    =      -2.2300689011650787 [Eh]
	 SCS Total Energy          =    -502.2686125623004045 [Eh]
	-----------------------------------------------------------

  Dipole Moment: [D]
     X:     1.4472      Y:    -1.2017      Z:     0.8032     Total:     2.0454

*** Psi4 exiting successfully. Buy a developer a beer!
