                               Psi4 1.3.2 release

  ==> Input File <==

--------------------------------------------------------------------------
#psi4
#
memory 32 gb

molecule  {
0 1
  O       -1.5212240    -0.7093150     0.0000610
  N        1.9901180    -0.3643950    -0.0000520
  C       -0.2218810    -0.2669650     0.0000160
  C        0.8549480    -1.1405170    -0.0000250
  C        0.2804280     1.0605730     0.0000120
  C        1.6640340     0.9642470    -0.0000360
  C       -2.4886080     0.3325760     0.0000260
  H        0.8850605    -2.2196727     0.1499610
  H       -0.2825830     1.9831120     0.0000370
  H        2.9325900    -0.7289320    -0.0000930
  H        2.4244870     1.7323050    -0.0000480
  H       -3.4598190    -0.1623920     0.0000440
  H       -2.3971420     0.9606620    -0.8937380
  H       -2.3971430     0.9607210     0.8937490
units angstrom
no_reorient  #important for SAPT in psi4, default
symmetry c1  #important for SAPT in psi4, default
}

set PROPERTIES_ORIGIN ["COM"]
properties('MP2/aug-cc-pvtz', properties = ['dipole'])
--------------------------------------------------------------------------

    Molecular point group: c1
  Charge       = 0
  Multiplicity = 1
  Basis Set: AUG-CC-PVTZ
    Blend: AUG-CC-PVTZ
  Basis Set: (AUG-CC-PVTZ AUX)
    Blend: AUG-CC-PVTZ-JKFIT

    Orbital Energies [Eh]
    ---------------------

    Doubly Occupied:

       1A    -20.570808     2A    -15.608012     3A    -11.273992
       4A    -11.272598     5A    -11.260330     6A    -11.241147
       7A    -11.213481     8A     -1.389221     9A     -1.287807
      10A     -1.039921    11A     -0.985276    12A     -0.922731
      13A     -0.800262    14A     -0.754560    15A     -0.734704
      16A     -0.645528    17A     -0.642490    18A     -0.617361
      19A     -0.584531    20A     -0.569318    21A     -0.564364
      22A     -0.535899    23A     -0.486524    24A     -0.481910
      25A     -0.335516    26A     -0.284025

  @DF-RHF Final Energy:  -322.80048399134751

   => Energetics <=

    Nuclear Repulsion Energy =            292.1679056426091279
    One-Electron Energy =               -1017.7321482404363451
    Two-Electron Energy =                 402.7637586064796551
    Total Energy =                       -322.8004839913475053
  Basis Set: (AUG-CC-PVTZ AUX)
    Blend: AUG-CC-PVTZ-RI
    Molecular point group: c1

    Geometry (in Angstrom), charge = 0, multiplicity = 1:

       Center              X                  Y                   Z               Mass
    ------------   -----------------  -----------------  -----------------  -----------------
         O           -1.544824247120    -0.683519266590    -0.001497416166    15.994914619570
         N            1.966517752880    -0.338599266590    -0.001610416166    14.003074004430
         C           -0.245481247120    -0.241169266590    -0.001542416166    12.000000000000
         C            0.831347752880    -1.114721266590    -0.001583416166    12.000000000000
         C            0.256827752880     1.086368733410    -0.001546416166    12.000000000000
         C            1.640433752880     0.990042733410    -0.001594416166    12.000000000000
         C           -2.512208247120     0.358371733410    -0.001532416166    12.000000000000
         H            0.861460252880    -2.193876966590     0.148402583834     1.007825032230
         H           -0.306183247120     2.008907733410    -0.001521416166     1.007825032230
         H            2.908989752880    -0.703136266590    -0.001651416166     1.007825032230
         H            2.400886752880     1.758100733410    -0.001606416166     1.007825032230
         H           -3.483419247120    -0.136596266590    -0.001514416166     1.007825032230
         H           -2.420742247120     0.986457733410    -0.895296416166     1.007825032230
         H           -2.420743247120     0.986516733410     0.892190583834     1.007825032230

  Basis Set: AUG-CC-PVTZ
    Blend: AUG-CC-PVTZ
  Basis Set: (AUG-CC-PVTZ AUX)
    Blend: AUG-CC-PVTZ-JKFIT
	 Reference Energy          =    -322.8004839913475053 [Eh]
	 Singles Energy            =      -0.0000000000000000 [Eh]
	 Same-Spin Energy          =      -0.3398796832897366 [Eh]
	 Opposite-Spin Energy      =      -1.0638093019407793 [Eh]
	 Correlation Energy        =      -1.4036889852305159 [Eh]
	 Total Energy              =    -324.2041729765780360 [Eh]

	 ================> DF-SCS-MP2 Energies <==================
	-----------------------------------------------------------
	 SCS Same-Spin Scale       =       0.3333333333333333 [-]
	 SCS Opposite-Spin Scale   =       1.2000000000000000 [-]
	 SCS Same-Spin Energy      =      -0.1132932277632455 [Eh]
	 SCS Opposite-Spin Energy  =      -1.2765711623289351 [Eh]
	 SCS Correlation Energy    =      -1.3898643900921805 [Eh]
	 SCS Total Energy          =    -324.1903483814396623 [Eh]
	-----------------------------------------------------------

  Dipole Moment: [D]
     X:     1.3635      Y:     0.5969      Z:     0.1487     Total:     1.4959

*** Psi4 exiting successfully. Buy a developer a beer!
