                               Psi4 1.3.2 release

  ==> Input File <==

--------------------------------------------------------------------------
#psi4
#
memory 32 gb

molecule  {
0 1
  O       -1.5212240    -0.7093150     0.0000610
  N        1.9901180    -0.3643950    -0.0000520
  C       -0.2218810    -0.2669650     0.0000160
  C        0.8549480    -1.1405170    -0.0000250
  C        0.2804384     1.0605707     0.3000120
  C        1.6640340     0.9642470    -0.0000360
  C       -2.4886080     0.3325760     0.0000260
  H        0.8850560    -2.2196710    -0.0000390
  H       -0.2825830     1.9831120     0.0000370
  H        2.9325900    -0.7289320    -0.0000930
  H        2.4244870     1.7323050    -0.0000480
  H       -3.4598190    -0.1623920     0.0000440
  H       -2.3971420     0.9606620    -0.8937380
  H       -2.3971430     0.9607210     0.8937490
units angstrom
no_reorient  #important for SAPT in psi4, default
symmetry c1  #important for SAPT in psi4, default
}

set PROPERTIES_ORIGIN ["COM"]
properties('MP2/aug-cc-pvtz', properties = ['dipole'])
--------------------------------------------------------------------------

    Molecular point group: c1
  Charge       = 0
  Multiplicity = 1
  Basis Set: AUG-CC-PVTZ
    Blend: AUG-CC-PVTZ
  Basis Set: (AUG-CC-PVTZ AUX)
    Blend: AUG-CC-PVTZ-JKFIT

    Orbital Energies [Eh]
    ---------------------

    Doubly Occupied:

       1A    -20.571350     2A    -15.613021     3A    -11.277445
       4A    -11.273071     5A    -11.270279     6A    -11.241789
       7A    -11.220748     8A     -1.389445     9A     -1.290004
      10A     -1.034931    11A     -0.984711    12A     -0.922998
      13A     -0.797090    14A     -0.752712    15A     -0.735595
      16A     -0.647270    17A     -0.641003    18A     -0.612831
      19A     -0.587015    20A     -0.575523    21A     -0.541707
      22A     -0.533435    23A     -0.487650    24A     -0.474073
      25A     -0.336710    26A     -0.284034

  @DF-RHF Final Energy:  -322.77766408743992

   => Energetics <=

    Nuclear Repulsion Energy =            291.2011193658140087
    One-Electron Energy =               -1015.7646845643924962
    Two-Electron Energy =                 401.7859011111386280
    Total Energy =                       -322.7776640874399163
  Basis Set: (AUG-CC-PVTZ AUX)
    Blend: AUG-CC-PVTZ-RI
    Molecular point group: c1

    Geometry (in Angstrom), charge = 0, multiplicity = 1:

       Center              X                  Y                   Z               Mass
    ------------   -----------------  -----------------  -----------------  -----------------
         O           -1.544825486289    -0.683518999862    -0.037032996075    15.994914619570
         N            1.966516513711    -0.338598999862    -0.037145996075    14.003074004430
         C           -0.245482486289    -0.241168999862    -0.037077996075    12.000000000000
         C            0.831346513711    -1.114720999862    -0.037118996075    12.000000000000
         C            0.256836913711     1.086366700138     0.262918003925    12.000000000000
         C            1.640432513711     0.990043000138    -0.037129996075    12.000000000000
         C           -2.512209486289     0.358372000138    -0.037067996075    12.000000000000
         H            0.861454513711    -2.193874999862    -0.037132996075     1.007825032230
         H           -0.306184486289     2.008908000138    -0.037056996075     1.007825032230
         H            2.908988513711    -0.703135999862    -0.037186996075     1.007825032230
         H            2.400885513711     1.758101000138    -0.037141996075     1.007825032230
         H           -3.483420486289    -0.136595999862    -0.037049996075     1.007825032230
         H           -2.420743486289     0.986458000138    -0.930831996075     1.007825032230
         H           -2.420744486289     0.986517000138     0.856655003925     1.007825032230

  Basis Set: AUG-CC-PVTZ
    Blend: AUG-CC-PVTZ
  Basis Set: (AUG-CC-PVTZ AUX)
    Blend: AUG-CC-PVTZ-JKFIT
	 Reference Energy          =    -322.7776640874399163 [Eh]
	 Singles Energy            =      -0.0000000000000000 [Eh]
	 Same-Spin Energy          =      -0.3409662304447297 [Eh]
	 Opposite-Spin Energy      =      -1.0672283701671095 [Eh]
	 Correlation Energy        =      -1.4081946006118393 [Eh]
	 Total Energy              =    -324.1858586880517805 [Eh]

	 ================> DF-SCS-MP2 Energies <==================
	-----------------------------------------------------------
	 SCS Same-Spin Scale       =       0.3333333333333333 [-]
	 SCS Opposite-Spin Scale   =       1.2000000000000000 [-]
	 SCS Same-Spin Energy      =      -0.1136554101482432 [Eh]
	 SCS Opposite-Spin Energy  =      -1.2806740442005313 [Eh]
	 SCS Correlation Energy    =      -1.3943294543487745 [Eh]
	 SCS Total Energy          =    -324.1719935417887086 [Eh]
	-----------------------------------------------------------

  Dipole Moment: [D]
     X:     1.4759      Y:     0.3660      Z:    -0.3351     Total:     1.5570

*** Psi4 exiting successfully. Buy a developer a beer!
