                               Psi4 1.3.2 release

  ==> Input File <==

--------------------------------------------------------------------------
#psi4
#
memory 32 gb

molecule  {
0 1
  O       -1.5212240    -0.7093150     0.0000610
  N        1.9901180    -0.3643950    -0.0000520
  C       -0.2218810    -0.2669650     0.0000160
  C        0.8549480    -1.1405170    -0.0000250
  C        0.2804280     1.0605730     0.0000120
  C        1.6640340     0.9642470    -0.0000360
  C       -2.4886080     0.3325760     0.0000260
  H        0.8850560    -2.2196710    -0.0000390
  H       -0.2825764     1.9831103     0.2000370
  H        2.9325900    -0.7289320    -0.0000930
  H        2.4244870     1.7323050    -0.0000480
  H       -3.4598190    -0.1623920     0.0000440
  H       -2.3971420     0.9606620    -0.8937380
  H       -2.3971430     0.9607210     0.8937490
units angstrom
no_reorient  #important for SAPT in psi4, default
symmetry c1  #important for SAPT in psi4, default
}

set PROPERTIES_ORIGIN ["COM"]
properties('MP2/aug-cc-pvtz', properties = ['dipole'])
--------------------------------------------------------------------------

    Molecular point group: c1
  Charge       = 0
  Multiplicity = 1
  Basis Set: AUG-CC-PVTZ
    Blend: AUG-CC-PVTZ
  Basis Set: (AUG-CC-PVTZ AUX)
    Blend: AUG-CC-PVTZ-JKFIT

    Orbital Energies [Eh]
    ---------------------

    Doubly Occupied:

       1A    -20.570634     2A    -15.608537     3A    -11.273679
       4A    -11.272449     5A    -11.260550     6A    -11.240709
       7A    -11.214733     8A     -1.389059     9A     -1.288154
      10A     -1.039659    11A     -0.985436    12A     -0.922719
      13A     -0.799289    14A     -0.753915    15A     -0.735748
      16A     -0.645517    17A     -0.642335    18A     -0.616890
      19A     -0.584761    20A     -0.570160    21A     -0.561777
      22A     -0.535990    23A     -0.486136    24A     -0.481737
      25A     -0.335309    26A     -0.284063

  @DF-RHF Final Energy:  -322.79929533984091

   => Energetics <=

    Nuclear Repulsion Energy =            292.1359022569961326
    One-Electron Energy =               -1017.6705072188696022
    Two-Electron Energy =                 402.7353096220325597
    Total Energy =                       -322.7992953398409099
  Basis Set: (AUG-CC-PVTZ AUX)
    Blend: AUG-CC-PVTZ-RI
    Molecular point group: c1

    Geometry (in Angstrom), charge = 0, multiplicity = 1:

       Center              X                  Y                   Z               Mass
    ------------   -----------------  -----------------  -----------------  -----------------
         O           -1.544824268927    -0.683519266590    -0.002016631175    15.994914619570
         N            1.966517731073    -0.338599266590    -0.002129631175    14.003074004430
         C           -0.245481268927    -0.241169266590    -0.002061631175    12.000000000000
         C            0.831347731073    -1.114721266590    -0.002102631175    12.000000000000
         C            0.256827731073     1.086368733410    -0.002065631175    12.000000000000
         C            1.640433731073     0.990042733410    -0.002113631175    12.000000000000
         C           -2.512208268927     0.358371733410    -0.002051631175    12.000000000000
         H            0.861455731073    -2.193875266590    -0.002116631175     1.007825032230
         H           -0.306176668927     2.008906033410     0.197959368825     1.007825032230
         H            2.908989731073    -0.703136266590    -0.002170631175     1.007825032230
         H            2.400886731073     1.758100733410    -0.002125631175     1.007825032230
         H           -3.483419268927    -0.136596266590    -0.002033631175     1.007825032230
         H           -2.420742268927     0.986457733410    -0.895815631175     1.007825032230
         H           -2.420743268927     0.986516733410     0.891671368825     1.007825032230

  Basis Set: AUG-CC-PVTZ
    Blend: AUG-CC-PVTZ
  Basis Set: (AUG-CC-PVTZ AUX)
    Blend: AUG-CC-PVTZ-JKFIT
	 Reference Energy          =    -322.7992953398409099 [Eh]
	 Singles Energy            =      -0.0000000000000000 [Eh]
	 Same-Spin Energy          =      -0.3399333831945917 [Eh]
	 Opposite-Spin Energy      =      -1.0639233901470355 [Eh]
	 Correlation Energy        =      -1.4038567733416272 [Eh]
	 Total Energy              =    -324.2031521131825116 [Eh]

	 ================> DF-SCS-MP2 Energies <==================
	-----------------------------------------------------------
	 SCS Same-Spin Scale       =       0.3333333333333333 [-]
	 SCS Opposite-Spin Scale   =       1.2000000000000000 [-]
	 SCS Same-Spin Energy      =      -0.1133111277315305 [Eh]
	 SCS Opposite-Spin Energy  =      -1.2767080681764427 [Eh]
	 SCS Correlation Energy    =      -1.3900191959079733 [Eh]
	 SCS Total Energy          =    -324.1893145357489061 [Eh]
	-----------------------------------------------------------

  Dipole Moment: [D]
     X:     1.3883      Y:     0.5426      Z:     0.1645     Total:     1.4996

*** Psi4 exiting successfully. Buy a developer a beer!
