                               Psi4 1.3.2 release

  ==> Input File <==

--------------------------------------------------------------------------
#psi4
#
memory 32 gb

molecule  {
0 1
  O       -1.5212240    -0.7093150     0.0000610
  N        1.9901180    -0.3643950    -0.0000520
  C       -0.2218810    -0.2669650     0.0000160
  C        0.8549480    -1.1405170    -0.0000250
  C        0.2804332     1.0605718     0.1500120
  C        1.6640340     0.9642470    -0.0000360
  C       -2.4886080     0.3325760     0.0000260
  H        0.8850560    -2.2196710    -0.0000390
  H       -0.2825830     1.9831120     0.0000370
  H        2.9325900    -0.7289320    -0.0000930
  H        2.4244870     1.7323050    -0.0000480
  H       -3.4598190    -0.1623920     0.0000440
  H       -2.3971420     0.9606620    -0.8937380
  H       -2.3971430     0.9607210     0.8937490
units angstrom
no_reorient  #important for SAPT in psi4, default
symmetry c1  #important for SAPT in psi4, default
}

set PROPERTIES_ORIGIN ["COM"]
properties('MP2/aug-cc-pvtz', properties = ['dipole'])
--------------------------------------------------------------------------

    Molecular point group: c1
  Charge       = 0
  Multiplicity = 1
  Basis Set: AUG-CC-PVTZ
    Blend: AUG-CC-PVTZ
  Basis Set: (AUG-CC-PVTZ AUX)
    Blend: AUG-CC-PVTZ-JKFIT

    Orbital Energies [Eh]
    ---------------------

    Doubly Occupied:

       1A    -20.570754     2A    -15.609274     3A    -11.273664
       4A    -11.273580     5A    -11.262577     6A    -11.240831
       7A    -11.215202     8A     -1.389120     9A     -1.288280
      10A     -1.038506    11A     -0.985299    12A     -0.922791
      13A     -0.799333    14A     -0.754165    15A     -0.735758
      16A     -0.646087    17A     -0.641802    18A     -0.616143
      19A     -0.585253    20A     -0.573188    21A     -0.557262
      22A     -0.535605    23A     -0.487169    24A     -0.479536
      25A     -0.335651    26A     -0.283861

  @DF-RHF Final Energy:  -322.79568144317403

   => Energetics <=

    Nuclear Repulsion Energy =            291.9509470342568989
    One-Electron Energy =               -1017.2918756891257317
    Two-Electron Energy =                 402.5452472116947433
    Total Energy =                       -322.7956814431740327
  Basis Set: (AUG-CC-PVTZ AUX)
    Blend: AUG-CC-PVTZ-RI
    Molecular point group: c1

    Geometry (in Angstrom), charge = 0, multiplicity = 1:

       Center              X                  Y                   Z               Mass
    ------------   -----------------  -----------------  -----------------  -----------------
         O           -1.544824843340    -0.683519135870    -0.018486383608    15.994914619570
         N            1.966517156660    -0.338599135870    -0.018599383608    14.003074004430
         C           -0.245481843340    -0.241169135870    -0.018531383608    12.000000000000
         C            0.831347156660    -1.114721135870    -0.018572383608    12.000000000000
         C            0.256832356660     1.086367664130     0.131464616392    12.000000000000
         C            1.640433156660     0.990042864130    -0.018583383608    12.000000000000
         C           -2.512208843340     0.358371864130    -0.018521383608    12.000000000000
         H            0.861455156660    -2.193875135870    -0.018586383608     1.007825032230
         H           -0.306183843340     2.008907864130    -0.018510383608     1.007825032230
         H            2.908989156660    -0.703136135870    -0.018640383608     1.007825032230
         H            2.400886156660     1.758100864130    -0.018595383608     1.007825032230
         H           -3.483419843340    -0.136596135870    -0.018503383608     1.007825032230
         H           -2.420742843340     0.986457864130    -0.912285383608     1.007825032230
         H           -2.420743843340     0.986516864130     0.875201616392     1.007825032230

  Basis Set: AUG-CC-PVTZ
    Blend: AUG-CC-PVTZ
  Basis Set: (AUG-CC-PVTZ AUX)
    Blend: AUG-CC-PVTZ-JKFIT
	 Reference Energy          =    -322.7956814431740327 [Eh]
	 Singles Energy            =      -0.0000000000000000 [Eh]
	 Same-Spin Energy          =      -0.3401072189481558 [Eh]
	 Opposite-Spin Energy      =      -1.0644802320656279 [Eh]
	 Correlation Energy        =      -1.4045874510137837 [Eh]
	 Total Energy              =    -324.2002688941878432 [Eh]

	 ================> DF-SCS-MP2 Energies <==================
	-----------------------------------------------------------
	 SCS Same-Spin Scale       =       0.3333333333333333 [-]
	 SCS Opposite-Spin Scale   =       1.2000000000000000 [-]
	 SCS Same-Spin Energy      =      -0.1133690729827186 [Eh]
	 SCS Opposite-Spin Energy  =      -1.2773762784787535 [Eh]
	 SCS Correlation Energy    =      -1.3907453514614720 [Eh]
	 SCS Total Energy          =    -324.1864267946355085 [Eh]
	-----------------------------------------------------------

  Dipole Moment: [D]
     X:     1.3972      Y:     0.5188      Z:    -0.1646     Total:     1.4994

*** Psi4 exiting successfully. Buy a developer a beer!
