                               Psi4 1.3.2 release

  ==> Input File <==

--------------------------------------------------------------------------
#psi4
#
memory 32 gb

molecule  {
0 1
  O       -1.5212240    -0.7093150     0.0000610
  N        1.9901180    -0.3643950    -0.0000520
  C       -0.2218810    -0.2669650     0.0000160
  C        0.8549480    -1.1405170    -0.0000250
  C        0.2804280     1.0605730     0.0000120
  C        1.6640340     0.9642470    -0.0000360
  C       -2.4886080     0.3325760     0.0000260
  H        0.8850621    -2.2196732     0.1999610
  H       -0.2825830     1.9831120     0.0000370
  H        2.9325900    -0.7289320    -0.0000930
  H        2.4244870     1.7323050    -0.0000480
  H       -3.4598190    -0.1623920     0.0000440
  H       -2.3971420     0.9606620    -0.8937380
  H       -2.3971430     0.9607210     0.8937490
units angstrom
no_reorient  #important for SAPT in psi4, default
symmetry c1  #important for SAPT in psi4, default
}

set PROPERTIES_ORIGIN ["COM"]
properties('MP2/aug-cc-pvtz', properties = ['dipole'])
--------------------------------------------------------------------------

    Molecular point group: c1
  Charge       = 0
  Multiplicity = 1
  Basis Set: AUG-CC-PVTZ
    Blend: AUG-CC-PVTZ
  Basis Set: (AUG-CC-PVTZ AUX)
    Blend: AUG-CC-PVTZ-JKFIT

    Orbital Energies [Eh]
    ---------------------

    Doubly Occupied:

       1A    -20.571002     2A    -15.607998     3A    -11.274086
       4A    -11.272901     5A    -11.260663     6A    -11.241614
       7A    -11.213615     8A     -1.389384     9A     -1.287866
      10A     -1.040061    11A     -0.985138    12A     -0.922735
      13A     -0.800294    14A     -0.754376    15A     -0.733830
      16A     -0.645592    17A     -0.642633    18A     -0.617359
      19A     -0.584243    20A     -0.569778    21A     -0.563010
      22A     -0.535579    23A     -0.486568    24A     -0.482010
      25A     -0.335610    26A     -0.284168

  @DF-RHF Final Energy:  -322.79959704123587

   => Energetics <=

    Nuclear Repulsion Energy =            292.1370384123080726
    One-Electron Energy =               -1017.6690464500927646
    Two-Electron Energy =                 402.7324109965487651
    Total Energy =                       -322.7995970412358702
  Basis Set: (AUG-CC-PVTZ AUX)
    Blend: AUG-CC-PVTZ-RI
    Molecular point group: c1

    Geometry (in Angstrom), charge = 0, multiplicity = 1:

       Center              X                  Y                   Z               Mass
    ------------   -----------------  -----------------  -----------------  -----------------
         O           -1.544824263735    -0.683519261398    -0.002016631175    15.994914619570
         N            1.966517736265    -0.338599261398    -0.002129631175    14.003074004430
         C           -0.245481263735    -0.241169261398    -0.002061631175    12.000000000000
         C            0.831347736265    -1.114721261398    -0.002102631175    12.000000000000
         C            0.256827736265     1.086368738602    -0.002065631175    12.000000000000
         C            1.640433736265     0.990042738602    -0.002113631175    12.000000000000
         C           -2.512208263735     0.358371738602    -0.002051631175    12.000000000000
         H            0.861461836265    -2.193877461398     0.197883368825     1.007825032230
         H           -0.306183263735     2.008907738602    -0.002040631175     1.007825032230
         H            2.908989736265    -0.703136261398    -0.002170631175     1.007825032230
         H            2.400886736265     1.758100738602    -0.002125631175     1.007825032230
         H           -3.483419263735    -0.136596261398    -0.002033631175     1.007825032230
         H           -2.420742263735     0.986457738602    -0.895815631175     1.007825032230
         H           -2.420743263735     0.986516738602     0.891671368825     1.007825032230

  Basis Set: AUG-CC-PVTZ
    Blend: AUG-CC-PVTZ
  Basis Set: (AUG-CC-PVTZ AUX)
    Blend: AUG-CC-PVTZ-JKFIT
	 Reference Energy          =    -322.7995970412358702 [Eh]
	 Singles Energy            =      -0.0000000000000000 [Eh]
	 Same-Spin Energy          =      -0.3399367914275840 [Eh]
	 Opposite-Spin Energy      =      -1.0639419084297030 [Eh]
	 Correlation Energy        =      -1.4038786998572870 [Eh]
	 Total Energy              =    -324.2034757410931434 [Eh]

	 ================> DF-SCS-MP2 Energies <==================
	-----------------------------------------------------------
	 SCS Same-Spin Scale       =       0.3333333333333333 [-]
	 SCS Opposite-Spin Scale   =       1.2000000000000000 [-]
	 SCS Same-Spin Energy      =      -0.1133122638091947 [Eh]
	 SCS Opposite-Spin Energy  =      -1.2767302901156437 [Eh]
	 SCS Correlation Energy    =      -1.3900425539248382 [Eh]
	 SCS Total Energy          =    -324.1896395951607133 [Eh]
	-----------------------------------------------------------

  Dipole Moment: [D]
     X:     1.3593      Y:     0.6160      Z:     0.1969     Total:     1.5053

*** Psi4 exiting successfully. Buy a developer a beer!
