                               Psi4 1.3.2 release

  ==> Input File <==

--------------------------------------------------------------------------
#psi4
#
memory 32 gb

molecule  {
0 1
  O       -1.5212240    -0.7093150     0.0000610
  N        1.9901180    -0.3643950    -0.0000520
  C       -0.2218810    -0.2669650     0.0000160
  C        0.8549480    -1.1405170    -0.0000250
  C        0.2804315     1.0605722     0.1000120
  C        1.6640340     0.9642470    -0.0000360
  C       -2.4886080     0.3325760     0.0000260
  H        0.8850560    -2.2196710    -0.0000390
  H       -0.2825830     1.9831120     0.0000370
  H        2.9325900    -0.7289320    -0.0000930
  H        2.4244870     1.7323050    -0.0000480
  H       -3.4598190    -0.1623920     0.0000440
  H       -2.3971420     0.9606620    -0.8937380
  H       -2.3971430     0.9607210     0.8937490
units angstrom
no_reorient  #important for SAPT in psi4, default
symmetry c1  #important for SAPT in psi4, default
}

set PROPERTIES_ORIGIN ["COM"]
properties('MP2/aug-cc-pvtz', properties = ['dipole'])
--------------------------------------------------------------------------

    Molecular point group: c1
  Charge       = 0
  Multiplicity = 1
  Basis Set: AUG-CC-PVTZ
    Blend: AUG-CC-PVTZ
  Basis Set: (AUG-CC-PVTZ AUX)
    Blend: AUG-CC-PVTZ-JKFIT

    Orbital Energies [Eh]
    ---------------------

    Doubly Occupied:

       1A    -20.570642     2A    -15.608584     3A    -11.273776
       4A    -11.272820     5A    -11.261093     6A    -11.240668
       7A    -11.214152     8A     -1.389057     9A     -1.287973
      10A     -1.039188    11A     -0.985394    12A     -0.922756
      13A     -0.799819    14A     -0.754535    15A     -0.735800
      16A     -0.645762    17A     -0.642048    18A     -0.616819
      19A     -0.585045    20A     -0.571689    21A     -0.561218
      22A     -0.535970    23A     -0.486854    24A     -0.480709
      25A     -0.335502    26A     -0.283846

  @DF-RHF Final Energy:  -322.79894212379378

   => Energetics <=

    Nuclear Repulsion Energy =            292.0934706069547815
    One-Electron Energy =               -1017.5813901002774173
    Two-Electron Energy =                 402.6889773695288000
    Total Energy =                       -322.7989421237937790
  Basis Set: (AUG-CC-PVTZ AUX)
    Blend: AUG-CC-PVTZ-RI
    Molecular point group: c1

    Geometry (in Angstrom), charge = 0, multiplicity = 1:

       Center              X                  Y                   Z               Mass
    ------------   -----------------  -----------------  -----------------  -----------------
         O           -1.544824633145    -0.683519185328    -0.012304179452    15.994914619570
         N            1.966517366855    -0.338599185328    -0.012417179452    14.003074004430
         C           -0.245481633145    -0.241169185328    -0.012349179452    12.000000000000
         C            0.831347366855    -1.114721185328    -0.012390179452    12.000000000000
         C            0.256830866855     1.086368014672     0.087646820548    12.000000000000
         C            1.640433366855     0.990042814672    -0.012401179452    12.000000000000
         C           -2.512208633145     0.358371814672    -0.012339179452    12.000000000000
         H            0.861455366855    -2.193875185328    -0.012404179452     1.007825032230
         H           -0.306183633145     2.008907814672    -0.012328179452     1.007825032230
         H            2.908989366855    -0.703136185328    -0.012458179452     1.007825032230
         H            2.400886366855     1.758100814672    -0.012413179452     1.007825032230
         H           -3.483419633145    -0.136596185328    -0.012321179452     1.007825032230
         H           -2.420742633145     0.986457814672    -0.906103179452     1.007825032230
         H           -2.420743633145     0.986516814672     0.881383820548     1.007825032230

  Basis Set: AUG-CC-PVTZ
    Blend: AUG-CC-PVTZ
  Basis Set: (AUG-CC-PVTZ AUX)
    Blend: AUG-CC-PVTZ-JKFIT
	 Reference Energy          =    -322.7989421237937790 [Eh]
	 Singles Energy            =      -0.0000000000000000 [Eh]
	 Same-Spin Energy          =      -0.3399398986483730 [Eh]
	 Opposite-Spin Energy      =      -1.0639960369811061 [Eh]
	 Correlation Energy        =      -1.4039359356294792 [Eh]
	 Total Energy              =    -324.2028780594232558 [Eh]

	 ================> DF-SCS-MP2 Energies <==================
	-----------------------------------------------------------
	 SCS Same-Spin Scale       =       0.3333333333333333 [-]
	 SCS Opposite-Spin Scale   =       1.2000000000000000 [-]
	 SCS Same-Spin Energy      =      -0.1133132995494577 [Eh]
	 SCS Opposite-Spin Energy  =      -1.2767952443773274 [Eh]
	 SCS Correlation Energy    =      -1.3901085439267851 [Eh]
	 SCS Total Energy          =    -324.1890506677205508 [Eh]
	-----------------------------------------------------------

  Dipole Moment: [D]
     X:     1.3817      Y:     0.5480      Z:    -0.1092     Total:     1.4904

*** Psi4 exiting successfully. Buy a developer a beer!
