                               Psi4 1.3.2 release

  ==> Input File <==

--------------------------------------------------------------------------
#psi4
#
memory 32 gb

molecule  {
0 1
  O       -1.5212240    -0.7093150     0.0000610
  N        1.9901180    -0.3643950    -0.0000520
  C       -0.2218810    -0.2669650     0.0000160
  C        0.8549480    -1.1405170    -0.0000250
  C        0.2804280     1.0605730     0.0000120
  C        1.6640340     0.9642470    -0.0000360
  C       -2.4886080     0.3325760     0.0000260
  H        0.8850590    -2.2196721     0.0999610
  H       -0.2825830     1.9831120     0.0000370
  H        2.9325900    -0.7289320    -0.0000930
  H        2.4244870     1.7323050    -0.0000480
  H       -3.4598190    -0.1623920     0.0000440
  H       -2.3971420     0.9606620    -0.8937380
  H       -2.3971430     0.9607210     0.8937490
units angstrom
no_reorient  #important for SAPT in psi4, default
symmetry c1  #important for SAPT in psi4, default
}

set PROPERTIES_ORIGIN ["COM"]
properties('MP2/aug-cc-pvtz', properties = ['dipole'])
--------------------------------------------------------------------------

    Molecular point group: c1
  Charge       = 0
  Multiplicity = 1
  Basis Set: AUG-CC-PVTZ
    Blend: AUG-CC-PVTZ
  Basis Set: (AUG-CC-PVTZ AUX)
    Blend: AUG-CC-PVTZ-JKFIT

    Orbital Energies [Eh]
    ---------------------

    Doubly Occupied:

       1A    -20.570667     2A    -15.608025     3A    -11.273923
       4A    -11.272378     5A    -11.260089     6A    -11.240812
       7A    -11.213386     8A     -1.389103     9A     -1.287765
      10A     -1.039820    11A     -0.985381    12A     -0.922730
      13A     -0.800242    14A     -0.754716    15A     -0.735332
      16A     -0.645483    17A     -0.642385    18A     -0.617368
      19A     -0.584743    20A     -0.568812    21A     -0.565521
      22A     -0.536106    23A     -0.486489    24A     -0.481837
      25A     -0.335450    26A     -0.283922

  @DF-RHF Final Energy:  -322.80107880703451

   => Energetics <=

    Nuclear Repulsion Energy =            292.1902686811488934
    One-Electron Energy =               -1017.7777218332154234
    Two-Electron Energy =                 402.7863743450319589
    Total Energy =                       -322.8010788070345143
  Basis Set: (AUG-CC-PVTZ AUX)
    Blend: AUG-CC-PVTZ-RI
    Molecular point group: c1

    Geometry (in Angstrom), charge = 0, multiplicity = 1:

       Center              X                  Y                   Z               Mass
    ------------   -----------------  -----------------  -----------------  -----------------
         O           -1.544824231543    -0.683519272820    -0.000978201158    15.994914619570
         N            1.966517768457    -0.338599272820    -0.001091201158    14.003074004430
         C           -0.245481231543    -0.241169272820    -0.001023201158    12.000000000000
         C            0.831347768457    -1.114721272820    -0.001064201158    12.000000000000
         C            0.256827768457     1.086368727180    -0.001027201158    12.000000000000
         C            1.640433768457     0.990042727180    -0.001075201158    12.000000000000
         C           -2.512208231543     0.358371727180    -0.001013201158    12.000000000000
         H            0.861458768457    -2.193876372820     0.098921798842     1.007825032230
         H           -0.306183231543     2.008907727180    -0.001002201158     1.007825032230
         H            2.908989768457    -0.703136272820    -0.001132201158     1.007825032230
         H            2.400886768457     1.758100727180    -0.001087201158     1.007825032230
         H           -3.483419231543    -0.136596272820    -0.000995201158     1.007825032230
         H           -2.420742231543     0.986457727180    -0.894777201158     1.007825032230
         H           -2.420743231543     0.986516727180     0.892709798842     1.007825032230

  Basis Set: AUG-CC-PVTZ
    Blend: AUG-CC-PVTZ
  Basis Set: (AUG-CC-PVTZ AUX)
    Blend: AUG-CC-PVTZ-JKFIT
	 Reference Energy          =    -322.8010788070345143 [Eh]
	 Singles Energy            =      -0.0000000000000000 [Eh]
	 Same-Spin Energy          =      -0.3398383398783520 [Eh]
	 Opposite-Spin Energy      =      -1.0637177322497680 [Eh]
	 Correlation Energy        =      -1.4035560721281199 [Eh]
	 Total Energy              =    -324.2046348791626542 [Eh]

	 ================> DF-SCS-MP2 Energies <==================
	-----------------------------------------------------------
	 SCS Same-Spin Scale       =       0.3333333333333333 [-]
	 SCS Opposite-Spin Scale   =       1.2000000000000000 [-]
	 SCS Same-Spin Energy      =      -0.1132794466261173 [Eh]
	 SCS Opposite-Spin Energy  =      -1.2764612786997216 [Eh]
	 SCS Correlation Energy    =      -1.3897407253258389 [Eh]
	 SCS Total Energy          =    -324.1908195323603650 [Eh]
	-----------------------------------------------------------

  Dipole Moment: [D]
     X:     1.3666      Y:     0.5830      Z:     0.0995     Total:     1.4891

*** Psi4 exiting successfully. Buy a developer a beer!
