                               Psi4 1.3.2 release

  ==> Input File <==

--------------------------------------------------------------------------
#psi4
#
memory 32 gb

molecule  {
0 1
  O       -1.5212240    -0.7093150     0.0000610
  N        1.9901180    -0.3643950    -0.0000520
  C       -0.2218810    -0.2669650     0.0000160
  C        0.8549480    -1.1405170    -0.0000250
  C        0.2804280     1.0605730     0.0000120
  C        1.6640340     0.9642470    -0.0000360
  C       -2.4886080     0.3325760     0.0000260
  H        0.8850560    -2.2196710    -0.0000390
  H       -0.2825747     1.9831099     0.2500370
  H        2.9325900    -0.7289320    -0.0000930
  H        2.4244870     1.7323050    -0.0000480
  H       -3.4598190    -0.1623920     0.0000440
  H       -2.3971420     0.9606620    -0.8937380
  H       -2.3971430     0.9607210     0.8937490
units angstrom
no_reorient  #important for SAPT in psi4, default
symmetry c1  #important for SAPT in psi4, default
}

set PROPERTIES_ORIGIN ["COM"]
properties('MP2/aug-cc-pvtz', properties = ['dipole'])
--------------------------------------------------------------------------

    Molecular point group: c1
  Charge       = 0
  Multiplicity = 1
  Basis Set: AUG-CC-PVTZ
    Blend: AUG-CC-PVTZ
  Basis Set: (AUG-CC-PVTZ AUX)
    Blend: AUG-CC-PVTZ-JKFIT

    Orbital Energies [Eh]
    ---------------------

    Doubly Occupied:

       1A    -20.570680     2A    -15.608815     3A    -11.273574
       4A    -11.272590     5A    -11.260914     6A    -11.240804
       7A    -11.215521     8A     -1.389088     9A     -1.288389
      10A     -1.039623    11A     -0.985426    12A     -0.922713
      13A     -0.798827    14A     -0.753423    15A     -0.735692
      16A     -0.645555    17A     -0.642352    18A     -0.616658
      19A     -0.584717    20A     -0.570569    21A     -0.559720
      22A     -0.535808    23A     -0.485943    24A     -0.481714
      25A     -0.335268    26A     -0.284189

  @DF-RHF Final Energy:  -322.79790861554028

   => Energetics <=

    Nuclear Repulsion Energy =            292.0962987509158779
    One-Electron Energy =               -1017.5912726442471694
    Two-Electron Energy =                 402.6970652777909550
    Total Energy =                       -322.7979086155402797
  Basis Set: (AUG-CC-PVTZ AUX)
    Blend: AUG-CC-PVTZ-RI
    Molecular point group: c1

    Geometry (in Angstrom), charge = 0, multiplicity = 1:

       Center              X                  Y                   Z               Mass
    ------------   -----------------  -----------------  -----------------  -----------------
         O           -1.544824286580    -0.683519262436    -0.002535846183    15.994914619570
         N            1.966517713420    -0.338599262436    -0.002648846183    14.003074004430
         C           -0.245481286580    -0.241169262436    -0.002580846183    12.000000000000
         C            0.831347713420    -1.114721262436    -0.002621846183    12.000000000000
         C            0.256827713420     1.086368737564    -0.002584846183    12.000000000000
         C            1.640433713420     0.990042737564    -0.002632846183    12.000000000000
         C           -2.512208286580     0.358371737564    -0.002570846183    12.000000000000
         H            0.861455713420    -2.193875262436    -0.002635846183     1.007825032230
         H           -0.306174986580     2.008905637564     0.247440153817     1.007825032230
         H            2.908989713420    -0.703136262436    -0.002689846183     1.007825032230
         H            2.400886713420     1.758100737564    -0.002644846183     1.007825032230
         H           -3.483419286580    -0.136596262436    -0.002552846183     1.007825032230
         H           -2.420742286580     0.986457737564    -0.896334846183     1.007825032230
         H           -2.420743286580     0.986516737564     0.891152153817     1.007825032230

  Basis Set: AUG-CC-PVTZ
    Blend: AUG-CC-PVTZ
  Basis Set: (AUG-CC-PVTZ AUX)
    Blend: AUG-CC-PVTZ-JKFIT
	 Reference Energy          =    -322.7979086155402797 [Eh]
	 Singles Energy            =      -0.0000000000000000 [Eh]
	 Same-Spin Energy          =      -0.3400038762474494 [Eh]
	 Opposite-Spin Energy      =      -1.0640908379493594 [Eh]
	 Correlation Energy        =      -1.4040947141968090 [Eh]
	 Total Energy              =    -324.2020033297370674 [Eh]

	 ================> DF-SCS-MP2 Energies <==================
	-----------------------------------------------------------
	 SCS Same-Spin Scale       =       0.3333333333333333 [-]
	 SCS Opposite-Spin Scale   =       1.2000000000000000 [-]
	 SCS Same-Spin Energy      =      -0.1133346254158165 [Eh]
	 SCS Opposite-Spin Energy  =      -1.2769090055392314 [Eh]
	 SCS Correlation Energy    =      -1.3902436309550479 [Eh]
	 SCS Total Energy          =    -324.1881522464953491 [Eh]
	-----------------------------------------------------------

  Dipole Moment: [D]
     X:     1.3988      Y:     0.5265      Z:     0.2042     Total:     1.5085

*** Psi4 exiting successfully. Buy a developer a beer!
