                               Psi4 1.3.2 release

  ==> Input File <==

--------------------------------------------------------------------------
#psi4
#
memory 32 gb

molecule  {
0 1
  O       -1.5212240    -0.7093150     0.0000610
  N        1.9901180    -0.3643950    -0.0000520
  C       -0.2218810    -0.2669650     0.0000160
  C        0.8549480    -1.1405170    -0.0000250
  C        0.2804367     1.0605711     0.2500120
  C        1.6640340     0.9642470    -0.0000360
  C       -2.4886080     0.3325760     0.0000260
  H        0.8850560    -2.2196710    -0.0000390
  H       -0.2825830     1.9831120     0.0000370
  H        2.9325900    -0.7289320    -0.0000930
  H        2.4244870     1.7323050    -0.0000480
  H       -3.4598190    -0.1623920     0.0000440
  H       -2.3971420     0.9606620    -0.8937380
  H       -2.3971430     0.9607210     0.8937490
units angstrom
no_reorient  #important for SAPT in psi4, default
symmetry c1  #important for SAPT in psi4, default
}

set PROPERTIES_ORIGIN ["COM"]
properties('MP2/aug-cc-pvtz', properties = ['dipole'])
--------------------------------------------------------------------------

    Molecular point group: c1
  Charge       = 0
  Multiplicity = 1
  Basis Set: AUG-CC-PVTZ
    Blend: AUG-CC-PVTZ
  Basis Set: (AUG-CC-PVTZ AUX)
    Blend: AUG-CC-PVTZ-JKFIT

    Orbital Energies [Eh]
    ---------------------

    Doubly Occupied:

       1A    -20.571110     2A    -15.611493     3A    -11.275922
       4A    -11.273309     5A    -11.267206     6A    -11.241387
       7A    -11.218515     8A     -1.389316     9A     -1.289291
      10A     -1.036364    11A     -0.984969    12A     -0.922912
      13A     -0.797933    14A     -0.753207    15A     -0.735648
      16A     -0.646861    17A     -0.641265    18A     -0.614113
      19A     -0.586196    20A     -0.575086    21A     -0.547461
      22A     -0.534387    23A     -0.487608    24A     -0.476221
      25A     -0.336228    26A     -0.283946

  @DF-RHF Final Energy:  -322.78507803420791

   => Energetics <=

    Nuclear Repulsion Energy =            291.5026640432108138
    One-Electron Energy =               -1016.3795759977344915
    Two-Electron Energy =                 402.0918339203157075
    Total Energy =                       -322.7850780342079133
  Basis Set: (AUG-CC-PVTZ AUX)
    Blend: AUG-CC-PVTZ-RI
    Molecular point group: c1

    Geometry (in Angstrom), charge = 0, multiplicity = 1:

       Center              X                  Y                   Z               Mass
    ------------   -----------------  -----------------  -----------------  -----------------
         O           -1.544825276094    -0.683519049319    -0.030850791920    15.994914619570
         N            1.966516723906    -0.338599049319    -0.030963791920    14.003074004430
         C           -0.245482276094    -0.241169049319    -0.030895791920    12.000000000000
         C            0.831346723906    -1.114721049319    -0.030936791920    12.000000000000
         C            0.256835423906     1.086367050681     0.219100208080    12.000000000000
         C            1.640432723906     0.990042950681    -0.030947791920    12.000000000000
         C           -2.512209276094     0.358371950681    -0.030885791920    12.000000000000
         H            0.861454723906    -2.193875049319    -0.030950791920     1.007825032230
         H           -0.306184276094     2.008907950681    -0.030874791920     1.007825032230
         H            2.908988723906    -0.703136049319    -0.031004791920     1.007825032230
         H            2.400885723906     1.758100950681    -0.030959791920     1.007825032230
         H           -3.483420276094    -0.136596049319    -0.030867791920     1.007825032230
         H           -2.420743276094     0.986457950681    -0.924649791920     1.007825032230
         H           -2.420744276094     0.986516950681     0.862837208080     1.007825032230

  Basis Set: AUG-CC-PVTZ
    Blend: AUG-CC-PVTZ
  Basis Set: (AUG-CC-PVTZ AUX)
    Blend: AUG-CC-PVTZ-JKFIT
	 Reference Energy          =    -322.7850780342079133 [Eh]
	 Singles Energy            =      -0.0000000000000000 [Eh]
	 Same-Spin Energy          =      -0.3406257731102790 [Eh]
	 Opposite-Spin Energy      =      -1.0661116312234762 [Eh]
	 Correlation Energy        =      -1.4067374043337550 [Eh]
	 Total Energy              =    -324.1918154385416528 [Eh]

	 ================> DF-SCS-MP2 Energies <==================
	-----------------------------------------------------------
	 SCS Same-Spin Scale       =       0.3333333333333333 [-]
	 SCS Opposite-Spin Scale   =       1.2000000000000000 [-]
	 SCS Same-Spin Energy      =      -0.1135419243700930 [Eh]
	 SCS Opposite-Spin Energy  =      -1.2793339574681715 [Eh]
	 SCS Correlation Energy    =      -1.3928758818382645 [Eh]
	 SCS Total Energy          =    -324.1779539160461923 [Eh]
	-----------------------------------------------------------

  Dipole Moment: [D]
     X:     1.4448      Y:     0.4272      Z:    -0.2777     Total:     1.5320

*** Psi4 exiting successfully. Buy a developer a beer!
