                               Psi4 1.3.2 release

  ==> Input File <==

--------------------------------------------------------------------------
#psi4
#
memory 32 gb

molecule  {
0 1
  O       -1.5212240    -0.7093150     0.0000610
  N        1.9901180    -0.3643950    -0.0000520
  C       -0.2218810    -0.2669650     0.0000160
  C        0.8549480    -1.1405170    -0.0000250
  C        0.2804280     1.0605730     0.0000120
  C        1.6640340     0.9642470    -0.0000360
  C       -2.4886080     0.3325760     0.0000260
  H        0.8850651    -2.2196743     0.2999610
  H       -0.2825830     1.9831120     0.0000370
  H        2.9325900    -0.7289320    -0.0000930
  H        2.4244870     1.7323050    -0.0000480
  H       -3.4598190    -0.1623920     0.0000440
  H       -2.3971420     0.9606620    -0.8937380
  H       -2.3971430     0.9607210     0.8937490
units angstrom
no_reorient  #important for SAPT in psi4, default
symmetry c1  #important for SAPT in psi4, default
}

set PROPERTIES_ORIGIN ["COM"]
properties('MP2/aug-cc-pvtz', properties = ['dipole'])
--------------------------------------------------------------------------

    Molecular point group: c1
  Charge       = 0
  Multiplicity = 1
  Basis Set: AUG-CC-PVTZ
    Blend: AUG-CC-PVTZ
  Basis Set: (AUG-CC-PVTZ AUX)
    Blend: AUG-CC-PVTZ-JKFIT

    Orbital Energies [Eh]
    ---------------------

    Doubly Occupied:

       1A    -20.571538     2A    -15.607976     3A    -11.274348
       4A    -11.273751     5A    -11.261591     6A    -11.242930
       7A    -11.213992     8A     -1.389834     9A     -1.288042
      10A     -1.040457    11A     -0.984792    12A     -0.922755
      13A     -0.800403    14A     -0.754029    15A     -0.731412
      16A     -0.645775    17A     -0.643020    18A     -0.617395
      19A     -0.583475    20A     -0.570618    21A     -0.559780
      22A     -0.534439    23A     -0.486658    24A     -0.482288
      25A     -0.335876    26A     -0.284576

  @DF-RHF Final Energy:  -322.79675315585814

   => Energetics <=

    Nuclear Repulsion Energy =            292.0515355039978544
    One-Electron Energy =               -1017.4930799200142246
    Two-Electron Energy =                 402.6447912601581720
    Total Energy =                       -322.7967531558581413
  Basis Set: (AUG-CC-PVTZ AUX)
    Blend: AUG-CC-PVTZ-RI
    Molecular point group: c1

    Geometry (in Angstrom), charge = 0, multiplicity = 1:

       Center              X                  Y                   Z               Mass
    ------------   -----------------  -----------------  -----------------  -----------------
         O           -1.544824294888    -0.683519249975    -0.003055061192    15.994914619570
         N            1.966517705112    -0.338599249975    -0.003168061192    14.003074004430
         C           -0.245481294888    -0.241169249975    -0.003100061192    12.000000000000
         C            0.831347705112    -1.114721249975    -0.003141061192    12.000000000000
         C            0.256827705112     1.086368750025    -0.003104061192    12.000000000000
         C            1.640433705112     0.990042750025    -0.003152061192    12.000000000000
         C           -2.512208294888     0.358371750025    -0.003090061192    12.000000000000
         H            0.861464805112    -2.193878549975     0.296844938808     1.007825032230
         H           -0.306183294888     2.008907750025    -0.003079061192     1.007825032230
         H            2.908989705112    -0.703136249975    -0.003209061192     1.007825032230
         H            2.400886705112     1.758100750025    -0.003164061192     1.007825032230
         H           -3.483419294888    -0.136596249975    -0.003072061192     1.007825032230
         H           -2.420742294888     0.986457750025    -0.896854061192     1.007825032230
         H           -2.420743294888     0.986516750025     0.890632938808     1.007825032230

  Basis Set: AUG-CC-PVTZ
    Blend: AUG-CC-PVTZ
  Basis Set: (AUG-CC-PVTZ AUX)
    Blend: AUG-CC-PVTZ-JKFIT
	 Reference Energy          =    -322.7967531558581413 [Eh]
	 Singles Energy            =      -0.0000000000000000 [Eh]
	 Same-Spin Energy          =      -0.3400950107591367 [Eh]
	 Opposite-Spin Energy      =      -1.0643360187285651 [Eh]
	 Correlation Energy        =      -1.4044310294877018 [Eh]
	 Total Energy              =    -324.2011841853458236 [Eh]

	 ================> DF-SCS-MP2 Energies <==================
	-----------------------------------------------------------
	 SCS Same-Spin Scale       =       0.3333333333333333 [-]
	 SCS Opposite-Spin Scale   =       1.2000000000000000 [-]
	 SCS Same-Spin Energy      =      -0.1133650035863789 [Eh]
	 SCS Opposite-Spin Energy  =      -1.2772032224742780 [Eh]
	 SCS Correlation Energy    =      -1.3905682260606569 [Eh]
	 SCS Total Energy          =    -324.1873213819188209 [Eh]
	-----------------------------------------------------------

  Dipole Moment: [D]
     X:     1.3481      Y:     0.6690      Z:     0.2899     Total:     1.5326

*** Psi4 exiting successfully. Buy a developer a beer!
