                               Psi4 1.3.2 release

  ==> Input File <==

--------------------------------------------------------------------------
#psi4
#
memory 32 gb

molecule  {
0 1
  O       -1.5212240    -0.7093150     0.0000610
  N        1.9901180    -0.3643950    -0.0000520
  C       -0.2218810    -0.2669650     0.0000160
  C        0.8549480    -1.1405170    -0.0000250
  C        0.2804297     1.0605726     0.0500120
  C        1.6640340     0.9642470    -0.0000360
  C       -2.4886080     0.3325760     0.0000260
  H        0.8850560    -2.2196710    -0.0000390
  H       -0.2825830     1.9831120     0.0000370
  H        2.9325900    -0.7289320    -0.0000930
  H        2.4244870     1.7323050    -0.0000480
  H       -3.4598190    -0.1623920     0.0000440
  H       -2.3971420     0.9606620    -0.8937380
  H       -2.3971430     0.9607210     0.8937490
units angstrom
no_reorient  #important for SAPT in psi4, default
symmetry c1  #important for SAPT in psi4, default
}

set PROPERTIES_ORIGIN ["COM"]
properties('MP2/aug-cc-pvtz', properties = ['dipole'])
--------------------------------------------------------------------------

    Molecular point group: c1
  Charge       = 0
  Multiplicity = 1
  Basis Set: AUG-CC-PVTZ
    Blend: AUG-CC-PVTZ
  Basis Set: (AUG-CC-PVTZ AUX)
    Blend: AUG-CC-PVTZ-JKFIT

    Orbital Energies [Eh]
    ---------------------

    Doubly Occupied:

       1A    -20.570575     2A    -15.608173     3A    -11.273845
       4A    -11.272357     5A    -11.260195     6A    -11.240573
       7A    -11.213520     8A     -1.389020     9A     -1.287792
      10A     -1.039601    11A     -0.985450    12A     -0.922736
      13A     -0.800123    14A     -0.754775    15A     -0.735827
      16A     -0.645532    17A     -0.642230    18A     -0.617236
      19A     -0.584945    20A     -0.569807    21A     -0.564566
      22A     -0.536187    23A     -0.486576    24A     -0.481493
      25A     -0.335421    26A     -0.283841

  @DF-RHF Final Energy:  -322.80088479516849

   => Energetics <=

    Nuclear Repulsion Energy =            292.1795575485074323
    One-Electron Energy =               -1017.7560899638951923
    Two-Electron Energy =                 402.7756476202192744
    Total Energy =                       -322.8008847951684857
  Basis Set: (AUG-CC-PVTZ AUX)
    Blend: AUG-CC-PVTZ-RI
    Molecular point group: c1

    Geometry (in Angstrom), charge = 0, multiplicity = 1:

       Center              X                  Y                   Z               Mass
    ------------   -----------------  -----------------  -----------------  -----------------
         O           -1.544824410585    -0.683519234785    -0.006121975297    15.994914619570
         N            1.966517589415    -0.338599234785    -0.006234975297    14.003074004430
         C           -0.245481410585    -0.241169234785    -0.006166975297    12.000000000000
         C            0.831347589415    -1.114721234785    -0.006207975297    12.000000000000
         C            0.256829289415     1.086368365215     0.043829024703    12.000000000000
         C            1.640433589415     0.990042765215    -0.006218975297    12.000000000000
         C           -2.512208410585     0.358371765215    -0.006156975297    12.000000000000
         H            0.861455589415    -2.193875234785    -0.006221975297     1.007825032230
         H           -0.306183410585     2.008907765215    -0.006145975297     1.007825032230
         H            2.908989589415    -0.703136234785    -0.006275975297     1.007825032230
         H            2.400886589415     1.758100765215    -0.006230975297     1.007825032230
         H           -3.483419410585    -0.136596234785    -0.006138975297     1.007825032230
         H           -2.420742410585     0.986457765215    -0.899920975297     1.007825032230
         H           -2.420743410585     0.986516765215     0.887566024703     1.007825032230

  Basis Set: AUG-CC-PVTZ
    Blend: AUG-CC-PVTZ
  Basis Set: (AUG-CC-PVTZ AUX)
    Blend: AUG-CC-PVTZ-JKFIT
	 Reference Energy          =    -322.8008847951684857 [Eh]
	 Singles Energy            =      -0.0000000000000000 [Eh]
	 Same-Spin Energy          =      -0.3398386945036377 [Eh]
	 Opposite-Spin Energy      =      -1.0637287772670523 [Eh]
	 Correlation Energy        =      -1.4035674717706899 [Eh]
	 Total Energy              =    -324.2044522669391995 [Eh]

	 ================> DF-SCS-MP2 Energies <==================
	-----------------------------------------------------------
	 SCS Same-Spin Scale       =       0.3333333333333333 [-]
	 SCS Opposite-Spin Scale   =       1.2000000000000000 [-]
	 SCS Same-Spin Energy      =      -0.1132795648345459 [Eh]
	 SCS Opposite-Spin Energy  =      -1.2764745327204627 [Eh]
	 SCS Correlation Energy    =      -1.3897540975550087 [Eh]
	 SCS Total Energy          =    -324.1906388927234843 [Eh]
	-----------------------------------------------------------

  Dipole Moment: [D]
     X:     1.3723      Y:     0.5658      Z:    -0.0545     Total:     1.4854

*** Psi4 exiting successfully. Buy a developer a beer!
