                               Psi4 1.3.2 release

  ==> Input File <==

--------------------------------------------------------------------------
#psi4
#
memory 32 gb

molecule  {
0 1
  O       -1.5212240    -0.7093150     0.0000610
  N        1.9901180    -0.3643950    -0.0000520
  C       -0.2218810    -0.2669650     0.0000160
  C        0.8549480    -1.1405170    -0.0000250
  C        0.2804280     1.0605730     0.0000120
  C        1.6640340     0.9642470    -0.0000360
  C       -2.4886080     0.3325760     0.0000260
  H        0.8850560    -2.2196710    -0.0000390
  H       -0.2825813     1.9831116     0.0500370
  H        2.9325900    -0.7289320    -0.0000930
  H        2.4244870     1.7323050    -0.0000480
  H       -3.4598190    -0.1623920     0.0000440
  H       -2.3971420     0.9606620    -0.8937380
  H       -2.3971430     0.9607210     0.8937490
units angstrom
no_reorient  #important for SAPT in psi4, default
symmetry c1  #important for SAPT in psi4, default
}

set PROPERTIES_ORIGIN ["COM"]
properties('MP2/aug-cc-pvtz', properties = ['dipole'])
--------------------------------------------------------------------------

    Molecular point group: c1
  Charge       = 0
  Multiplicity = 1
  Basis Set: AUG-CC-PVTZ
    Blend: AUG-CC-PVTZ
  Basis Set: (AUG-CC-PVTZ AUX)
    Blend: AUG-CC-PVTZ-JKFIT

    Orbital Energies [Eh]
    ---------------------

    Doubly Occupied:

       1A    -20.570558     2A    -15.608068     3A    -11.273856
       4A    -11.272217     5A    -11.259936     6A    -11.240553
       7A    -11.213399     8A     -1.389011     9A     -1.287759
      10A     -1.039734    11A     -0.985466    12A     -0.922729
      13A     -0.800164    14A     -0.754797    15A     -0.735831
      16A     -0.645452    17A     -0.642302    18A     -0.617343
      19A     -0.584903    20A     -0.568411    21A     -0.566268
      22A     -0.536244    23A     -0.486439    24A     -0.481776
      25A     -0.335390    26A     -0.283853

  @DF-RHF Final Energy:  -322.80139979967089

   => Energetics <=

    Nuclear Repulsion Energy =            292.2037445126286457
    One-Electron Energy =               -1017.8053673167706847
    Two-Electron Energy =                 402.8002230044711496
    Total Energy =                       -322.8013997996708895
  Basis Set: (AUG-CC-PVTZ AUX)
    Blend: AUG-CC-PVTZ-RI
    Molecular point group: c1

    Geometry (in Angstrom), charge = 0, multiplicity = 1:

       Center              X                  Y                   Z               Mass
    ------------   -----------------  -----------------  -----------------  -----------------
         O           -1.544824218044    -0.683519280089    -0.000458986149    15.994914619570
         N            1.966517781956    -0.338599280089    -0.000571986149    14.003074004430
         C           -0.245481218044    -0.241169280089    -0.000503986149    12.000000000000
         C            0.831347781956    -1.114721280089    -0.000544986149    12.000000000000
         C            0.256827781956     1.086368719911    -0.000507986149    12.000000000000
         C            1.640433781956     0.990042719911    -0.000555986149    12.000000000000
         C           -2.512208218044     0.358371719911    -0.000493986149    12.000000000000
         H            0.861455781956    -2.193875280089    -0.000558986149     1.007825032230
         H           -0.306181518044     2.008907319911     0.049517013851     1.007825032230
         H            2.908989781956    -0.703136280089    -0.000612986149     1.007825032230
         H            2.400886781956     1.758100719911    -0.000567986149     1.007825032230
         H           -3.483419218044    -0.136596280089    -0.000475986149     1.007825032230
         H           -2.420742218044     0.986457719911    -0.894257986149     1.007825032230
         H           -2.420743218044     0.986516719911     0.893229013851     1.007825032230

  Basis Set: AUG-CC-PVTZ
    Blend: AUG-CC-PVTZ
  Basis Set: (AUG-CC-PVTZ AUX)
    Blend: AUG-CC-PVTZ-JKFIT
	 Reference Energy          =    -322.8013997996708895 [Eh]
	 Singles Energy            =      -0.0000000000000000 [Eh]
	 Same-Spin Energy          =      -0.3398130768654207 [Eh]
	 Opposite-Spin Energy      =      -1.0636632022508143 [Eh]
	 Correlation Energy        =      -1.4034762791162350 [Eh]
	 Total Energy              =    -324.2048760787871515 [Eh]

	 ================> DF-SCS-MP2 Energies <==================
	-----------------------------------------------------------
	 SCS Same-Spin Scale       =       0.3333333333333333 [-]
	 SCS Opposite-Spin Scale   =       1.2000000000000000 [-]
	 SCS Same-Spin Energy      =      -0.1132710256218069 [Eh]
	 SCS Opposite-Spin Energy  =      -1.2763958427009772 [Eh]
	 SCS Correlation Energy    =      -1.3896668683227840 [Eh]
	 SCS Total Energy          =    -324.1910666679936526 [Eh]
	-----------------------------------------------------------

  Dipole Moment: [D]
     X:     1.3704      Y:     0.5700      Z:     0.0415     Total:     1.4847

*** Psi4 exiting successfully. Buy a developer a beer!
