                               Psi4 1.3.2 release

  ==> Input File <==

--------------------------------------------------------------------------
#psi4
#
memory 32 gb

molecule  {
0 1
  O       -1.5212240    -0.7093150     0.0000610
  N        1.9901180    -0.3643950    -0.0000520
  C       -0.2218810    -0.2669650     0.0000160
  C        0.8549480    -1.1405170    -0.0000250
  C        0.2804350     1.0605715     0.2000120
  C        1.6640340     0.9642470    -0.0000360
  C       -2.4886080     0.3325760     0.0000260
  H        0.8850560    -2.2196710    -0.0000390
  H       -0.2825830     1.9831120     0.0000370
  H        2.9325900    -0.7289320    -0.0000930
  H        2.4244870     1.7323050    -0.0000480
  H       -3.4598190    -0.1623920     0.0000440
  H       -2.3971420     0.9606620    -0.8937380
  H       -2.3971430     0.9607210     0.8937490
units angstrom
no_reorient  #important for SAPT in psi4, default
symmetry c1  #important for SAPT in psi4, default
}

set PROPERTIES_ORIGIN ["COM"]
properties('MP2/aug-cc-pvtz', properties = ['dipole'])
--------------------------------------------------------------------------

    Molecular point group: c1
  Charge       = 0
  Multiplicity = 1
  Basis Set: AUG-CC-PVTZ
    Blend: AUG-CC-PVTZ
  Basis Set: (AUG-CC-PVTZ AUX)
    Blend: AUG-CC-PVTZ-JKFIT

    Orbital Energies [Eh]
    ---------------------

    Doubly Occupied:

       1A    -20.570911     2A    -15.610243     3A    -11.274624
       4A    -11.273506     5A    -11.264625     6A    -11.241069
       7A    -11.216661     8A     -1.389207     9A     -1.288718
      10A     -1.037561    11A     -0.985160    12A     -0.922842
      13A     -0.798693    14A     -0.753707    15A     -0.735706
      16A     -0.646463    17A     -0.641534    18A     -0.615230
      19A     -0.585619    20A     -0.574316    21A     -0.552676
      22A     -0.535084    23A     -0.487437    24A     -0.478036
      25A     -0.335884    26A     -0.283891

  @DF-RHF Final Energy:  -322.79107208394856

   => Energetics <=

    Nuclear Repulsion Energy =            291.7533809808035130
    One-Electron Energy =               -1016.8900962296139596
    Two-Electron Energy =                 402.3456431648618832
    Total Energy =                       -322.7910720839485634
  Basis Set: (AUG-CC-PVTZ AUX)
    Blend: AUG-CC-PVTZ-RI
    Molecular point group: c1

    Geometry (in Angstrom), charge = 0, multiplicity = 1:

       Center              X                  Y                   Z               Mass
    ------------   -----------------  -----------------  -----------------  -----------------
         O           -1.544825065899    -0.683519098777    -0.024668587764    15.994914619570
         N            1.966516934101    -0.338599098777    -0.024781587764    14.003074004430
         C           -0.245482065899    -0.241169098777    -0.024713587764    12.000000000000
         C            0.831346934101    -1.114721098777    -0.024754587764    12.000000000000
         C            0.256833934101     1.086367401223     0.175282412236    12.000000000000
         C            1.640432934101     0.990042901223    -0.024765587764    12.000000000000
         C           -2.512209065899     0.358371901223    -0.024703587764    12.000000000000
         H            0.861454934101    -2.193875098777    -0.024768587764     1.007825032230
         H           -0.306184065899     2.008907901223    -0.024692587764     1.007825032230
         H            2.908988934101    -0.703136098777    -0.024822587764     1.007825032230
         H            2.400885934101     1.758100901223    -0.024777587764     1.007825032230
         H           -3.483420065899    -0.136596098777    -0.024685587764     1.007825032230
         H           -2.420743065899     0.986457901223    -0.918467587764     1.007825032230
         H           -2.420744065899     0.986516901223     0.869019412236     1.007825032230

  Basis Set: AUG-CC-PVTZ
    Blend: AUG-CC-PVTZ
  Basis Set: (AUG-CC-PVTZ AUX)
    Blend: AUG-CC-PVTZ-JKFIT
	 Reference Energy          =    -322.7910720839485634 [Eh]
	 Singles Energy            =      -0.0000000000000000 [Eh]
	 Same-Spin Energy          =      -0.3403374061516125 [Eh]
	 Opposite-Spin Energy      =      -1.0651889000719161 [Eh]
	 Correlation Energy        =      -1.4055263062235286 [Eh]
	 Total Energy              =    -324.1965983901720847 [Eh]

	 ================> DF-SCS-MP2 Energies <==================
	-----------------------------------------------------------
	 SCS Same-Spin Scale       =       0.3333333333333333 [-]
	 SCS Opposite-Spin Scale   =       1.2000000000000000 [-]
	 SCS Same-Spin Energy      =      -0.1134458020505375 [Eh]
	 SCS Opposite-Spin Energy  =      -1.2782266800862994 [Eh]
	 SCS Correlation Energy    =      -1.3916724821368369 [Eh]
	 SCS Total Energy          =    -324.1827445660853755 [Eh]
	-----------------------------------------------------------

  Dipole Moment: [D]
     X:     1.4184      Y:     0.4784      Z:    -0.2208     Total:     1.5131

*** Psi4 exiting successfully. Buy a developer a beer!
