                               Psi4 1.3.2 release

  ==> Input File <==

--------------------------------------------------------------------------
#psi4
#
memory 32 gb

molecule  {
0 1
  O       -1.5212240    -0.7093150     0.0000610
  N        1.9901180    -0.3643950    -0.0000520
  C       -0.2218810    -0.2669650     0.0000160
  C        0.8549480    -1.1405170    -0.0000250
  C        0.2804280     1.0605730     0.0000120
  C        1.6640340     0.9642470    -0.0000360
  C       -2.4886080     0.3325760     0.0000260
  H        0.8850560    -2.2196710    -0.0000390
  H       -0.2825797     1.9831112     0.1000370
  H        2.9325900    -0.7289320    -0.0000930
  H        2.4244870     1.7323050    -0.0000480
  H       -3.4598190    -0.1623920     0.0000440
  H       -2.3971420     0.9606620    -0.8937380
  H       -2.3971430     0.9607210     0.8937490
units angstrom
no_reorient  #important for SAPT in psi4, default
symmetry c1  #important for SAPT in psi4, default
}

set PROPERTIES_ORIGIN ["COM"]
properties('MP2/aug-cc-pvtz', properties = ['dipole'])
--------------------------------------------------------------------------

    Molecular point group: c1
  Charge       = 0
  Multiplicity = 1
  Basis Set: AUG-CC-PVTZ
    Blend: AUG-CC-PVTZ
  Basis Set: (AUG-CC-PVTZ AUX)
    Blend: AUG-CC-PVTZ-JKFIT

    Orbital Energies [Eh]
    ---------------------

    Doubly Occupied:

       1A    -20.570573     2A    -15.608163     3A    -11.273820
       4A    -11.272263     5A    -11.260059     6A    -11.240584
       7A    -11.213668     8A     -1.389021     9A     -1.287838
      10A     -1.039717    11A     -0.985458    12A     -0.922727
      13A     -0.799978    14A     -0.754615    15A     -0.735816
      16A     -0.645465    17A     -0.642309    18A     -0.617245
      19A     -0.584866    20A     -0.569089    21A     -0.565045
      22A     -0.536198    23A     -0.486380    24A     -0.481768
      25A     -0.335373    26A     -0.283895

  @DF-RHF Final Energy:  -322.80100130132513

   => Energetics <=

    Nuclear Repulsion Energy =            292.1899857087885266
    One-Electron Energy =               -1017.7781089414997950
    Two-Electron Energy =                 402.7871219313861388
    Total Energy =                       -322.8010013013251296
  Basis Set: (AUG-CC-PVTZ AUX)
    Blend: AUG-CC-PVTZ-RI
    Molecular point group: c1

    Geometry (in Angstrom), charge = 0, multiplicity = 1:

       Center              X                  Y                   Z               Mass
    ------------   -----------------  -----------------  -----------------  -----------------
         O           -1.544824234659    -0.683519275936    -0.000978201158    15.994914619570
         N            1.966517765341    -0.338599275936    -0.001091201158    14.003074004430
         C           -0.245481234659    -0.241169275936    -0.001023201158    12.000000000000
         C            0.831347765341    -1.114721275936    -0.001064201158    12.000000000000
         C            0.256827765341     1.086368724064    -0.001027201158    12.000000000000
         C            1.640433765341     0.990042724064    -0.001075201158    12.000000000000
         C           -2.512208234659     0.358371724064    -0.001013201158    12.000000000000
         H            0.861455765341    -2.193875275936    -0.001078201158     1.007825032230
         H           -0.306179934659     2.008906924064     0.098997798842     1.007825032230
         H            2.908989765341    -0.703136275936    -0.001132201158     1.007825032230
         H            2.400886765341     1.758100724064    -0.001087201158     1.007825032230
         H           -3.483419234659    -0.136596275936    -0.000995201158     1.007825032230
         H           -2.420742234659     0.986457724064    -0.894777201158     1.007825032230
         H           -2.420743234659     0.986516724064     0.892709798842     1.007825032230

  Basis Set: AUG-CC-PVTZ
    Blend: AUG-CC-PVTZ
  Basis Set: (AUG-CC-PVTZ AUX)
    Blend: AUG-CC-PVTZ-JKFIT
	 Reference Energy          =    -322.8010013013251296 [Eh]
	 Singles Energy            =      -0.0000000000000000 [Eh]
	 Same-Spin Energy          =      -0.3398374002539548 [Eh]
	 Opposite-Spin Energy      =      -1.0637123840158060 [Eh]
	 Correlation Energy        =      -1.4035497842697608 [Eh]
	 Total Energy              =    -324.2045510855949146 [Eh]

	 ================> DF-SCS-MP2 Energies <==================
	-----------------------------------------------------------
	 SCS Same-Spin Scale       =       0.3333333333333333 [-]
	 SCS Opposite-Spin Scale   =       1.2000000000000000 [-]
	 SCS Same-Spin Energy      =      -0.1132791334179849 [Eh]
	 SCS Opposite-Spin Energy  =      -1.2764548608189672 [Eh]
	 SCS Correlation Energy    =      -1.3897339942369522 [Eh]
	 SCS Total Energy          =    -324.1907352955620922 [Eh]
	-----------------------------------------------------------

  Dipole Moment: [D]
     X:     1.3740      Y:     0.5644      Z:     0.0830     Total:     1.4877

*** Psi4 exiting successfully. Buy a developer a beer!
