                               Psi4 1.3.2 release

  ==> Input File <==

--------------------------------------------------------------------------
#psi4
#
memory 32 gb

molecule  {
0 1
  O       -1.5212240    -0.7093150     0.0000610
  N        1.9901180    -0.3643950    -0.0000520
  C       -0.2218810    -0.2669650     0.0000160
  C        0.8549480    -1.1405170    -0.0000250
  C        0.2804280     1.0605730     0.0000120
  C        1.6640340     0.9642470    -0.0000360
  C       -2.4886080     0.3325760     0.0000260
  H        0.8850560    -2.2196710    -0.0000390
  H       -0.2825780     1.9831107     0.1500370
  H        2.9325900    -0.7289320    -0.0000930
  H        2.4244870     1.7323050    -0.0000480
  H       -3.4598190    -0.1623920     0.0000440
  H       -2.3971420     0.9606620    -0.8937380
  H       -2.3971430     0.9607210     0.8937490
units angstrom
no_reorient  #important for SAPT in psi4, default
symmetry c1  #important for SAPT in psi4, default
}

set PROPERTIES_ORIGIN ["COM"]
properties('MP2/aug-cc-pvtz', properties = ['dipole'])
--------------------------------------------------------------------------

    Molecular point group: c1
  Charge       = 0
  Multiplicity = 1
  Basis Set: AUG-CC-PVTZ
    Blend: AUG-CC-PVTZ
  Basis Set: (AUG-CC-PVTZ AUX)
    Blend: AUG-CC-PVTZ-JKFIT

    Orbital Energies [Eh]
    ---------------------

    Doubly Occupied:

       1A    -20.570599     2A    -15.608319     3A    -11.273761
       4A    -11.272340     5A    -11.260264     6A    -11.240635
       7A    -11.214113     8A     -1.389036     9A     -1.287970
      10A     -1.039691    11A     -0.985448    12A     -0.922724
      13A     -0.799680    14A     -0.754317    15A     -0.735789
      16A     -0.645487    17A     -0.642320    18A     -0.617091
      19A     -0.584815    20A     -0.569672    21A     -0.563549
      22A     -0.536115    23A     -0.486280    24A     -0.481755
      25A     -0.335345    26A     -0.283965

  @DF-RHF Final Energy:  -322.80031159692561

   => Energetics <=

    Nuclear Repulsion Energy =            292.1672689429594811
    One-Electron Energy =               -1017.7329995443265034
    Two-Electron Energy =                 402.7654190044414122
    Total Energy =                       -322.8003115969256100
  Basis Set: (AUG-CC-PVTZ AUX)
    Blend: AUG-CC-PVTZ-RI
    Molecular point group: c1

    Geometry (in Angstrom), charge = 0, multiplicity = 1:

       Center              X                  Y                   Z               Mass
    ------------   -----------------  -----------------  -----------------  -----------------
         O           -1.544824252312    -0.683519270743    -0.001497416166    15.994914619570
         N            1.966517747688    -0.338599270743    -0.001610416166    14.003074004430
         C           -0.245481252312    -0.241169270743    -0.001542416166    12.000000000000
         C            0.831347747688    -1.114721270743    -0.001583416166    12.000000000000
         C            0.256827747688     1.086368729257    -0.001546416166    12.000000000000
         C            1.640433747688     0.990042729257    -0.001594416166    12.000000000000
         C           -2.512208252312     0.358371729257    -0.001532416166    12.000000000000
         H            0.861455747688    -2.193875270743    -0.001597416166     1.007825032230
         H           -0.306178252312     2.008906429257     0.148478583834     1.007825032230
         H            2.908989747688    -0.703136270743    -0.001651416166     1.007825032230
         H            2.400886747688     1.758100729257    -0.001606416166     1.007825032230
         H           -3.483419252312    -0.136596270743    -0.001514416166     1.007825032230
         H           -2.420742252312     0.986457729257    -0.895296416166     1.007825032230
         H           -2.420743252312     0.986516729257     0.892190583834     1.007825032230

  Basis Set: AUG-CC-PVTZ
    Blend: AUG-CC-PVTZ
  Basis Set: (AUG-CC-PVTZ AUX)
    Blend: AUG-CC-PVTZ-JKFIT
	 Reference Energy          =    -322.8003115969256100 [Eh]
	 Singles Energy            =      -0.0000000000000000 [Eh]
	 Same-Spin Energy          =      -0.3398776593383478 [Eh]
	 Opposite-Spin Energy      =      -1.0637980002873588 [Eh]
	 Correlation Energy        =      -1.4036756596257067 [Eh]
	 Total Energy              =    -324.2039872565513292 [Eh]

	 ================> DF-SCS-MP2 Energies <==================
	-----------------------------------------------------------
	 SCS Same-Spin Scale       =       0.3333333333333333 [-]
	 SCS Opposite-Spin Scale   =       1.2000000000000000 [-]
	 SCS Same-Spin Energy      =      -0.1132925531127826 [Eh]
	 SCS Opposite-Spin Energy  =      -1.2765576003448305 [Eh]
	 SCS Correlation Energy    =      -1.3898501534576131 [Eh]
	 SCS Total Energy          =    -324.1901617503831972 [Eh]
	-----------------------------------------------------------

  Dipole Moment: [D]
     X:     1.3800      Y:     0.5553      Z:     0.1240     Total:     1.4927

*** Psi4 exiting successfully. Buy a developer a beer!
