                               Psi4 1.3.2 release

  ==> Input File <==

--------------------------------------------------------------------------
#psi4
#
memory 32 gb

molecule  {
0 1
  O       -1.5212240    -0.7093150     0.0000610
  N        1.9901180    -0.3643950    -0.0000520
  C       -0.2218810    -0.2669650     0.0000160
  C        0.8549480    -1.1405170    -0.0000250
  C        0.2804280     1.0605730     0.0000120
  C        1.6640340     0.9642470    -0.0000360
  C       -2.4886080     0.3325760     0.0000260
  H        0.8850636    -2.2196738     0.2499610
  H       -0.2825830     1.9831120     0.0000370
  H        2.9325900    -0.7289320    -0.0000930
  H        2.4244870     1.7323050    -0.0000480
  H       -3.4598190    -0.1623920     0.0000440
  H       -2.3971420     0.9606620    -0.8937380
  H       -2.3971430     0.9607210     0.8937490
units angstrom
no_reorient  #important for SAPT in psi4, default
symmetry c1  #important for SAPT in psi4, default
}

set PROPERTIES_ORIGIN ["COM"]
properties('MP2/aug-cc-pvtz', properties = ['dipole'])
--------------------------------------------------------------------------

    Molecular point group: c1
  Charge       = 0
  Multiplicity = 1
  Basis Set: AUG-CC-PVTZ
    Blend: AUG-CC-PVTZ
  Basis Set: (AUG-CC-PVTZ AUX)
    Blend: AUG-CC-PVTZ-JKFIT

    Orbital Energies [Eh]
    ---------------------

    Doubly Occupied:

       1A    -20.571246     2A    -15.607985     3A    -11.274205
       4A    -11.273287     5A    -11.261085     6A    -11.242209
       7A    -11.213785     8A     -1.389589     9A     -1.287944
      10A     -1.040240    11A     -0.984974    12A     -0.922742
      13A     -0.800340    14A     -0.754191    15A     -0.732725
      16A     -0.645674    17A     -0.642811    18A     -0.617368
      19A     -0.583888    20A     -0.570207    21A     -0.561472
      22A     -0.535109    23A     -0.486615    24A     -0.482136
      25A     -0.335730    26A     -0.284352

  @DF-RHF Final Energy:  -322.79837071098467

   => Energetics <=

    Nuclear Repulsion Energy =            292.0980812724138218
    One-Electron Energy =               -1017.5890840933295749
    Two-Electron Energy =                 402.6926321099311394
    Total Energy =                       -322.7983707109846705
  Basis Set: (AUG-CC-PVTZ AUX)
    Blend: AUG-CC-PVTZ-RI
    Molecular point group: c1

    Geometry (in Angstrom), charge = 0, multiplicity = 1:

       Center              X                  Y                   Z               Mass
    ------------   -----------------  -----------------  -----------------  -----------------
         O           -1.544824279311    -0.683519255167    -0.002535846183    15.994914619570
         N            1.966517720689    -0.338599255167    -0.002648846183    14.003074004430
         C           -0.245481279311    -0.241169255167    -0.002580846183    12.000000000000
         C            0.831347720689    -1.114721255167    -0.002621846183    12.000000000000
         C            0.256827720689     1.086368744833    -0.002584846183    12.000000000000
         C            1.640433720689     0.990042744833    -0.002632846183    12.000000000000
         C           -2.512208279311     0.358371744833    -0.002570846183    12.000000000000
         H            0.861463320689    -2.193878055167     0.247364153817     1.007825032230
         H           -0.306183279311     2.008907744833    -0.002559846183     1.007825032230
         H            2.908989720689    -0.703136255167    -0.002689846183     1.007825032230
         H            2.400886720689     1.758100744833    -0.002644846183     1.007825032230
         H           -3.483419279311    -0.136596255167    -0.002552846183     1.007825032230
         H           -2.420742279311     0.986457744833    -0.896334846183     1.007825032230
         H           -2.420743279311     0.986516744833     0.891152153817     1.007825032230

  Basis Set: AUG-CC-PVTZ
    Blend: AUG-CC-PVTZ
  Basis Set: (AUG-CC-PVTZ AUX)
    Blend: AUG-CC-PVTZ-JKFIT
	 Reference Energy          =    -322.7983707109846705 [Eh]
	 Singles Energy            =      -0.0000000000000000 [Eh]
	 Same-Spin Energy          =      -0.3400088895794514 [Eh]
	 Opposite-Spin Energy      =      -1.0641172623565074 [Eh]
	 Correlation Energy        =      -1.4041261519359587 [Eh]
	 Total Energy              =    -324.2024968629206114 [Eh]

	 ================> DF-SCS-MP2 Energies <==================
	-----------------------------------------------------------
	 SCS Same-Spin Scale       =       0.3333333333333333 [-]
	 SCS Opposite-Spin Scale   =       1.2000000000000000 [-]
	 SCS Same-Spin Energy      =      -0.1133362965264838 [Eh]
	 SCS Opposite-Spin Energy  =      -1.2769407148278089 [Eh]
	 SCS Correlation Energy    =      -1.3902770113542928 [Eh]
	 SCS Total Energy          =    -324.1886477223389420 [Eh]
	-----------------------------------------------------------

  Dipole Moment: [D]
     X:     1.3541      Y:     0.6402      Z:     0.2441     Total:     1.5176

*** Psi4 exiting successfully. Buy a developer a beer!
