                               Psi4 1.3.2 release

  ==> Input File <==

--------------------------------------------------------------------------
#psi4
#
memory 32 gb

molecule  {
0 1
  O       -1.5212240    -0.7093150     0.0000610
  N        1.9901180    -0.3643950    -0.0000520
  C       -0.2218810    -0.2669650     0.0000160
  C        0.8549480    -1.1405170    -0.0000250
  C        0.2804280     1.0605730     0.0000120
  C        1.6640340     0.9642470    -0.0000360
  C       -2.4886080     0.3325760     0.0000260
  H        0.8850560    -2.2196710    -0.0000390
  H       -0.2825731     1.9831095     0.3000370
  H        2.9325900    -0.7289320    -0.0000930
  H        2.4244870     1.7323050    -0.0000480
  H       -3.4598190    -0.1623920     0.0000440
  H       -2.3971420     0.9606620    -0.8937380
  H       -2.3971430     0.9607210     0.8937490
units angstrom
no_reorient  #important for SAPT in psi4, default
symmetry c1  #important for SAPT in psi4, default
}

set PROPERTIES_ORIGIN ["COM"]
properties('MP2/aug-cc-pvtz', properties = ['dipole'])
--------------------------------------------------------------------------

    Molecular point group: c1
  Charge       = 0
  Multiplicity = 1
  Basis Set: AUG-CC-PVTZ
    Blend: AUG-CC-PVTZ
  Basis Set: (AUG-CC-PVTZ AUX)
    Blend: AUG-CC-PVTZ-JKFIT

    Orbital Energies [Eh]
    ---------------------

    Doubly Occupied:

       1A    -20.570736     2A    -15.609150     3A    -11.273449
       4A    -11.272765     5A    -11.261354     6A    -11.240921
       7A    -11.216469     8A     -1.389124     9A     -1.288673
      10A     -1.039588    11A     -0.985421    12A     -0.922707
      13A     -0.798317    14A     -0.752860    15A     -0.735616
      16A     -0.645600    17A     -0.642371    18A     -0.616409
      19A     -0.584698    20A     -0.570913    21A     -0.557384
      22A     -0.535545    23A     -0.485696    24A     -0.481685
      25A     -0.335225    26A     -0.284342

  @DF-RHF Final Energy:  -322.79610348235536

   => Energetics <=

    Nuclear Repulsion Energy =            292.0489551012164497
    One-Electron Energy =               -1017.4960806150763801
    Two-Electron Energy =                 402.6510220315045103
    Total Energy =                       -322.7961034823553632
  Basis Set: (AUG-CC-PVTZ AUX)
    Blend: AUG-CC-PVTZ-RI
    Molecular point group: c1

    Geometry (in Angstrom), charge = 0, multiplicity = 1:

       Center              X                  Y                   Z               Mass
    ------------   -----------------  -----------------  -----------------  -----------------
         O           -1.544824303195    -0.683519258282    -0.003055061192    15.994914619570
         N            1.966517696805    -0.338599258282    -0.003168061192    14.003074004430
         C           -0.245481303195    -0.241169258282    -0.003100061192    12.000000000000
         C            0.831347696805    -1.114721258282    -0.003141061192    12.000000000000
         C            0.256827696805     1.086368741718    -0.003104061192    12.000000000000
         C            1.640433696805     0.990042741718    -0.003152061192    12.000000000000
         C           -2.512208303195     0.358371741718    -0.003090061192    12.000000000000
         H            0.861455696805    -2.193875258282    -0.003155061192     1.007825032230
         H           -0.306173403195     2.008905241718     0.296920938808     1.007825032230
         H            2.908989696805    -0.703136258282    -0.003209061192     1.007825032230
         H            2.400886696805     1.758100741718    -0.003164061192     1.007825032230
         H           -3.483419303195    -0.136596258282    -0.003072061192     1.007825032230
         H           -2.420742303195     0.986457741718    -0.896854061192     1.007825032230
         H           -2.420743303195     0.986516741718     0.890632938808     1.007825032230

  Basis Set: AUG-CC-PVTZ
    Blend: AUG-CC-PVTZ
  Basis Set: (AUG-CC-PVTZ AUX)
    Blend: AUG-CC-PVTZ-JKFIT
	 Reference Energy          =    -322.7961034823553632 [Eh]
	 Singles Energy            =      -0.0000000000000000 [Eh]
	 Same-Spin Energy          =      -0.3400882441368948 [Eh]
	 Opposite-Spin Energy      =      -1.0643013439807918 [Eh]
	 Correlation Energy        =      -1.4043895881176867 [Eh]
	 Total Energy              =    -324.2004930704730441 [Eh]

	 ================> DF-SCS-MP2 Energies <==================
	-----------------------------------------------------------
	 SCS Same-Spin Scale       =       0.3333333333333333 [-]
	 SCS Opposite-Spin Scale   =       1.2000000000000000 [-]
	 SCS Same-Spin Energy      =      -0.1133627480456316 [Eh]
	 SCS Opposite-Spin Energy  =      -1.2771616127769501 [Eh]
	 SCS Correlation Energy    =      -1.3905243608225817 [Eh]
	 SCS Total Energy          =    -324.1866278431779165 [Eh]
	-----------------------------------------------------------

  Dipole Moment: [D]
     X:     1.4114      Y:     0.5072      Z:     0.2430     Total:     1.5193

*** Psi4 exiting successfully. Buy a developer a beer!
