                               Psi4 1.3.2 release

  ==> Input File <==

--------------------------------------------------------------------------
#psi4
#
memory 32 gb

molecule  {
0 1
  O       -1.5212240    -0.7093150     0.0000610
  N        1.9901180    -0.3643950    -0.0000520
  C       -0.2218810    -0.2669650     0.0000160
  C        0.8549480    -1.1405170    -0.0000250
  C        0.2804280     1.0605730     0.0000120
  C        1.6640340     0.9642470    -0.0000360
  C       -2.4886080     0.3325760     0.0000260
  H        0.8850575    -2.2196716     0.0499610
  H       -0.2825830     1.9831120     0.0000370
  H        2.9325900    -0.7289320    -0.0000930
  H        2.4244870     1.7323050    -0.0000480
  H       -3.4598190    -0.1623920     0.0000440
  H       -2.3971420     0.9606620    -0.8937380
  H       -2.3971430     0.9607210     0.8937490
units angstrom
no_reorient  #important for SAPT in psi4, default
symmetry c1  #important for SAPT in psi4, default
}

set PROPERTIES_ORIGIN ["COM"]
properties('MP2/aug-cc-pvtz', properties = ['dipole'])
--------------------------------------------------------------------------

    Molecular point group: c1
  Charge       = 0
  Multiplicity = 1
  Basis Set: AUG-CC-PVTZ
    Blend: AUG-CC-PVTZ
  Basis Set: (AUG-CC-PVTZ AUX)
    Blend: AUG-CC-PVTZ-JKFIT

    Orbital Energies [Eh]
    ---------------------

    Doubly Occupied:

       1A    -20.570582     2A    -15.608033     3A    -11.273882
       4A    -11.272246     5A    -11.259943     6A    -11.240610
       7A    -11.213328     8A     -1.389032     9A     -1.287741
      10A     -1.039760    11A     -0.985446    12A     -0.922730
      13A     -0.800231    14A     -0.754822    15A     -0.735710
      16A     -0.645456    17A     -0.642321    18A     -0.617374
      19A     -0.584872    20A     -0.568265    21A     -0.566463
      22A     -0.536222    23A     -0.486467    24A     -0.481793
      25A     -0.335409    26A     -0.283860

  @DF-RHF Final Energy:  -322.80141931419911

   => Energetics <=

    Nuclear Repulsion Energy =            292.2038151064658109
    One-Electron Energy =               -1017.8052688468468432
    Two-Electron Energy =                 402.8000344261818668
    Total Energy =                       -322.8014193141991086
  Basis Set: (AUG-CC-PVTZ AUX)
    Blend: AUG-CC-PVTZ-RI
    Molecular point group: c1

    Geometry (in Angstrom), charge = 0, multiplicity = 1:

       Center              X                  Y                   Z               Mass
    ------------   -----------------  -----------------  -----------------  -----------------
         O           -1.544824215967    -0.683519278012    -0.000458986149    15.994914619570
         N            1.966517784033    -0.338599278012    -0.000571986149    14.003074004430
         C           -0.245481215967    -0.241169278012    -0.000503986149    12.000000000000
         C            0.831347784033    -1.114721278012    -0.000544986149    12.000000000000
         C            0.256827784033     1.086368721988    -0.000507986149    12.000000000000
         C            1.640433784033     0.990042721988    -0.000555986149    12.000000000000
         C           -2.512208215967     0.358371721988    -0.000493986149    12.000000000000
         H            0.861457284033    -2.193875878012     0.049441013851     1.007825032230
         H           -0.306183215967     2.008907721988    -0.000482986149     1.007825032230
         H            2.908989784033    -0.703136278012    -0.000612986149     1.007825032230
         H            2.400886784033     1.758100721988    -0.000567986149     1.007825032230
         H           -3.483419215967    -0.136596278012    -0.000475986149     1.007825032230
         H           -2.420742215967     0.986457721988    -0.894257986149     1.007825032230
         H           -2.420743215967     0.986516721988     0.893229013851     1.007825032230

  Basis Set: AUG-CC-PVTZ
    Blend: AUG-CC-PVTZ
  Basis Set: (AUG-CC-PVTZ AUX)
    Blend: AUG-CC-PVTZ-JKFIT
	 Reference Energy          =    -322.8014193141991086 [Eh]
	 Singles Energy            =      -0.0000000000000000 [Eh]
	 Same-Spin Energy          =      -0.3398133187563529 [Eh]
	 Opposite-Spin Energy      =      -1.0636645916858083 [Eh]
	 Correlation Energy        =      -1.4034779104421613 [Eh]
	 Total Energy              =    -324.2048972246412859 [Eh]

	 ================> DF-SCS-MP2 Energies <==================
	-----------------------------------------------------------
	 SCS Same-Spin Scale       =       0.3333333333333333 [-]
	 SCS Opposite-Spin Scale   =       1.2000000000000000 [-]
	 SCS Same-Spin Energy      =      -0.1132711062521176 [Eh]
	 SCS Opposite-Spin Energy  =      -1.2763975100229699 [Eh]
	 SCS Correlation Energy    =      -1.3896686162750875 [Eh]
	 SCS Total Energy          =    -324.1910879304741684 [Eh]
	-----------------------------------------------------------

  Dipole Moment: [D]
     X:     1.3685      Y:     0.5746      Z:     0.0499     Total:     1.4851

*** Psi4 exiting successfully. Buy a developer a beer!
