                               Psi4 1.3.2 release

  ==> Input File <==

--------------------------------------------------------------------------
#psi4
#
memory 32 gb

molecule  {
0 1
  O       -2.3916800    -1.0522970    -0.0243250
  C       -1.5013820     0.0265210    -0.3499700
  C       -0.1728060    -0.1763470     0.3083280
  C        2.3285040    -0.4694590     0.2834420
  C        0.9860590    -0.2881690    -0.3549330
  C       -2.1959480     1.2879740     0.1259890
  C        3.2526380     0.7192940     0.0124360
  H       -1.3570540     0.0791090    -1.4412390
  H       -0.1904860    -0.2488370     1.3972520
  H        2.7976780    -1.3847260    -0.0993500
  H        2.2027970    -0.6058810     1.3632980
  H        0.9979826    -0.0171087    -1.4340180
  H       -2.3344480     1.2448060     1.2091660
  H       -1.6005480     2.1700530    -0.1223020
  H       -3.1779120     1.3727550    -0.3453210
  H        2.8243150     1.6377400     0.4218030
  H        3.3966440     0.8648080    -1.0620310
  H        4.2355510     0.5661250     0.4665360
  H       -1.9269720    -1.8751040    -0.2580250
units angstrom
no_reorient  #important for SAPT in psi4, default
symmetry c1  #important for SAPT in psi4, default
}

set PROPERTIES_ORIGIN ["COM"]
properties('MP2/aug-cc-pvtz', properties = ['dipole'])
--------------------------------------------------------------------------

    Molecular point group: c1
  Charge       = 0
  Multiplicity = 1
  Basis Set: AUG-CC-PVTZ
    Blend: AUG-CC-PVTZ
  Basis Set: (AUG-CC-PVTZ AUX)
    Blend: AUG-CC-PVTZ-JKFIT

    Orbital Energies [Eh]
    ---------------------

    Doubly Occupied:

       1A    -20.554016     2A    -11.281250     3A    -11.238088
       4A    -11.230728     5A    -11.227089     6A    -11.220013
       7A    -11.210846     8A     -1.353099     9A     -1.094600
      10A     -1.035263    11A     -0.974548    12A     -0.873201
      13A     -0.807820    14A     -0.758845    15A     -0.693149
      16A     -0.652763    17A     -0.610375    18A     -0.594872
      19A     -0.578605    20A     -0.538055    21A     -0.534866
      22A     -0.528204    23A     -0.522532    24A     -0.509047
      25A     -0.488045    26A     -0.471884    27A     -0.440741
      28A     -0.356243

  @DF-RHF Final Energy:  -309.14914959035775

   => Energetics <=

    Nuclear Repulsion Energy =            299.1149224061412610
    One-Electron Energy =               -1011.7705698026167056
    Two-Electron Energy =                 403.5064978061176362
    Total Energy =                       -309.1491495903577515
  Basis Set: (AUG-CC-PVTZ AUX)
    Blend: AUG-CC-PVTZ-RI
    Molecular point group: c1

    Geometry (in Angstrom), charge = 0, multiplicity = 1:

       Center              X                  Y                   Z               Mass
    ------------   -----------------  -----------------  -----------------  -----------------
         O           -2.391915030775    -1.054293936553    -0.024434363842    15.994914619570
         C           -1.501617030775     0.024524063447    -0.350079363842    12.000000000000
         C           -0.173041030775    -0.178343936553     0.308218636158    12.000000000000
         C            2.328268969225    -0.471455936553     0.283332636158    12.000000000000
         C            0.985823969225    -0.290165936553    -0.355042363842    12.000000000000
         C           -2.196183030775     1.285977063447     0.125879636158    12.000000000000
         C            3.252402969225     0.717297063447     0.012326636158    12.000000000000
         H           -1.357289030775     0.077112063447    -1.441348363842     1.007825032230
         H           -0.190721030775    -0.250833936553     1.397142636158     1.007825032230
         H            2.797442969225    -1.386722936553    -0.099459363842     1.007825032230
         H            2.202561969225    -0.607877936553     1.363188636158     1.007825032230
         H            0.997747569225    -0.019105636553    -1.434127363842     1.007825032230
         H           -2.334683030775     1.242809063447     1.209056636158     1.007825032230
         H           -1.600783030775     2.168056063447    -0.122411363842     1.007825032230
         H           -3.178147030775     1.370758063447    -0.345430363842     1.007825032230
         H            2.824079969225     1.635743063447     0.421693636158     1.007825032230
         H            3.396408969225     0.862811063447    -1.062140363842     1.007825032230
         H            4.235315969225     0.564128063447     0.466426636158     1.007825032230
         H           -1.927207030775    -1.877100936553    -0.258134363842     1.007825032230

  Basis Set: AUG-CC-PVTZ
    Blend: AUG-CC-PVTZ
  Basis Set: (AUG-CC-PVTZ AUX)
    Blend: AUG-CC-PVTZ-JKFIT
	 Reference Energy          =    -309.1491495903577515 [Eh]
	 Singles Energy            =      -0.0000000000000000 [Eh]
	 Same-Spin Energy          =      -0.3168879894025602 [Eh]
	 Opposite-Spin Energy      =      -1.1028412674287158 [Eh]
	 Correlation Energy        =      -1.4197292568312760 [Eh]
	 Total Energy              =    -310.5688788471890120 [Eh]

	 ================> DF-SCS-MP2 Energies <==================
	-----------------------------------------------------------
	 SCS Same-Spin Scale       =       0.3333333333333333 [-]
	 SCS Opposite-Spin Scale   =       1.2000000000000000 [-]
	 SCS Same-Spin Energy      =      -0.1056293298008534 [Eh]
	 SCS Opposite-Spin Energy  =      -1.3234095209144590 [Eh]
	 SCS Correlation Energy    =      -1.4290388507153124 [Eh]
	 SCS Total Energy          =    -310.5781884410730527 [Eh]
	-----------------------------------------------------------

  Dipole Moment: [D]
     X:     1.9253      Y:     0.1199      Z:    -0.5144     Total:     1.9964

*** Psi4 exiting successfully. Buy a developer a beer!
