                               Psi4 1.3.2 release

  ==> Input File <==

--------------------------------------------------------------------------
#psi4
#
memory 32 gb

molecule  {
0 1
  O       -2.3916800    -1.0522970    -0.0243250
  C       -1.5013820     0.0265210    -0.3499700
  C       -0.1728060    -0.1763470     0.3083280
  C        2.3285040    -0.4694590     0.2834420
  C        0.9860590    -0.2881690    -0.3549330
  C       -2.1959480     1.2879740     0.1259890
  C        3.2526380     0.7192940     0.0124360
  H       -1.3570540     0.0791090    -1.4412390
  H       -0.1904860    -0.2488370     1.3972520
  H        2.7976780    -1.3847260    -0.0993500
  H        2.2027970    -0.6058810     1.3632980
  H        0.9863078    -0.1162764    -1.4394475
  H       -2.3344480     1.2448060     1.2091660
  H       -1.6005480     2.1700530    -0.1223020
  H       -3.1779120     1.3727550    -0.3453210
  H        2.8243150     1.6377400     0.4218030
  H        3.3966440     0.8648080    -1.0620310
  H        4.2355510     0.5661250     0.4665360
  H       -1.9269720    -1.8751040    -0.2580250
units angstrom
no_reorient  #important for SAPT in psi4, default
symmetry c1  #important for SAPT in psi4, default
}

set PROPERTIES_ORIGIN ["COM"]
properties('MP2/aug-cc-pvtz', properties = ['dipole'])
--------------------------------------------------------------------------

    Molecular point group: c1
  Charge       = 0
  Multiplicity = 1
  Basis Set: AUG-CC-PVTZ
    Blend: AUG-CC-PVTZ
  Basis Set: (AUG-CC-PVTZ AUX)
    Blend: AUG-CC-PVTZ-JKFIT

    Orbital Energies [Eh]
    ---------------------

    Doubly Occupied:

       1A    -20.553779     2A    -11.281154     3A    -11.236673
       4A    -11.230662     5A    -11.226482     6A    -11.219836
       7A    -11.210735     8A     -1.352932     9A     -1.094649
      10A     -1.035096    11A     -0.974611    12A     -0.873250
      13A     -0.807649    14A     -0.760324    15A     -0.692982
      16A     -0.653703    17A     -0.610534    18A     -0.594819
      19A     -0.578426    20A     -0.537943    21A     -0.536197
      22A     -0.527987    23A     -0.522115    24A     -0.509746
      25A     -0.487918    26A     -0.471633    27A     -0.440699
      28A     -0.356568

  @DF-RHF Final Energy:  -309.15118682017294

   => Energetics <=

    Nuclear Repulsion Energy =            299.1473288719104744
    One-Electron Energy =               -1011.8388299540138178
    Two-Electron Energy =                 403.5403142619303480
    Total Energy =                       -309.1511868201729385
  Basis Set: (AUG-CC-PVTZ AUX)
    Blend: AUG-CC-PVTZ-RI
    Molecular point group: c1

    Geometry (in Angstrom), charge = 0, multiplicity = 1:

       Center              X                  Y                   Z               Mass
    ------------   -----------------  -----------------  -----------------  -----------------
         O           -2.391797473626    -1.053295386510    -0.024379692539    15.994914619570
         C           -1.501499473626     0.025522613490    -0.350024692539    12.000000000000
         C           -0.172923473626    -0.177345386510     0.308273307461    12.000000000000
         C            2.328386526374    -0.470457386510     0.283387307461    12.000000000000
         C            0.985941526374    -0.289167386510    -0.354987692539    12.000000000000
         C           -2.196065473626     1.286975613490     0.125934307461    12.000000000000
         C            3.252520526374     0.718295613490     0.012381307461    12.000000000000
         H           -1.357171473626     0.078110613490    -1.441293692539     1.007825032230
         H           -0.190603473626    -0.249835386510     1.397197307461     1.007825032230
         H            2.797560526374    -1.385724386510    -0.099404692539     1.007825032230
         H            2.202679526374    -0.606879386510     1.363243307461     1.007825032230
         H            0.986190326374    -0.117274786510    -1.439502192539     1.007825032230
         H           -2.334565473626     1.243807613490     1.209111307461     1.007825032230
         H           -1.600665473626     2.169054613490    -0.122356692539     1.007825032230
         H           -3.178029473626     1.371756613490    -0.345375692539     1.007825032230
         H            2.824197526374     1.636741613490     0.421748307461     1.007825032230
         H            3.396526526374     0.863809613490    -1.062085692539     1.007825032230
         H            4.235433526374     0.565126613490     0.466481307461     1.007825032230
         H           -1.927089473626    -1.876102386510    -0.258079692539     1.007825032230

  Basis Set: AUG-CC-PVTZ
    Blend: AUG-CC-PVTZ
  Basis Set: (AUG-CC-PVTZ AUX)
    Blend: AUG-CC-PVTZ-JKFIT
	 Reference Energy          =    -309.1511868201729385 [Eh]
	 Singles Energy            =      -0.0000000000000000 [Eh]
	 Same-Spin Energy          =      -0.3167663511807634 [Eh]
	 Opposite-Spin Energy      =      -1.1025438552363451 [Eh]
	 Correlation Energy        =      -1.4193102064171086 [Eh]
	 Total Energy              =    -310.5704970265900329 [Eh]

	 ================> DF-SCS-MP2 Energies <==================
	-----------------------------------------------------------
	 SCS Same-Spin Scale       =       0.3333333333333333 [-]
	 SCS Opposite-Spin Scale   =       1.2000000000000000 [-]
	 SCS Same-Spin Energy      =      -0.1055887837269211 [Eh]
	 SCS Opposite-Spin Energy  =      -1.3230526262836142 [Eh]
	 SCS Correlation Energy    =      -1.4286414100105354 [Eh]
	 SCS Total Energy          =    -310.5798282301834661 [Eh]
	-----------------------------------------------------------

  Dipole Moment: [D]
     X:     1.9232      Y:     0.0645      Z:    -0.5399     Total:     1.9986

*** Psi4 exiting successfully. Buy a developer a beer!
