                               Psi4 1.3.2 release

  ==> Input File <==

--------------------------------------------------------------------------
#psi4
#
memory 32 gb

molecule  {
0 1
  O       -2.3916800    -1.0522970    -0.0243250
  C       -1.5013820     0.0265210    -0.3499700
  C       -0.1728060    -0.1763470     0.3083280
  C        2.3285040    -0.4694590     0.2834420
  C        0.9860590    -0.2881690    -0.3549330
  C       -2.1959480     1.2879740     0.1259890
  C        3.2526380     0.7192940     0.0124360
  H       -1.3570540     0.0791090    -1.4412390
  H       -0.1904860    -0.2488370     1.3972520
  H        2.7976780    -1.3847260    -0.0993500
  H        2.2027970    -0.6058810     1.3632980
  H        0.9921452    -0.0666926    -1.4367328
  H       -2.3344480     1.2448060     1.2091660
  H       -1.6005480     2.1700530    -0.1223020
  H       -3.1779120     1.3727550    -0.3453210
  H        2.8243150     1.6377400     0.4218030
  H        3.3966440     0.8648080    -1.0620310
  H        4.2355510     0.5661250     0.4665360
  H       -1.9269720    -1.8751040    -0.2580250
units angstrom
no_reorient  #important for SAPT in psi4, default
symmetry c1  #important for SAPT in psi4, default
}

set PROPERTIES_ORIGIN ["COM"]
properties('MP2/aug-cc-pvtz', properties = ['dipole'])
--------------------------------------------------------------------------

    Molecular point group: c1
  Charge       = 0
  Multiplicity = 1
  Basis Set: AUG-CC-PVTZ
    Blend: AUG-CC-PVTZ
  Basis Set: (AUG-CC-PVTZ AUX)
    Blend: AUG-CC-PVTZ-JKFIT

    Orbital Energies [Eh]
    ---------------------

    Doubly Occupied:

       1A    -20.553884     2A    -11.281191     3A    -11.237271
       4A    -11.230692     5A    -11.226739     6A    -11.219930
       7A    -11.210779     8A     -1.353002     9A     -1.094634
      10A     -1.035171    11A     -0.974578    12A     -0.873224
      13A     -0.807736    14A     -0.759707    15A     -0.693053
      16A     -0.653282    17A     -0.610444    18A     -0.594867
      19A     -0.578503    20A     -0.537919    21A     -0.535665
      22A     -0.528087    23A     -0.522322    24A     -0.509408
      25A     -0.488042    26A     -0.471764    27A     -0.440708
      28A     -0.356429

  @DF-RHF Final Energy:  -309.15035361580181

   => Energetics <=

    Nuclear Repulsion Energy =            299.1352138072645630
    One-Electron Energy =               -1011.8130752526413971
    Two-Electron Energy =                 403.5275078295750291
    Total Energy =                       -309.1503536158018051
  Basis Set: (AUG-CC-PVTZ AUX)
    Blend: AUG-CC-PVTZ-RI
    Molecular point group: c1

    Geometry (in Angstrom), charge = 0, multiplicity = 1:

       Center              X                  Y                   Z               Mass
    ------------   -----------------  -----------------  -----------------  -----------------
         O           -2.391856252201    -1.053794661028    -0.024407027687    15.994914619570
         C           -1.501558252201     0.025023338972    -0.350052027687    12.000000000000
         C           -0.172982252201    -0.177844661028     0.308245972313    12.000000000000
         C            2.328327747799    -0.470956661028     0.283359972313    12.000000000000
         C            0.985882747799    -0.289666661028    -0.355015027687    12.000000000000
         C           -2.196124252201     1.286476338972     0.125906972313    12.000000000000
         C            3.252461747799     0.717796338972     0.012353972313    12.000000000000
         H           -1.357230252201     0.077611338972    -1.441321027687     1.007825032230
         H           -0.190662252201    -0.250334661028     1.397169972313     1.007825032230
         H            2.797501747799    -1.386223661028    -0.099432027687     1.007825032230
         H            2.202620747799    -0.607378661028     1.363215972313     1.007825032230
         H            0.991968947799    -0.068190261028    -1.436814827687     1.007825032230
         H           -2.334624252201     1.243308338972     1.209083972313     1.007825032230
         H           -1.600724252201     2.168555338972    -0.122384027687     1.007825032230
         H           -3.178088252201     1.371257338972    -0.345403027687     1.007825032230
         H            2.824138747799     1.636242338972     0.421720972313     1.007825032230
         H            3.396467747799     0.863310338972    -1.062113027687     1.007825032230
         H            4.235374747799     0.564627338972     0.466453972313     1.007825032230
         H           -1.927148252201    -1.876601661028    -0.258107027687     1.007825032230

  Basis Set: AUG-CC-PVTZ
    Blend: AUG-CC-PVTZ
  Basis Set: (AUG-CC-PVTZ AUX)
    Blend: AUG-CC-PVTZ-JKFIT
	 Reference Energy          =    -309.1503536158018051 [Eh]
	 Singles Energy            =      -0.0000000000000000 [Eh]
	 Same-Spin Energy          =      -0.3168188142838416 [Eh]
	 Opposite-Spin Energy      =      -1.1026690444156422 [Eh]
	 Correlation Energy        =      -1.4194878586994837 [Eh]
	 Total Energy              =    -310.5698414745012883 [Eh]

	 ================> DF-SCS-MP2 Energies <==================
	-----------------------------------------------------------
	 SCS Same-Spin Scale       =       0.3333333333333333 [-]
	 SCS Opposite-Spin Scale   =       1.2000000000000000 [-]
	 SCS Same-Spin Energy      =      -0.1056062714279472 [Eh]
	 SCS Opposite-Spin Energy  =      -1.3232028532987705 [Eh]
	 SCS Correlation Energy    =      -1.4288091247267176 [Eh]
	 SCS Total Energy          =    -310.5791627405285453 [Eh]
	-----------------------------------------------------------

  Dipole Moment: [D]
     X:     1.9251      Y:     0.0925      Z:    -0.5286     Total:     1.9985

*** Psi4 exiting successfully. Buy a developer a beer!
