                               Psi4 1.3.2 release

  ==> Input File <==

--------------------------------------------------------------------------
#psi4
#
memory 32 gb

molecule  {
0 1
  O       -2.3916800    -1.0522970    -0.0243250
  C       -1.5013820     0.0265210    -0.3499700
  C       -0.1728060    -0.1763470     0.3083280
  C        2.3285040    -0.4694590     0.2834420
  C        0.9860590    -0.2881690    -0.3549330
  C       -2.1959480     1.2879740     0.1259890
  C        3.2526380     0.7192940     0.0124360
  H       -1.3570540     0.0791090    -1.4412390
  H       -0.1904860    -0.2488370     1.3972520
  H        2.7976780    -1.3847260    -0.0993500
  H        2.2027970    -0.6058810     1.3632980
  H        1.0038200     0.0324751    -1.4313033
  H       -2.3344480     1.2448060     1.2091660
  H       -1.6005480     2.1700530    -0.1223020
  H       -3.1779120     1.3727550    -0.3453210
  H        2.8243150     1.6377400     0.4218030
  H        3.3966440     0.8648080    -1.0620310
  H        4.2355510     0.5661250     0.4665360
  H       -1.9269720    -1.8751040    -0.2580250
units angstrom
no_reorient  #important for SAPT in psi4, default
symmetry c1  #important for SAPT in psi4, default
}

set PROPERTIES_ORIGIN ["COM"]
properties('MP2/aug-cc-pvtz', properties = ['dipole'])
--------------------------------------------------------------------------

    Molecular point group: c1
  Charge       = 0
  Multiplicity = 1
  Basis Set: AUG-CC-PVTZ
    Blend: AUG-CC-PVTZ
  Basis Set: (AUG-CC-PVTZ AUX)
    Blend: AUG-CC-PVTZ-JKFIT

    Orbital Energies [Eh]
    ---------------------

    Doubly Occupied:

       1A    -20.554173     2A    -11.281330     3A    -11.239114
       4A    -11.230773     5A    -11.227528     6A    -11.220085
       7A    -11.210935     8A     -1.353221     9A     -1.094551
      10A     -1.035373    11A     -0.974523    12A     -0.873185
      13A     -0.807903    14A     -0.757769    15A     -0.693268
      16A     -0.652156    17A     -0.610331    18A     -0.594835
      19A     -0.578731    20A     -0.538237    21A     -0.533921
      22A     -0.528338    23A     -0.522745    24A     -0.508666
      25A     -0.487914    26A     -0.471988    27A     -0.440797
      28A     -0.356015

  @DF-RHF Final Energy:  -309.14753623565525

   => Energetics <=

    Nuclear Repulsion Energy =            299.0868463794888612
    One-Electron Energy =               -1011.7119527264734415
    Two-Electron Energy =                 403.4775701113293280
    Total Energy =                       -309.1475362356552523
  Basis Set: (AUG-CC-PVTZ AUX)
    Blend: AUG-CC-PVTZ-RI
    Molecular point group: c1

    Geometry (in Angstrom), charge = 0, multiplicity = 1:

       Center              X                  Y                   Z               Mass
    ------------   -----------------  -----------------  -----------------  -----------------
         O           -2.391973809349    -1.054793211070    -0.024461698991    15.994914619570
         C           -1.501675809349     0.024024788930    -0.350106698991    12.000000000000
         C           -0.173099809349    -0.178843211070     0.308191301009    12.000000000000
         C            2.328210190651    -0.471955211070     0.283305301009    12.000000000000
         C            0.985765190651    -0.290665211070    -0.355069698991    12.000000000000
         C           -2.196241809349     1.285477788930     0.125852301009    12.000000000000
         C            3.252344190651     0.716797788930     0.012299301009    12.000000000000
         H           -1.357347809349     0.076612788930    -1.441375698991     1.007825032230
         H           -0.190779809349    -0.251333211070     1.397115301009     1.007825032230
         H            2.797384190651    -1.387222211070    -0.099486698991     1.007825032230
         H            2.202503190651    -0.608377211070     1.363161301009     1.007825032230
         H            1.003526190651     0.029978888930    -1.431439998991     1.007825032230
         H           -2.334741809349     1.242309788930     1.209029301009     1.007825032230
         H           -1.600841809349     2.167556788930    -0.122438698991     1.007825032230
         H           -3.178205809349     1.370258788930    -0.345457698991     1.007825032230
         H            2.824021190651     1.635243788930     0.421666301009     1.007825032230
         H            3.396350190651     0.862311788930    -1.062167698991     1.007825032230
         H            4.235257190651     0.563628788930     0.466399301009     1.007825032230
         H           -1.927265809349    -1.877600211070    -0.258161698991     1.007825032230

  Basis Set: AUG-CC-PVTZ
    Blend: AUG-CC-PVTZ
  Basis Set: (AUG-CC-PVTZ AUX)
    Blend: AUG-CC-PVTZ-JKFIT
	 Reference Energy          =    -309.1475362356552523 [Eh]
	 Singles Energy            =      -0.0000000000000000 [Eh]
	 Same-Spin Energy          =      -0.3169734729470963 [Eh]
	 Opposite-Spin Energy      =      -1.1030608930037575 [Eh]
	 Correlation Energy        =      -1.4200343659508539 [Eh]
	 Total Energy              =    -310.5675706016061213 [Eh]

	 ================> DF-SCS-MP2 Energies <==================
	-----------------------------------------------------------
	 SCS Same-Spin Scale       =       0.3333333333333333 [-]
	 SCS Opposite-Spin Scale   =       1.2000000000000000 [-]
	 SCS Same-Spin Energy      =      -0.1056578243156988 [Eh]
	 SCS Opposite-Spin Energy  =      -1.3236730716045091 [Eh]
	 SCS Correlation Energy    =      -1.4293308959202078 [Eh]
	 SCS Total Energy          =    -310.5768671315754546 [Eh]
	-----------------------------------------------------------

  Dipole Moment: [D]
     X:     1.9239      Y:     0.1464      Z:    -0.4975     Total:     1.9925

*** Psi4 exiting successfully. Buy a developer a beer!
