                               Psi4 1.3.2 release

  ==> Input File <==

--------------------------------------------------------------------------
#psi4
#
memory 32 gb

molecule  {
0 1
  O       -2.3916800    -1.0522970    -0.0243250
  C       -1.5013820     0.0265210    -0.3499700
  C       -0.1728060    -0.1763470     0.3083280
  C        2.3285040    -0.4694590     0.2834420
  C        0.9860590    -0.2881690    -0.3549330
  C       -2.1959480     1.2879740     0.1259890
  C        3.2526380     0.7192940     0.0124360
  H       -1.3570540     0.0791090    -1.4412390
  H       -0.2218339    -0.4963795     1.3817594
  H        2.7976780    -1.3847260    -0.0993500
  H        2.2027970    -0.6058810     1.3632980
  H        0.9746330    -0.2154440    -1.4448770
  H       -2.3344480     1.2448060     1.2091660
  H       -1.6005480     2.1700530    -0.1223020
  H       -3.1779120     1.3727550    -0.3453210
  H        2.8243150     1.6377400     0.4218030
  H        3.3966440     0.8648080    -1.0620310
  H        4.2355510     0.5661250     0.4665360
  H       -1.9269720    -1.8751040    -0.2580250
units angstrom
no_reorient  #important for SAPT in psi4, default
symmetry c1  #important for SAPT in psi4, default
}

set PROPERTIES_ORIGIN ["COM"]
properties('MP2/aug-cc-pvtz', properties = ['dipole'])
--------------------------------------------------------------------------

    Molecular point group: c1
  Charge       = 0
  Multiplicity = 1
  Basis Set: AUG-CC-PVTZ
    Blend: AUG-CC-PVTZ
  Basis Set: (AUG-CC-PVTZ AUX)
    Blend: AUG-CC-PVTZ-JKFIT

    Orbital Energies [Eh]
    ---------------------

    Doubly Occupied:

       1A    -20.554587     2A    -11.281467     3A    -11.236936
       4A    -11.230783     5A    -11.229172     6A    -11.219765
       7A    -11.210136     8A     -1.353702     9A     -1.094359
      10A     -1.034640    11A     -0.974736    12A     -0.873197
      13A     -0.807414    14A     -0.757088    15A     -0.692975
      16A     -0.654392    17A     -0.610182    18A     -0.593764
      19A     -0.578314    20A     -0.537774    21A     -0.535644
      22A     -0.527578    23A     -0.518294    24A     -0.510350
      25A     -0.487224    26A     -0.471130    27A     -0.443180
      28A     -0.354962

  @DF-RHF Final Energy:  -309.14762170075204

   => Energetics <=

    Nuclear Repulsion Energy =            299.0174724275062772
    One-Electron Energy =               -1011.5827017923855919
    Two-Electron Energy =                 403.4176076641272743
    Total Energy =                       -309.1476217007520404
  Basis Set: (AUG-CC-PVTZ AUX)
    Blend: AUG-CC-PVTZ-RI
    Molecular point group: c1

    Geometry (in Angstrom), charge = 0, multiplicity = 1:

       Center              X                  Y                   Z               Mass
    ------------   -----------------  -----------------  -----------------  -----------------
         O           -2.391364264841    -1.049804255981    -0.024169021485    15.994914619570
         C           -1.501066264841     0.029013744019    -0.349814021485    12.000000000000
         C           -0.172490264841    -0.173854255981     0.308483978515    12.000000000000
         C            2.328819735159    -0.466966255981     0.283597978515    12.000000000000
         C            0.986374735159    -0.285676255981    -0.354777021485    12.000000000000
         C           -2.195632264841     1.290466744019     0.126144978515    12.000000000000
         C            3.252953735159     0.721786744019     0.012591978515    12.000000000000
         H           -1.356738264841     0.081601744019    -1.441083021485     1.007825032230
         H           -0.221518164841    -0.493886755981     1.381915378515     1.007825032230
         H            2.797993735159    -1.382233255981    -0.099194021485     1.007825032230
         H            2.203112735159    -0.603388255981     1.363453978515     1.007825032230
         H            0.974948735159    -0.212951255981    -1.444721021485     1.007825032230
         H           -2.334132264841     1.247298744019     1.209321978515     1.007825032230
         H           -1.600232264841     2.172545744019    -0.122146021485     1.007825032230
         H           -3.177596264841     1.375247744019    -0.345165021485     1.007825032230
         H            2.824630735159     1.640232744019     0.421958978515     1.007825032230
         H            3.396959735159     0.867300744019    -1.061875021485     1.007825032230
         H            4.235866735159     0.568617744019     0.466691978515     1.007825032230
         H           -1.926656264841    -1.872611255981    -0.257869021485     1.007825032230

  Basis Set: AUG-CC-PVTZ
    Blend: AUG-CC-PVTZ
  Basis Set: (AUG-CC-PVTZ AUX)
    Blend: AUG-CC-PVTZ-JKFIT
	 Reference Energy          =    -309.1476217007520404 [Eh]
	 Singles Energy            =      -0.0000000000000000 [Eh]
	 Same-Spin Energy          =      -0.3169503680015738 [Eh]
	 Opposite-Spin Energy      =      -1.1030456626674054 [Eh]
	 Correlation Energy        =      -1.4199960306689792 [Eh]
	 Total Energy              =    -310.5676177314210236 [Eh]

	 ================> DF-SCS-MP2 Energies <==================
	-----------------------------------------------------------
	 SCS Same-Spin Scale       =       0.3333333333333333 [-]
	 SCS Opposite-Spin Scale   =       1.2000000000000000 [-]
	 SCS Same-Spin Energy      =      -0.1056501226671913 [Eh]
	 SCS Opposite-Spin Energy  =      -1.3236547952008866 [Eh]
	 SCS Correlation Energy    =      -1.4293049178680779 [Eh]
	 SCS Total Energy          =    -310.5769266186201207 [Eh]
	-----------------------------------------------------------

  Dipole Moment: [D]
     X:     1.8922      Y:    -0.1428      Z:    -0.5948     Total:     1.9886

*** Psi4 exiting successfully. Buy a developer a beer!
