                               Psi4 1.3.2 release

  ==> Input File <==

--------------------------------------------------------------------------
#psi4
#
memory 32 gb

molecule  {
0 1
  O       -2.3916800    -1.0522970    -0.0243250
  C       -1.5013820     0.0265210    -0.3499700
  C       -0.1728060    -0.1763470     0.3083280
  C        2.3285040    -0.4694590     0.2834420
  C        0.9860590    -0.2881690    -0.3549330
  C       -2.1959480     1.2879740     0.1259890
  C        3.2526380     0.7192940     0.0124360
  H       -1.3570540     0.0791090    -1.4412390
  H       -0.2155643    -0.4468710     1.3848579
  H        2.7976780    -1.3847260    -0.0993500
  H        2.2027970    -0.6058810     1.3632980
  H        0.9746330    -0.2154440    -1.4448770
  H       -2.3344480     1.2448060     1.2091660
  H       -1.6005480     2.1700530    -0.1223020
  H       -3.1779120     1.3727550    -0.3453210
  H        2.8243150     1.6377400     0.4218030
  H        3.3966440     0.8648080    -1.0620310
  H        4.2355510     0.5661250     0.4665360
  H       -1.9269720    -1.8751040    -0.2580250
units angstrom
no_reorient  #important for SAPT in psi4, default
symmetry c1  #important for SAPT in psi4, default
}

set PROPERTIES_ORIGIN ["COM"]
properties('MP2/aug-cc-pvtz', properties = ['dipole'])
--------------------------------------------------------------------------

    Molecular point group: c1
  Charge       = 0
  Multiplicity = 1
  Basis Set: AUG-CC-PVTZ
    Blend: AUG-CC-PVTZ
  Basis Set: (AUG-CC-PVTZ AUX)
    Blend: AUG-CC-PVTZ-JKFIT

    Orbital Energies [Eh]
    ---------------------

    Doubly Occupied:

       1A    -20.554420     2A    -11.281387     3A    -11.236600
       4A    -11.230703     5A    -11.228165     6A    -11.219687
       7A    -11.210264     8A     -1.353554     9A     -1.094397
      10A     -1.034706    11A     -0.974731    12A     -0.873219
      13A     -0.807391    14A     -0.758303    15A     -0.693041
      16A     -0.654319    17A     -0.610222    18A     -0.594149
      19A     -0.578342    20A     -0.538169    21A     -0.535792
      22A     -0.527639    23A     -0.519134    24A     -0.510436
      25A     -0.487244    26A     -0.471166    27A     -0.442724
      28A     -0.355403

  @DF-RHF Final Energy:  -309.14920376806566

   => Energetics <=

    Nuclear Repulsion Energy =            299.0595011944469661
    One-Electron Energy =               -1011.6668004891560031
    Two-Electron Energy =                 403.4580955266433762
    Total Energy =                       -309.1492037680656608
  Basis Set: (AUG-CC-PVTZ AUX)
    Blend: AUG-CC-PVTZ-RI
    Molecular point group: c1

    Geometry (in Angstrom), charge = 0, multiplicity = 1:

       Center              X                  Y                   Z               Mass
    ------------   -----------------  -----------------  -----------------  -----------------
         O           -2.391427395370    -1.050302772280    -0.024200221234    15.994914619570
         C           -1.501129395370     0.028515227720    -0.349845221234    12.000000000000
         C           -0.172553395370    -0.174352772280     0.308452778766    12.000000000000
         C            2.328756604630    -0.467464772280     0.283566778766    12.000000000000
         C            0.986311604630    -0.286174772280    -0.354808221234    12.000000000000
         C           -2.195695395370     1.289968227720     0.126113778766    12.000000000000
         C            3.252890604630     0.721288227720     0.012560778766    12.000000000000
         H           -1.356801395370     0.081103227720    -1.441114221234     1.007825032230
         H           -0.215311695370    -0.444876772280     1.384982678766     1.007825032230
         H            2.797930604630    -1.382731772280    -0.099225221234     1.007825032230
         H            2.203049604630    -0.603886772280     1.363422778766     1.007825032230
         H            0.974885604630    -0.213449772280    -1.444752221234     1.007825032230
         H           -2.334195395370     1.246800227720     1.209290778766     1.007825032230
         H           -1.600295395370     2.172047227720    -0.122177221234     1.007825032230
         H           -3.177659395370     1.374749227720    -0.345196221234     1.007825032230
         H            2.824567604630     1.639734227720     0.421927778766     1.007825032230
         H            3.396896604630     0.866802227720    -1.061906221234     1.007825032230
         H            4.235803604630     0.568119227720     0.466660778766     1.007825032230
         H           -1.926719395370    -1.873109772280    -0.257900221234     1.007825032230

  Basis Set: AUG-CC-PVTZ
    Blend: AUG-CC-PVTZ
  Basis Set: (AUG-CC-PVTZ AUX)
    Blend: AUG-CC-PVTZ-JKFIT
	 Reference Energy          =    -309.1492037680656608 [Eh]
	 Singles Energy            =      -0.0000000000000000 [Eh]
	 Same-Spin Energy          =      -0.3168690241935690 [Eh]
	 Opposite-Spin Energy      =      -1.1028344821026641 [Eh]
	 Correlation Energy        =      -1.4197035062962331 [Eh]
	 Total Energy              =    -310.5689072743618908 [Eh]

	 ================> DF-SCS-MP2 Energies <==================
	-----------------------------------------------------------
	 SCS Same-Spin Scale       =       0.3333333333333333 [-]
	 SCS Opposite-Spin Scale   =       1.2000000000000000 [-]
	 SCS Same-Spin Energy      =      -0.1056230080645230 [Eh]
	 SCS Opposite-Spin Energy  =      -1.3234013785231968 [Eh]
	 SCS Correlation Energy    =      -1.4290243865877199 [Eh]
	 SCS Total Energy          =    -310.5782281546534023 [Eh]
	-----------------------------------------------------------

  Dipole Moment: [D]
     X:     1.8937      Y:    -0.1139      Z:    -0.5812     Total:     1.9841

*** Psi4 exiting successfully. Buy a developer a beer!
