                               Psi4 1.3.2 release

  ==> Input File <==

--------------------------------------------------------------------------
#psi4
#
memory 32 gb

molecule  {
0 1
  O       -2.3916800    -1.0522970    -0.0243250
  C       -1.5013820     0.0265210    -0.3499700
  C       -0.1728060    -0.1763470     0.3083280
  C        2.3285040    -0.4694590     0.2834420
  C        0.9860590    -0.2881690    -0.3549330
  C       -2.1959480     1.2879740     0.1259890
  C        3.2526380     0.7192940     0.0124360
  H       -1.3570540     0.0791090    -1.4412390
  H       -0.1904860    -0.2488370     1.3972520
  H        2.7976780    -1.3847260    -0.0993500
  H        2.2027970    -0.6058810     1.3632980
  H        1.0096575     0.0820589    -1.4285886
  H       -2.3344480     1.2448060     1.2091660
  H       -1.6005480     2.1700530    -0.1223020
  H       -3.1779120     1.3727550    -0.3453210
  H        2.8243150     1.6377400     0.4218030
  H        3.3966440     0.8648080    -1.0620310
  H        4.2355510     0.5661250     0.4665360
  H       -1.9269720    -1.8751040    -0.2580250
units angstrom
no_reorient  #important for SAPT in psi4, default
symmetry c1  #important for SAPT in psi4, default
}

set PROPERTIES_ORIGIN ["COM"]
properties('MP2/aug-cc-pvtz', properties = ['dipole'])
--------------------------------------------------------------------------

    Molecular point group: c1
  Charge       = 0
  Multiplicity = 1
  Basis Set: AUG-CC-PVTZ
    Blend: AUG-CC-PVTZ
  Basis Set: (AUG-CC-PVTZ AUX)
    Blend: AUG-CC-PVTZ-JKFIT

    Orbital Energies [Eh]
    ---------------------

    Doubly Occupied:

       1A    -20.554353     2A    -11.281429     3A    -11.240339
       4A    -11.230829     5A    -11.228054     6A    -11.220148
       7A    -11.211046     8A     -1.353367     9A     -1.094492
      10A     -1.035498    11A     -0.974508    12A     -0.873178
      13A     -0.807988    14A     -0.756513    15A     -0.693411
      16A     -0.651471    17A     -0.610313    18A     -0.594761
      19A     -0.578878    20A     -0.538423    21A     -0.532880
      22A     -0.528487    23A     -0.522963    24A     -0.508269
      25A     -0.487635    26A     -0.472072    27A     -0.440873
      28A     -0.355750

  @DF-RHF Final Energy:  -309.14547289136908

   => Energetics <=

    Nuclear Repulsion Energy =            299.0514548008014799
    One-Electron Energy =               -1011.6379991611402147
    Two-Electron Energy =                 403.4410714689696533
    Total Energy =                       -309.1454728913690815
  Basis Set: (AUG-CC-PVTZ AUX)
    Blend: AUG-CC-PVTZ-RI
    Molecular point group: c1

    Geometry (in Angstrom), charge = 0, multiplicity = 1:

       Center              X                  Y                   Z               Mass
    ------------   -----------------  -----------------  -----------------  -----------------
         O           -2.392032588930    -1.055292485588    -0.024489034139    15.994914619570
         C           -1.501734588930     0.023525514412    -0.350134034139    12.000000000000
         C           -0.173158588930    -0.179342485588     0.308163965861    12.000000000000
         C            2.328151411070    -0.472454485588     0.283277965861    12.000000000000
         C            0.985706411070    -0.291164485588    -0.355097034139    12.000000000000
         C           -2.196300588930     1.284978514412     0.125824965861    12.000000000000
         C            3.252285411070     0.716298514412     0.012271965861    12.000000000000
         H           -1.357406588930     0.076113514412    -1.441403034139     1.007825032230
         H           -0.190838588930    -0.251832485588     1.397087965861     1.007825032230
         H            2.797325411070    -1.387721485588    -0.099514034139     1.007825032230
         H            2.202444411070    -0.608876485588     1.363133965861     1.007825032230
         H            1.009304911070     0.079063414412    -1.428752634139     1.007825032230
         H           -2.334800588930     1.241810514412     1.209001965861     1.007825032230
         H           -1.600900588930     2.167057514412    -0.122466034139     1.007825032230
         H           -3.178264588930     1.369759514412    -0.345485034139     1.007825032230
         H            2.823962411070     1.634744514412     0.421638965861     1.007825032230
         H            3.396291411070     0.861812514412    -1.062195034139     1.007825032230
         H            4.235198411070     0.563129514412     0.466371965861     1.007825032230
         H           -1.927324588930    -1.878099485588    -0.258189034139     1.007825032230

  Basis Set: AUG-CC-PVTZ
    Blend: AUG-CC-PVTZ
  Basis Set: (AUG-CC-PVTZ AUX)
    Blend: AUG-CC-PVTZ-JKFIT
	 Reference Energy          =    -309.1454728913690815 [Eh]
	 Singles Energy            =      -0.0000000000000000 [Eh]
	 Same-Spin Energy          =      -0.3170746990979733 [Eh]
	 Opposite-Spin Energy      =      -1.1033278056193336 [Eh]
	 Correlation Energy        =      -1.4204025047173070 [Eh]
	 Total Energy              =    -310.5658753960863692 [Eh]

	 ================> DF-SCS-MP2 Energies <==================
	-----------------------------------------------------------
	 SCS Same-Spin Scale       =       0.3333333333333333 [-]
	 SCS Opposite-Spin Scale   =       1.2000000000000000 [-]
	 SCS Same-Spin Energy      =      -0.1056915663659911 [Eh]
	 SCS Opposite-Spin Energy  =      -1.3239933667432002 [Eh]
	 SCS Correlation Energy    =      -1.4296849331091914 [Eh]
	 SCS Total Energy          =    -310.5751578244782536 [Eh]
	-----------------------------------------------------------

  Dipole Moment: [D]
     X:     1.9211      Y:     0.1719      Z:    -0.4778     Total:     1.9870

*** Psi4 exiting successfully. Buy a developer a beer!
