                               Psi4 1.3.2 release

  ==> Input File <==

--------------------------------------------------------------------------
#psi4
#
memory 32 gb

molecule  {
0 1
  O       -2.3916800    -1.0522970    -0.0243250
  C       -1.5013820     0.0265210    -0.3499700
  C       -0.1728060    -0.1763470     0.3083280
  C        2.3285040    -0.4694590     0.2834420
  C        0.9860590    -0.2881690    -0.3549330
  C       -2.1959480     1.2879740     0.1259890
  C        3.2526380     0.7192940     0.0124360
  H       -1.3570540     0.0791090    -1.4412390
  H       -0.2092947    -0.3973625     1.3879565
  H        2.7976780    -1.3847260    -0.0993500
  H        2.2027970    -0.6058810     1.3632980
  H        0.9746330    -0.2154440    -1.4448770
  H       -2.3344480     1.2448060     1.2091660
  H       -1.6005480     2.1700530    -0.1223020
  H       -3.1779120     1.3727550    -0.3453210
  H        2.8243150     1.6377400     0.4218030
  H        3.3966440     0.8648080    -1.0620310
  H        4.2355510     0.5661250     0.4665360
  H       -1.9269720    -1.8751040    -0.2580250
units angstrom
no_reorient  #important for SAPT in psi4, default
symmetry c1  #important for SAPT in psi4, default
}

set PROPERTIES_ORIGIN ["COM"]
properties('MP2/aug-cc-pvtz', properties = ['dipole'])
--------------------------------------------------------------------------

    Molecular point group: c1
  Charge       = 0
  Multiplicity = 1
  Basis Set: AUG-CC-PVTZ
    Blend: AUG-CC-PVTZ
  Basis Set: (AUG-CC-PVTZ AUX)
    Blend: AUG-CC-PVTZ-JKFIT

    Orbital Energies [Eh]
    ---------------------

    Doubly Occupied:

       1A    -20.554242     2A    -11.281316     3A    -11.236352
       4A    -11.230645     5A    -11.227362     6A    -11.219632
       7A    -11.210388     8A     -1.353396     9A     -1.094443
      10A     -1.034777    11A     -0.974724    12A     -0.873243
      13A     -0.807386    14A     -0.759304    15A     -0.693069
      16A     -0.654265    17A     -0.610304    18A     -0.594431
      19A     -0.578361    20A     -0.538504    21A     -0.535895
      22A     -0.527698    23A     -0.519895    24A     -0.510457
      25A     -0.487263    26A     -0.471202    27A     -0.442252
      28A     -0.355802

  @DF-RHF Final Energy:  -309.15038311054218

   => Energetics <=

    Nuclear Repulsion Energy =            299.0937126078597430
    One-Electron Energy =               -1011.7349714878286022
    Two-Electron Energy =                 403.4908757694266797
    Total Energy =                       -309.1503831105421796
  Basis Set: (AUG-CC-PVTZ AUX)
    Blend: AUG-CC-PVTZ-RI
    Molecular point group: c1

    Geometry (in Angstrom), charge = 0, multiplicity = 1:

       Center              X                  Y                   Z               Mass
    ------------   -----------------  -----------------  -----------------  -----------------
         O           -2.391490525898    -1.050801288579    -0.024231421989    15.994914619570
         C           -1.501192525898     0.028016711421    -0.349876421989    12.000000000000
         C           -0.172616525898    -0.174851288579     0.308421578011    12.000000000000
         C            2.328693474102    -0.467963288579     0.283535578011    12.000000000000
         C            0.986248474102    -0.286673288579    -0.354839421989    12.000000000000
         C           -2.195758525898     1.289469711421     0.126082578011    12.000000000000
         C            3.252827474102     0.720789711421     0.012529578011    12.000000000000
         H           -1.356864525898     0.080604711421    -1.441145421989     1.007825032230
         H           -0.209105225898    -0.395866788579     1.388050078011     1.007825032230
         H            2.797867474102    -1.383230288579    -0.099256421989     1.007825032230
         H            2.202986474102    -0.604385288579     1.363391578011     1.007825032230
         H            0.974822474102    -0.213948288579    -1.444783421989     1.007825032230
         H           -2.334258525898     1.246301711421     1.209259578011     1.007825032230
         H           -1.600358525898     2.171548711421    -0.122208421989     1.007825032230
         H           -3.177722525898     1.374250711421    -0.345227421989     1.007825032230
         H            2.824504474102     1.639235711421     0.421896578011     1.007825032230
         H            3.396833474102     0.866303711421    -1.061937421989     1.007825032230
         H            4.235740474102     0.567620711421     0.466629578011     1.007825032230
         H           -1.926782525898    -1.873608288579    -0.257931421989     1.007825032230

  Basis Set: AUG-CC-PVTZ
    Blend: AUG-CC-PVTZ
  Basis Set: (AUG-CC-PVTZ AUX)
    Blend: AUG-CC-PVTZ-JKFIT
	 Reference Energy          =    -309.1503831105421796 [Eh]
	 Singles Energy            =      -0.0000000000000000 [Eh]
	 Same-Spin Energy          =      -0.3168041497566257 [Eh]
	 Opposite-Spin Energy      =      -1.1026666745500751 [Eh]
	 Correlation Energy        =      -1.4194708243067007 [Eh]
	 Total Energy              =    -310.5698539348488794 [Eh]

	 ================> DF-SCS-MP2 Energies <==================
	-----------------------------------------------------------
	 SCS Same-Spin Scale       =       0.3333333333333333 [-]
	 SCS Opposite-Spin Scale   =       1.2000000000000000 [-]
	 SCS Same-Spin Energy      =      -0.1056013832522086 [Eh]
	 SCS Opposite-Spin Energy  =      -1.3232000094600900 [Eh]
	 SCS Correlation Energy    =      -1.4288013927122987 [Eh]
	 SCS Total Energy          =    -310.5791845032544529 [Eh]
	-----------------------------------------------------------

  Dipole Moment: [D]
     X:     1.8966      Y:    -0.0843      Z:    -0.5701     Total:     1.9822

*** Psi4 exiting successfully. Buy a developer a beer!
