                               Psi4 1.3.2 release

  ==> Input File <==

--------------------------------------------------------------------------
#psi4
#
memory 32 gb

molecule  {
0 1
  O       -2.3916800    -1.0522970    -0.0243250
  C       -1.5013820     0.0265210    -0.3499700
  C       -0.1728060    -0.1763470     0.3083280
  C        2.3285040    -0.4694590     0.2834420
  C        0.9860590    -0.2881690    -0.3549330
  C       -2.1959480     1.2879740     0.1259890
  C        3.2526380     0.7192940     0.0124360
  H       -1.3570540     0.0791090    -1.4412390
  H       -0.2281035    -0.5458880     1.3786609
  H        2.7976780    -1.3847260    -0.0993500
  H        2.2027970    -0.6058810     1.3632980
  H        0.9746330    -0.2154440    -1.4448770
  H       -2.3344480     1.2448060     1.2091660
  H       -1.6005480     2.1700530    -0.1223020
  H       -3.1779120     1.3727550    -0.3453210
  H        2.8243150     1.6377400     0.4218030
  H        3.3966440     0.8648080    -1.0620310
  H        4.2355510     0.5661250     0.4665360
  H       -1.9269720    -1.8751040    -0.2580250
units angstrom
no_reorient  #important for SAPT in psi4, default
symmetry c1  #important for SAPT in psi4, default
}

set PROPERTIES_ORIGIN ["COM"]
properties('MP2/aug-cc-pvtz', properties = ['dipole'])
--------------------------------------------------------------------------

    Molecular point group: c1
  Charge       = 0
  Multiplicity = 1
  Basis Set: AUG-CC-PVTZ
    Blend: AUG-CC-PVTZ
  Basis Set: (AUG-CC-PVTZ AUX)
    Blend: AUG-CC-PVTZ-JKFIT

    Orbital Energies [Eh]
    ---------------------

    Doubly Occupied:

       1A    -20.554743     2A    -11.281557     3A    -11.237358
       4A    -11.230888     5A    -11.230369     6A    -11.219865
       7A    -11.210005     8A     -1.353840     9A     -1.094334
      10A     -1.034581    11A     -0.974740    12A     -0.873178
      13A     -0.807456    14A     -0.755696    15A     -0.692873
      16A     -0.654483    17A     -0.610188    18A     -0.593291
      19A     -0.578283    20A     -0.537388    21A     -0.535405
      22A     -0.527516    23A     -0.517395    24A     -0.510152
      25A     -0.487197    26A     -0.471092    27A     -0.443618
      28A     -0.354485

  @DF-RHF Final Energy:  -309.14559482320760

   => Energetics <=

    Nuclear Repulsion Energy =            298.9681035562296643
    One-Electron Energy =               -1011.4834461953228129
    Two-Electron Energy =                 403.3697478158856029
    Total Energy =                       -309.1455948232076025
  Basis Set: (AUG-CC-PVTZ AUX)
    Blend: AUG-CC-PVTZ-RI
    Molecular point group: c1

    Geometry (in Angstrom), charge = 0, multiplicity = 1:

       Center              X                  Y                   Z               Mass
    ------------   -----------------  -----------------  -----------------  -----------------
         O           -2.391301134312    -1.049305739682    -0.024137821736    15.994914619570
         C           -1.501003134312     0.029512260318    -0.349782821736    12.000000000000
         C           -0.172427134312    -0.173355739682     0.308515178264    12.000000000000
         C            2.328882865688    -0.466467739682     0.283629178264    12.000000000000
         C            0.986437865688    -0.285177739682    -0.354745821736    12.000000000000
         C           -2.195569134312     1.290965260318     0.126176178264    12.000000000000
         C            3.253016865688     0.722285260318     0.012623178264    12.000000000000
         H           -1.356675134312     0.082100260318    -1.441051821736     1.007825032230
         H           -0.227724634312    -0.542896739682     1.378848078264     1.007825032230
         H            2.798056865688    -1.381734739682    -0.099162821736     1.007825032230
         H            2.203175865688    -0.602889739682     1.363485178264     1.007825032230
         H            0.975011865688    -0.212452739682    -1.444689821736     1.007825032230
         H           -2.334069134312     1.247797260318     1.209353178264     1.007825032230
         H           -1.600169134312     2.173044260318    -0.122114821736     1.007825032230
         H           -3.177533134312     1.375746260318    -0.345133821736     1.007825032230
         H            2.824693865688     1.640731260318     0.421990178264     1.007825032230
         H            3.397022865688     0.867799260318    -1.061843821736     1.007825032230
         H            4.235929865688     0.569116260318     0.466723178264     1.007825032230
         H           -1.926593134312    -1.872112739682    -0.257837821736     1.007825032230

  Basis Set: AUG-CC-PVTZ
    Blend: AUG-CC-PVTZ
  Basis Set: (AUG-CC-PVTZ AUX)
    Blend: AUG-CC-PVTZ-JKFIT
	 Reference Energy          =    -309.1455948232076025 [Eh]
	 Singles Energy            =      -0.0000000000000000 [Eh]
	 Same-Spin Energy          =      -0.3170475732263587 [Eh]
	 Opposite-Spin Energy      =      -1.1032994906304758 [Eh]
	 Correlation Energy        =      -1.4203470638568345 [Eh]
	 Total Energy              =    -310.5659418870644117 [Eh]

	 ================> DF-SCS-MP2 Energies <==================
	-----------------------------------------------------------
	 SCS Same-Spin Scale       =       0.3333333333333333 [-]
	 SCS Opposite-Spin Scale   =       1.2000000000000000 [-]
	 SCS Same-Spin Energy      =      -0.1056825244087862 [Eh]
	 SCS Opposite-Spin Energy  =      -1.3239593887565710 [Eh]
	 SCS Correlation Energy    =      -1.4296419131653573 [Eh]
	 SCS Total Energy          =    -310.5752367363729718 [Eh]
	-----------------------------------------------------------

  Dipole Moment: [D]
     X:     1.8918      Y:    -0.1707      Z:    -0.6110     Total:     1.9954

*** Psi4 exiting successfully. Buy a developer a beer!
