                               Psi4 1.3.2 release

  ==> Input File <==

--------------------------------------------------------------------------
#psi4
#
memory 32 gb

molecule  {
0 1
  O       -2.3916800    -1.0522970    -0.0243250
  C       -1.5013820     0.0265210    -0.3499700
  C       -0.1728060    -0.1763470     0.3083280
  C        2.3285040    -0.4694590     0.2834420
  C        0.9860590    -0.2881690    -0.3549330
  C       -2.1959480     1.2879740     0.1259890
  C        3.2526380     0.7192940     0.0124360
  H       -1.3570540     0.0791090    -1.4412390
  H       -0.1904860    -0.2488370     1.3972520
  H        2.7976780    -1.3847260    -0.0993500
  H        2.2027970    -0.6058810     1.3632980
  H        0.9804704    -0.1658602    -1.4421623
  H       -2.3344480     1.2448060     1.2091660
  H       -1.6005480     2.1700530    -0.1223020
  H       -3.1779120     1.3727550    -0.3453210
  H        2.8243150     1.6377400     0.4218030
  H        3.3966440     0.8648080    -1.0620310
  H        4.2355510     0.5661250     0.4665360
  H       -1.9269720    -1.8751040    -0.2580250
units angstrom
no_reorient  #important for SAPT in psi4, default
symmetry c1  #important for SAPT in psi4, default
}

set PROPERTIES_ORIGIN ["COM"]
properties('MP2/aug-cc-pvtz', properties = ['dipole'])
--------------------------------------------------------------------------

    Molecular point group: c1
  Charge       = 0
  Multiplicity = 1
  Basis Set: AUG-CC-PVTZ
    Blend: AUG-CC-PVTZ
  Basis Set: (AUG-CC-PVTZ AUX)
    Blend: AUG-CC-PVTZ-JKFIT

    Orbital Energies [Eh]
    ---------------------

    Doubly Occupied:

       1A    -20.553702     2A    -11.281138     3A    -11.236299
       4A    -11.230637     5A    -11.226321     6A    -11.219733
       7A    -11.210716     8A     -1.352889     9A     -1.094642
      10A     -1.035038    11A     -0.974644    12A     -0.873278
      13A     -0.807558    14A     -0.760676    15A     -0.692937
      16A     -0.654015    17A     -0.610641    18A     -0.594727
      19A     -0.578375    20A     -0.538260    21A     -0.536326
      22A     -0.527905    23A     -0.521907    24A     -0.510061
      25A     -0.487685    26A     -0.471491    27A     -0.440718
      28A     -0.356657

  @DF-RHF Final Energy:  -309.15168139322071

   => Energetics <=

    Nuclear Repulsion Energy =            299.1509682366238394
    One-Electron Energy =               -1011.8473494809156819
    Two-Electron Energy =                 403.5446998510711296
    Total Energy =                       -309.1516813932207128
  Basis Set: (AUG-CC-PVTZ AUX)
    Blend: AUG-CC-PVTZ-RI
    Molecular point group: c1

    Geometry (in Angstrom), charge = 0, multiplicity = 1:

       Center              X                  Y                   Z               Mass
    ------------   -----------------  -----------------  -----------------  -----------------
         O           -2.391738695052    -1.052796111993    -0.024352356383    15.994914619570
         C           -1.501440695052     0.026021888007    -0.349997356383    12.000000000000
         C           -0.172864695052    -0.176846111993     0.308300643617    12.000000000000
         C            2.328445304948    -0.469958111993     0.283414643617    12.000000000000
         C            0.986000304948    -0.288668111993    -0.354960356383    12.000000000000
         C           -2.196006695052     1.287474888007     0.125961643617    12.000000000000
         C            3.252579304948     0.718794888007     0.012408643617    12.000000000000
         H           -1.357112695052     0.078609888007    -1.441266356383     1.007825032230
         H           -0.190544695052    -0.249336111993     1.397224643617     1.007825032230
         H            2.797619304948    -1.385225111993    -0.099377356383     1.007825032230
         H            2.202738304948    -0.606380111993     1.363270643617     1.007825032230
         H            0.980411704948    -0.166359311993    -1.442189656383     1.007825032230
         H           -2.334506695052     1.244306888007     1.209138643617     1.007825032230
         H           -1.600606695052     2.169553888007    -0.122329356383     1.007825032230
         H           -3.177970695052     1.372255888007    -0.345348356383     1.007825032230
         H            2.824256304948     1.637240888007     0.421775643617     1.007825032230
         H            3.396585304948     0.864308888007    -1.062058356383     1.007825032230
         H            4.235492304948     0.565625888007     0.466508643617     1.007825032230
         H           -1.927030695052    -1.875603111993    -0.258052356383     1.007825032230

  Basis Set: AUG-CC-PVTZ
    Blend: AUG-CC-PVTZ
  Basis Set: (AUG-CC-PVTZ AUX)
    Blend: AUG-CC-PVTZ-JKFIT
	 Reference Energy          =    -309.1516813932207128 [Eh]
	 Singles Energy            =      -0.0000000000000000 [Eh]
	 Same-Spin Energy          =      -0.3167308509234557 [Eh]
	 Opposite-Spin Energy      =      -1.1024650432227774 [Eh]
	 Correlation Energy        =      -1.4191958941462330 [Eh]
	 Total Energy              =    -310.5708772873669545 [Eh]

	 ================> DF-SCS-MP2 Energies <==================
	-----------------------------------------------------------
	 SCS Same-Spin Scale       =       0.3333333333333333 [-]
	 SCS Opposite-Spin Scale   =       1.2000000000000000 [-]
	 SCS Same-Spin Energy      =      -0.1055769503078186 [Eh]
	 SCS Opposite-Spin Energy  =      -1.3229580518673327 [Eh]
	 SCS Correlation Energy    =      -1.4285350021751513 [Eh]
	 SCS Total Energy          =    -310.5802163953958370 [Eh]
	-----------------------------------------------------------

  Dipole Moment: [D]
     X:     1.9196      Y:     0.0360      Z:    -0.5482     Total:     1.9966

*** Psi4 exiting successfully. Buy a developer a beer!
