                               Psi4 1.3.2 release

  ==> Input File <==

--------------------------------------------------------------------------
#psi4
#
memory 32 gb

molecule  {
0 1
  O       -2.3916800    -1.0522970    -0.0243250
  C       -1.5013820     0.0265210    -0.3499700
  C       -0.1728060    -0.1763470     0.3083280
  C        2.3285040    -0.4694590     0.2834420
  C        0.9860590    -0.2881690    -0.3549330
  C       -2.1959480     1.2879740     0.1259890
  C        3.2526380     0.7192940     0.0124360
  H       -1.3570540     0.0791090    -1.4412390
  H       -0.1967556    -0.2983455     1.3941535
  H        2.7976780    -1.3847260    -0.0993500
  H        2.2027970    -0.6058810     1.3632980
  H        0.9746330    -0.2154440    -1.4448770
  H       -2.3344480     1.2448060     1.2091660
  H       -1.6005480     2.1700530    -0.1223020
  H       -3.1779120     1.3727550    -0.3453210
  H        2.8243150     1.6377400     0.4218030
  H        3.3966440     0.8648080    -1.0620310
  H        4.2355510     0.5661250     0.4665360
  H       -1.9269720    -1.8751040    -0.2580250
units angstrom
no_reorient  #important for SAPT in psi4, default
symmetry c1  #important for SAPT in psi4, default
}

set PROPERTIES_ORIGIN ["COM"]
properties('MP2/aug-cc-pvtz', properties = ['dipole'])
--------------------------------------------------------------------------

    Molecular point group: c1
  Charge       = 0
  Multiplicity = 1
  Basis Set: AUG-CC-PVTZ
    Blend: AUG-CC-PVTZ
  Basis Set: (AUG-CC-PVTZ AUX)
    Blend: AUG-CC-PVTZ-JKFIT

    Orbital Energies [Eh]
    ---------------------

    Doubly Occupied:

       1A    -20.553858     2A    -11.281196     3A    -11.236128
       4A    -11.230602     5A    -11.226402     6A    -11.219597
       7A    -11.210618     8A     -1.353056     9A     -1.094554
      10A     -1.034924    11A     -0.974696    12A     -0.873286
      13A     -0.807424    14A     -0.760545    15A     -0.693008
      16A     -0.654211    17A     -0.610581    18A     -0.594656
      19A     -0.578367    20A     -0.538827    21A     -0.536068
      22A     -0.527802    23A     -0.521170    24A     -0.510403
      25A     -0.487314    26A     -0.471286    27A     -0.441271
      28A     -0.356452

  @DF-RHF Final Energy:  -309.15168395387838

   => Energetics <=

    Nuclear Repulsion Energy =            299.1371833817308925
    One-Electron Energy =               -1011.8211344049274203
    Two-Electron Energy =                 403.5322670693181522
    Total Energy =                       -309.1516839538783756
  Basis Set: (AUG-CC-PVTZ AUX)
    Blend: AUG-CC-PVTZ-RI
    Molecular point group: c1

    Geometry (in Angstrom), charge = 0, multiplicity = 1:

       Center              X                  Y                   Z               Mass
    ------------   -----------------  -----------------  -----------------  -----------------
         O           -2.391616785949    -1.051798321176    -0.024293821486    15.994914619570
         C           -1.501318785949     0.027019678824    -0.349938821486    12.000000000000
         C           -0.172742785949    -0.175848321176     0.308359178514    12.000000000000
         C            2.328567214051    -0.468960321176     0.283473178514    12.000000000000
         C            0.986122214051    -0.287670321176    -0.354901821486    12.000000000000
         C           -2.195884785949     1.288472678824     0.126020178514    12.000000000000
         C            3.252701214051     0.719792678824     0.012467178514    12.000000000000
         H           -1.356990785949     0.079607678824    -1.441207821486     1.007825032230
         H           -0.196692385949    -0.297846821176     1.394184678514     1.007825032230
         H            2.797741214051    -1.384227321176    -0.099318821486     1.007825032230
         H            2.202860214051    -0.605382321176     1.363329178514     1.007825032230
         H            0.974696214051    -0.214945321176    -1.444845821486     1.007825032230
         H           -2.334384785949     1.245304678824     1.209197178514     1.007825032230
         H           -1.600484785949     2.170551678824    -0.122270821486     1.007825032230
         H           -3.177848785949     1.373253678824    -0.345289821486     1.007825032230
         H            2.824378214051     1.638238678824     0.421834178514     1.007825032230
         H            3.396707214051     0.865306678824    -1.061999821486     1.007825032230
         H            4.235614214051     0.566623678824     0.466567178514     1.007825032230
         H           -1.926908785949    -1.874605321176    -0.257993821486     1.007825032230

  Basis Set: AUG-CC-PVTZ
    Blend: AUG-CC-PVTZ
  Basis Set: (AUG-CC-PVTZ AUX)
    Blend: AUG-CC-PVTZ-JKFIT
	 Reference Energy          =    -309.1516839538783756 [Eh]
	 Singles Energy            =      -0.0000000000000000 [Eh]
	 Same-Spin Energy          =      -0.3167255792297749 [Eh]
	 Opposite-Spin Energy      =      -1.1024645859226434 [Eh]
	 Correlation Energy        =      -1.4191901651524184 [Eh]
	 Total Energy              =    -310.5708741190308046 [Eh]

	 ================> DF-SCS-MP2 Energies <==================
	-----------------------------------------------------------
	 SCS Same-Spin Scale       =       0.3333333333333333 [-]
	 SCS Opposite-Spin Scale   =       1.2000000000000000 [-]
	 SCS Same-Spin Energy      =      -0.1055751930765916 [Eh]
	 SCS Opposite-Spin Energy  =      -1.3229575031071721 [Eh]
	 SCS Correlation Energy    =      -1.4285326961837637 [Eh]
	 SCS Total Energy          =    -310.5802166500621411 [Eh]
	-----------------------------------------------------------

  Dipole Moment: [D]
     X:     1.9068      Y:    -0.0236      Z:    -0.5563     Total:     1.9864

*** Psi4 exiting successfully. Buy a developer a beer!
