                               Psi4 1.3.2 release

  ==> Input File <==

--------------------------------------------------------------------------
#psi4
#
memory 32 gb

molecule  {
0 1
  O       -2.3916800    -1.0522970    -0.0243250
  C       -1.5013820     0.0265210    -0.3499700
  C       -0.1728060    -0.1763470     0.3083280
  C        2.3285040    -0.4694590     0.2834420
  C        0.9860590    -0.2881690    -0.3549330
  C       -2.1959480     1.2879740     0.1259890
  C        3.2526380     0.7192940     0.0124360
  H       -1.3570540     0.0791090    -1.4412390
  H       -0.2030252    -0.3478540     1.3910550
  H        2.7976780    -1.3847260    -0.0993500
  H        2.2027970    -0.6058810     1.3632980
  H        0.9746330    -0.2154440    -1.4448770
  H       -2.3344480     1.2448060     1.2091660
  H       -1.6005480     2.1700530    -0.1223020
  H       -3.1779120     1.3727550    -0.3453210
  H        2.8243150     1.6377400     0.4218030
  H        3.3966440     0.8648080    -1.0620310
  H        4.2355510     0.5661250     0.4665360
  H       -1.9269720    -1.8751040    -0.2580250
units angstrom
no_reorient  #important for SAPT in psi4, default
symmetry c1  #important for SAPT in psi4, default
}

set PROPERTIES_ORIGIN ["COM"]
properties('MP2/aug-cc-pvtz', properties = ['dipole'])
--------------------------------------------------------------------------

    Molecular point group: c1
  Charge       = 0
  Multiplicity = 1
  Basis Set: AUG-CC-PVTZ
    Blend: AUG-CC-PVTZ
  Basis Set: (AUG-CC-PVTZ AUX)
    Blend: AUG-CC-PVTZ-JKFIT

    Orbital Energies [Eh]
    ---------------------

    Doubly Occupied:

       1A    -20.554055     2A    -11.281253     3A    -11.236194
       4A    -11.230611     5A    -11.226772     6A    -11.219602
       7A    -11.210507     8A     -1.353230     9A     -1.094496
      10A     -1.034850    11A     -0.974712    12A     -0.873265
      13A     -0.807398    14A     -0.760059    15A     -0.693058
      16A     -0.654229    17A     -0.610426    18A     -0.594601
      19A     -0.578370    20A     -0.538733    21A     -0.535983
      22A     -0.527753    23A     -0.520572    24A     -0.510441
      25A     -0.487285    26A     -0.471242    27A     -0.441767
      28A     -0.356153

  @DF-RHF Final Energy:  -309.15119905200095

   => Energetics <=

    Nuclear Repulsion Energy =            299.1197082690656543
    One-Electron Energy =               -1011.7865778443303952
    Two-Electron Energy =                 403.5156705232637933
    Total Energy =                       -309.1511990520009476
  Basis Set: (AUG-CC-PVTZ AUX)
    Blend: AUG-CC-PVTZ-RI
    Molecular point group: c1

    Geometry (in Angstrom), charge = 0, multiplicity = 1:

       Center              X                  Y                   Z               Mass
    ------------   -----------------  -----------------  -----------------  -----------------
         O           -2.391553655420    -1.051299804877    -0.024262621738    15.994914619570
         C           -1.501255655420     0.027518195123    -0.349907621738    12.000000000000
         C           -0.172679655420    -0.175349804877     0.308390378262    12.000000000000
         C            2.328630344580    -0.468461804877     0.283504378262    12.000000000000
         C            0.986185344580    -0.287171804877    -0.354870621738    12.000000000000
         C           -2.195821655420     1.288971195123     0.126051378262    12.000000000000
         C            3.252764344580     0.720291195123     0.012498378262    12.000000000000
         H           -1.356927655420     0.080106195123    -1.441176621738     1.007825032230
         H           -0.202898855420    -0.346856804877     1.391117378262     1.007825032230
         H            2.797804344580    -1.383728804877    -0.099287621738     1.007825032230
         H            2.202923344580    -0.604883804877     1.363360378262     1.007825032230
         H            0.974759344580    -0.214446804877    -1.444814621738     1.007825032230
         H           -2.334321655420     1.245803195123     1.209228378262     1.007825032230
         H           -1.600421655420     2.171050195123    -0.122239621738     1.007825032230
         H           -3.177785655420     1.373752195123    -0.345258621738     1.007825032230
         H            2.824441344580     1.638737195123     0.421865378262     1.007825032230
         H            3.396770344580     0.865805195123    -1.061968621738     1.007825032230
         H            4.235677344580     0.567122195123     0.466598378262     1.007825032230
         H           -1.926845655420    -1.874106804877    -0.257962621738     1.007825032230

  Basis Set: AUG-CC-PVTZ
    Blend: AUG-CC-PVTZ
  Basis Set: (AUG-CC-PVTZ AUX)
    Blend: AUG-CC-PVTZ-JKFIT
	 Reference Energy          =    -309.1511990520009476 [Eh]
	 Singles Energy            =      -0.0000000000000000 [Eh]
	 Same-Spin Energy          =      -0.3167562215810334 [Eh]
	 Opposite-Spin Energy      =      -1.1025430883288052 [Eh]
	 Correlation Energy        =      -1.4192993099098388 [Eh]
	 Total Energy              =    -310.5704983619107793 [Eh]

	 ================> DF-SCS-MP2 Energies <==================
	-----------------------------------------------------------
	 SCS Same-Spin Scale       =       0.3333333333333333 [-]
	 SCS Opposite-Spin Scale   =       1.2000000000000000 [-]
	 SCS Same-Spin Energy      =      -0.1055854071936778 [Eh]
	 SCS Opposite-Spin Energy  =      -1.3230517059945661 [Eh]
	 SCS Correlation Energy    =      -1.4286371131882438 [Eh]
	 SCS Total Energy          =    -310.5798361651891923 [Eh]
	-----------------------------------------------------------

  Dipole Moment: [D]
     X:     1.9009      Y:    -0.0541      Z:    -0.5618     Total:     1.9830

*** Psi4 exiting successfully. Buy a developer a beer!
