                               Psi4 1.3.2 release

  ==> Input File <==

--------------------------------------------------------------------------
#psi4
#
memory 32 gb

molecule  {
-1 1
  O        1.0692921    -0.9883555     0.8540703
  O        1.7774660     0.6142500    -0.6014300
  C       -0.5796859     0.1881930    -0.4054839
  C       -1.1221580     1.2656510     0.5365530
  C       -1.4484110    -1.0520220    -0.3893470
  C        0.8937330    -0.0971070    -0.0318180
  H       -0.5710850     0.6138500    -1.4298350
  H       -0.5071020     2.1704490     0.4966500
  H       -2.1534840     1.5416890     0.2872720
  H       -1.1096840     0.8890950     1.5649870
  H       -1.0556840    -1.8232910    -1.0601830
  H       -2.4751420    -0.8237670    -0.6995200
  H       -1.4750130    -1.4711080     0.6193320
units angstrom
no_reorient  #important for SAPT in psi4, default
symmetry c1  #important for SAPT in psi4, default
}

set PROPERTIES_ORIGIN ["COM"]
properties('MP2/aug-cc-pvtz', properties = ['dipole'])
--------------------------------------------------------------------------

    Molecular point group: c1
  Charge       = -1
  Multiplicity = 1
  Basis Set: AUG-CC-PVTZ
    Blend: AUG-CC-PVTZ
  Basis Set: (AUG-CC-PVTZ AUX)
    Blend: AUG-CC-PVTZ-JKFIT

    Orbital Energies [Eh]
    ---------------------

    Doubly Occupied:

       1A    -20.291627     2A    -20.291352     3A    -11.134698
       4A    -11.073765     5A    -11.067298     6A    -11.064910
       7A     -1.159333     8A     -1.058850     9A     -0.910572
      10A     -0.784882    11A     -0.672622    12A     -0.521376
      13A     -0.467696    14A     -0.449332    15A     -0.422568
      16A     -0.393764    17A     -0.389514    18A     -0.370081
      19A     -0.348801    20A     -0.321248    21A     -0.306256
      22A     -0.206321    23A     -0.195110    24A     -0.190610

  @DF-RHF Final Energy:  -305.42265724239087

   => Energetics <=

    Nuclear Repulsion Energy =            236.3930598665771470
    One-Electron Energy =                -895.4462655023413618
    Two-Electron Energy =                 353.6305483933733740
    Total Energy =                       -305.4226572423908692
  Basis Set: (AUG-CC-PVTZ AUX)
    Blend: AUG-CC-PVTZ-RI
    Molecular point group: c1

    Geometry (in Angstrom), charge = -1, multiplicity = 1:

       Center              X                  Y                   Z               Mass
    ------------   -----------------  -----------------  -----------------  -----------------
         O            0.965494122936    -0.974320108285     0.850201242591    15.994914619570
         O            1.673668022936     0.628285391715    -0.605299057409    15.994914619570
         C           -0.683483877064     0.202228391715    -0.409352957409    12.000000000000
         C           -1.225955977064     1.279686391715     0.532683942591    12.000000000000
         C           -1.552208977064    -1.037986608285    -0.393216057409    12.000000000000
         C            0.789935022936    -0.083071608285    -0.035687057409    12.000000000000
         H           -0.674882977064     0.627885391715    -1.433704057409     1.007825032230
         H           -0.610899977064     2.184484391715     0.492780942591     1.007825032230
         H           -2.257281977064     1.555724391715     0.283402942591     1.007825032230
         H           -1.213481977064     0.903130391715     1.561117942591     1.007825032230
         H           -1.159481977064    -1.809255608285    -1.064052057409     1.007825032230
         H           -2.578939977064    -0.809731608285    -0.703389057409     1.007825032230
         H           -1.578810977064    -1.457072608285     0.615462942591     1.007825032230

  Basis Set: AUG-CC-PVTZ
    Blend: AUG-CC-PVTZ
  Basis Set: (AUG-CC-PVTZ AUX)
    Blend: AUG-CC-PVTZ-JKFIT
	 Reference Energy          =    -305.4226572423908692 [Eh]
	 Singles Energy            =      -0.0000000000000000 [Eh]
	 Same-Spin Energy          =      -0.3099940775704221 [Eh]
	 Opposite-Spin Energy      =      -0.9867135491558474 [Eh]
	 Correlation Energy        =      -1.2967076267262696 [Eh]
	 Total Energy              =    -306.7193648691171575 [Eh]

	 ================> DF-SCS-MP2 Energies <==================
	-----------------------------------------------------------
	 SCS Same-Spin Scale       =       0.3333333333333333 [-]
	 SCS Opposite-Spin Scale   =       1.2000000000000000 [-]
	 SCS Same-Spin Energy      =      -0.1033313591901407 [Eh]
	 SCS Opposite-Spin Energy  =      -1.1840562589870169 [Eh]
	 SCS Correlation Energy    =      -1.2873876181771577 [Eh]
	 SCS Total Energy          =    -306.7100448605680185 [Eh]
	-----------------------------------------------------------

  Dipole Moment: [D]
     X:    -5.6922      Y:     0.7733      Z:    -0.6803     Total:     5.7846

*** Psi4 exiting successfully. Buy a developer a beer!
