                               Psi4 1.3.2 release

  ==> Input File <==

--------------------------------------------------------------------------
#psi4
#
memory 32 gb

molecule  {
-1 1
  O        1.1237219    -0.9787242     0.8512444
  O        1.8084484     0.5936460    -0.5773698
  C       -0.5755730     0.1974970    -0.4143540
  C       -1.1221580     1.2656510     0.5365530
  C       -1.4484110    -1.0520220    -0.3893470
  C        0.8937330    -0.0971070    -0.0318180
  H       -0.5710850     0.6138500    -1.4298350
  H       -0.5071020     2.1704490     0.4966500
  H       -2.1534840     1.5416890     0.2872720
  H       -1.1096840     0.8890950     1.5649870
  H       -1.0556840    -1.8232910    -1.0601830
  H       -2.4751420    -0.8237670    -0.6995200
  H       -1.4750130    -1.4711080     0.6193320
units angstrom
no_reorient  #important for SAPT in psi4, default
symmetry c1  #important for SAPT in psi4, default
}

set PROPERTIES_ORIGIN ["COM"]
properties('MP2/aug-cc-pvtz', properties = ['dipole'])
--------------------------------------------------------------------------

    Molecular point group: c1
  Charge       = -1
  Multiplicity = 1
  Basis Set: AUG-CC-PVTZ
    Blend: AUG-CC-PVTZ
  Basis Set: (AUG-CC-PVTZ AUX)
    Blend: AUG-CC-PVTZ-JKFIT

    Orbital Energies [Eh]
    ---------------------

    Doubly Occupied:

       1A    -20.287160     2A    -20.286529     3A    -11.132369
       4A    -11.076297     5A    -11.070681     6A    -11.069794
       7A     -1.158580     8A     -1.049896     9A     -0.913352
      10A     -0.786682    11A     -0.676773    12A     -0.524101
      13A     -0.468404    14A     -0.448598    15A     -0.423619
      16A     -0.395614    17A     -0.386498    18A     -0.370764
      19A     -0.349238    20A     -0.322814    21A     -0.309254
      22A     -0.199891    23A     -0.197288    24A     -0.184744

  @DF-RHF Final Energy:  -305.42136070217151

   => Energetics <=

    Nuclear Repulsion Energy =            235.8869045753257012
    One-Electron Energy =                -894.4386494950923634
    Two-Electron Energy =                 353.1303842175951218
    Total Energy =                       -305.4213607021715120
  Basis Set: (AUG-CC-PVTZ AUX)
    Blend: AUG-CC-PVTZ-RI
    Molecular point group: c1

    Geometry (in Angstrom), charge = -1, multiplicity = 1:

       Center              X                  Y                   Z               Mass
    ------------   -----------------  -----------------  -----------------  -----------------
         O            1.003661965573    -0.963955168331     0.844696260792    15.994914619570
         O            1.688388465573     0.608415031669    -0.583917939208    15.994914619570
         C           -0.695632934427     0.212266031669    -0.420902139208    12.000000000000
         C           -1.242217934427     1.280420031669     0.530004860792    12.000000000000
         C           -1.568470934427    -1.037252968331    -0.395895139208    12.000000000000
         C            0.773673065573    -0.082337968331    -0.038366139208    12.000000000000
         H           -0.691144934427     0.628619031669    -1.436383139208     1.007825032230
         H           -0.627161934427     2.185218031669     0.490101860792     1.007825032230
         H           -2.273543934427     1.556458031669     0.280723860792     1.007825032230
         H           -1.229743934427     0.903864031669     1.558438860792     1.007825032230
         H           -1.175743934427    -1.808521968331    -1.066731139208     1.007825032230
         H           -2.595201934427    -0.808997968331    -0.706068139208     1.007825032230
         H           -1.595072934427    -1.456338968331     0.612783860792     1.007825032230

  Basis Set: AUG-CC-PVTZ
    Blend: AUG-CC-PVTZ
  Basis Set: (AUG-CC-PVTZ AUX)
    Blend: AUG-CC-PVTZ-JKFIT
	 Reference Energy          =    -305.4213607021715120 [Eh]
	 Singles Energy            =      -0.0000000000000000 [Eh]
	 Same-Spin Energy          =      -0.3097631277206621 [Eh]
	 Opposite-Spin Energy      =      -0.9864399278531180 [Eh]
	 Correlation Energy        =      -1.2962030555737800 [Eh]
	 Total Energy              =    -306.7175637577452676 [Eh]

	 ================> DF-SCS-MP2 Energies <==================
	-----------------------------------------------------------
	 SCS Same-Spin Scale       =       0.3333333333333333 [-]
	 SCS Opposite-Spin Scale   =       1.2000000000000000 [-]
	 SCS Same-Spin Energy      =      -0.1032543759068874 [Eh]
	 SCS Opposite-Spin Energy  =      -1.1837279134237415 [Eh]
	 SCS Correlation Energy    =      -1.2869822893306289 [Eh]
	 SCS Total Energy          =    -306.7083429915021497 [Eh]
	-----------------------------------------------------------

  Dipole Moment: [D]
     X:    -5.9443      Y:     0.8228      Z:    -0.7428     Total:     6.0467

*** Psi4 exiting successfully. Buy a developer a beer!
