                               Psi4 1.4a3.dev225

  ==> Input File <==

--------------------------------------------------------------------------
#psi4
#
memory 32 gb

molecule  {
-1 1
  O       -1.0485690    -0.0000230     1.2804550
  O       -1.8085780     0.0000120    -0.8608380
  C        0.5680610     0.0000050    -0.4771230
  C        1.2889140    -1.2559050     0.0104430
  C        1.2889010     1.2559130     0.0104710
  C       -0.9427199    -0.0000043     0.0355688
  H        0.5489340     0.0000180    -1.5740110
  H        0.7977980    -2.1625660    -0.3602090
  H        2.3325250    -1.2756680    -0.3244140
  H        1.2723070    -1.2837030     1.1032290
  H        0.7977740     2.1625770    -0.3601580
  H        2.3325120     1.2756960    -0.3243870
  H        1.2722960     1.2836850     1.1032580
units angstrom
no_reorient  #important for SAPT in psi4, default
symmetry c1  #important for SAPT in psi4, default
}

set PROPERTIES_ORIGIN ["COM"]
properties('MP2/aug-cc-pvtz', properties = ['dipole'])
--------------------------------------------------------------------------

    Molecular point group: c1
  Charge       = -1
  Multiplicity = 1
  Basis Set: AUG-CC-PVTZ
    Blend: AUG-CC-PVTZ
  Basis Set: (AUG-CC-PVTZ AUX)
    Blend: AUG-CC-PVTZ-JKFIT

    Orbital Energies [Eh]
    ---------------------

    Doubly Occupied:

       1A    -20.294558     2A    -20.292649     3A    -11.133697
       4A    -11.067801     5A    -11.067788     6A    -11.059481
       7A     -1.172129     8A     -1.074966     9A     -0.902891
      10A     -0.780929    11A     -0.661346    12A     -0.517566
      13A     -0.466396    14A     -0.449036    15A     -0.417675
      16A     -0.399705    17A     -0.390384    18A     -0.373508
      19A     -0.352218    20A     -0.315464    21A     -0.313986
      22A     -0.213815    23A     -0.197466    24A     -0.184490

  @DF-RHF Final Energy:  -305.42491184680944

   => Energetics <=

    Nuclear Repulsion Energy =            236.2910212956515181
    One-Electron Energy =                -895.2319719982111792
    Two-Electron Energy =                 353.5160388557502529
    Total Energy =                       -305.4249118468094366
  Basis Set: (AUG-CC-PVTZ AUX)
    Blend: AUG-CC-PVTZ-RI
    Molecular point group: c1

    Geometry (in Angstrom), charge = -1, multiplicity = 1:

       Center              X                  Y                   Z               Mass
    ------------   -----------------  -----------------  -----------------  -----------------
         O           -0.935585470612    -0.000022629628     1.269867335722    15.994914619570
         O           -1.695594470612     0.000012370372    -0.871425664278    15.994914619570
         C            0.681044529388     0.000005370372    -0.487710664278    12.000000000000
         C            1.401897529388    -1.255904629628    -0.000144664278    12.000000000000
         C            1.401884529388     1.255913370372    -0.000116664278    12.000000000000
         C           -0.829736370612    -0.000003929628     0.024981135722    12.000000000000
         H            0.661917529388     0.000018370372    -1.584598664278     1.007825032230
         H            0.910781529388    -2.162565629628    -0.370796664278     1.007825032230
         H            2.445508529388    -1.275667629628    -0.335001664278     1.007825032230
         H            1.385290529388    -1.283702629628     1.092641335722     1.007825032230
         H            0.910757529388     2.162577370372    -0.370745664278     1.007825032230
         H            2.445495529388     1.275696370372    -0.334974664278     1.007825032230
         H            1.385279529388     1.283685370372     1.092670335722     1.007825032230

  Basis Set: AUG-CC-PVTZ
    Blend: AUG-CC-PVTZ
  Basis Set: (AUG-CC-PVTZ AUX)
    Blend: AUG-CC-PVTZ-JKFIT
	 Reference Energy          =    -305.4249118468094366 [Eh]
	 Singles Energy            =      -0.0000000000000000 [Eh]
	 Same-Spin Energy          =      -0.3092408277072159 [Eh]
	 Opposite-Spin Energy      =      -0.9848822742874861 [Eh]
	 Correlation Energy        =      -1.2941231019947019 [Eh]
	 Total Energy              =    -306.7190349488041647 [Eh]

	 ================> DF-SCS-MP2 Energies <==================
	-----------------------------------------------------------
	 SCS Same-Spin Scale       =       0.3333333333333333 [-]
	 SCS Opposite-Spin Scale   =       1.2000000000000000 [-]
	 SCS Same-Spin Energy      =      -0.1030802759024053 [Eh]
	 SCS Opposite-Spin Energy  =      -1.1818587291449834 [Eh]
	 SCS Correlation Energy    =      -1.2849390050473886 [Eh]
	 SCS Total Energy          =    -306.7098508518567996 [Eh]
	-----------------------------------------------------------

  Dipole Moment: [D]
     X:     5.3642      Y:     0.0000      Z:    -0.9375     Total:     5.4455

*** Psi4 exiting successfully. Buy a developer a beer!
