                               Psi4 1.3.2 release

  ==> Input File <==

--------------------------------------------------------------------------
#psi4
#
memory 32 gb

molecule  {
-1 1
  O        1.0802400    -0.9868790     0.8533170
  O        1.7774660     0.6142500    -0.6014300
  C       -0.5755730     0.1974970    -0.4143540
  C       -1.1190631     1.2487114     0.5569848
  C       -1.4484110    -1.0520220    -0.3893470
  C        0.8937330    -0.0971070    -0.0318180
  H       -0.5639150     0.5973415    -1.4363912
  H       -0.5071020     2.1704490     0.4966500
  H       -2.1534840     1.5416890     0.2872720
  H       -1.1096840     0.8890950     1.5649870
  H       -1.0556840    -1.8232910    -1.0601830
  H       -2.4751420    -0.8237670    -0.6995200
  H       -1.4750130    -1.4711080     0.6193320
units angstrom
no_reorient  #important for SAPT in psi4, default
symmetry c1  #important for SAPT in psi4, default
}

set PROPERTIES_ORIGIN ["COM"]
properties('MP2/aug-cc-pvtz', properties = ['dipole'])
--------------------------------------------------------------------------

    Molecular point group: c1
  Charge       = -1
  Multiplicity = 1
  Basis Set: AUG-CC-PVTZ
    Blend: AUG-CC-PVTZ
  Basis Set: (AUG-CC-PVTZ AUX)
    Blend: AUG-CC-PVTZ-JKFIT

    Orbital Energies [Eh]
    ---------------------

    Doubly Occupied:

       1A    -20.291074     2A    -20.290617     3A    -11.134096
       4A    -11.074414     5A    -11.067418     6A    -11.065108
       7A     -1.159114     8A     -1.057755     9A     -0.910050
      10A     -0.783964    11A     -0.674287    12A     -0.522838
      13A     -0.467096    14A     -0.447470    15A     -0.421106
      16A     -0.397466    17A     -0.389701    18A     -0.368776
      19A     -0.347219    20A     -0.320452    21A     -0.309621
      22A     -0.205386    23A     -0.194998    24A     -0.189941

  @DF-RHF Final Energy:  -305.42222572428363

   => Energetics <=

    Nuclear Repulsion Energy =            236.3412768011940273
    One-Electron Energy =                -895.3470693517419932
    Two-Electron Energy =                 353.5835668262643594
    Total Energy =                       -305.4222257242836349
  Basis Set: (AUG-CC-PVTZ AUX)
    Blend: AUG-CC-PVTZ-RI
    Molecular point group: c1

    Geometry (in Angstrom), charge = -1, multiplicity = 1:

       Center              X                  Y                   Z               Mass
    ------------   -----------------  -----------------  -----------------  -----------------
         O            0.973353601398    -0.971871136888     0.848068374850    15.994914619570
         O            1.670579601398     0.629257863112    -0.606678625150    15.994914619570
         C           -0.682459398602     0.212504863112    -0.419602625150    12.000000000000
         C           -1.225949498602     1.263719263112     0.551736174850    12.000000000000
         C           -1.555297398602    -1.037014136888    -0.394595625150    12.000000000000
         C            0.786846601398    -0.082099136888    -0.037066625150    12.000000000000
         H           -0.670801398602     0.612349363112    -1.441639825150     1.007825032230
         H           -0.613988398602     2.185456863112     0.491401374850     1.007825032230
         H           -2.260370398602     1.556696863112     0.282023374850     1.007825032230
         H           -1.216570398602     0.904102863112     1.559738374850     1.007825032230
         H           -1.162570398602    -1.808283136888    -1.065431625150     1.007825032230
         H           -2.582028398602    -0.808759136888    -0.704768625150     1.007825032230
         H           -1.581899398602    -1.456100136888     0.614083374850     1.007825032230

  Basis Set: AUG-CC-PVTZ
    Blend: AUG-CC-PVTZ
  Basis Set: (AUG-CC-PVTZ AUX)
    Blend: AUG-CC-PVTZ-JKFIT
	 Reference Energy          =    -305.4222257242836349 [Eh]
	 Singles Energy            =      -0.0000000000000000 [Eh]
	 Same-Spin Energy          =      -0.3098987820966141 [Eh]
	 Opposite-Spin Energy      =      -0.9866139654089947 [Eh]
	 Correlation Energy        =      -1.2965127475056089 [Eh]
	 Total Energy              =    -306.7187384717892655 [Eh]

	 ================> DF-SCS-MP2 Energies <==================
	-----------------------------------------------------------
	 SCS Same-Spin Scale       =       0.3333333333333333 [-]
	 SCS Opposite-Spin Scale   =       1.2000000000000000 [-]
	 SCS Same-Spin Energy      =      -0.1032995940322047 [Eh]
	 SCS Opposite-Spin Energy  =      -1.1839367584907936 [Eh]
	 SCS Correlation Energy    =      -1.2872363525229984 [Eh]
	 SCS Total Energy          =    -306.7094620768066306 [Eh]
	-----------------------------------------------------------

  Dipole Moment: [D]
     X:    -5.7090      Y:     0.7706      Z:    -0.6686     Total:     5.7995

*** Psi4 exiting successfully. Buy a developer a beer!
