                               Psi4 1.3.2 release

  ==> Input File <==

--------------------------------------------------------------------------
#psi4
#
memory 32 gb

molecule  {
-1 1
  O        1.0802400    -0.9868790     0.8533170
  O        1.7774660     0.6142500    -0.6014300
  C       -0.5755730     0.1974970    -0.4143540
  C       -1.1206313     1.2572216     0.5468055
  C       -1.4484110    -1.0520220    -0.3893470
  C        0.8937330    -0.0971070    -0.0318180
  H       -0.5674997     0.6056113    -1.4331519
  H       -0.5071020     2.1704490     0.4966500
  H       -2.1534840     1.5416890     0.2872720
  H       -1.1096840     0.8890950     1.5649870
  H       -1.0556840    -1.8232910    -1.0601830
  H       -2.4751420    -0.8237670    -0.6995200
  H       -1.4750130    -1.4711080     0.6193320
units angstrom
no_reorient  #important for SAPT in psi4, default
symmetry c1  #important for SAPT in psi4, default
}

set PROPERTIES_ORIGIN ["COM"]
properties('MP2/aug-cc-pvtz', properties = ['dipole'])
--------------------------------------------------------------------------

    Molecular point group: c1
  Charge       = -1
  Multiplicity = 1
  Basis Set: AUG-CC-PVTZ
    Blend: AUG-CC-PVTZ
  Basis Set: (AUG-CC-PVTZ AUX)
    Blend: AUG-CC-PVTZ-JKFIT

    Orbital Energies [Eh]
    ---------------------

    Doubly Occupied:

       1A    -20.291145     2A    -20.290621     3A    -11.134218
       4A    -11.074176     5A    -11.067597     6A    -11.065075
       7A     -1.159126     8A     -1.057778     9A     -0.909943
      10A     -0.784066    11A     -0.674029    12A     -0.522740
      13A     -0.466980    14A     -0.448142    15A     -0.421474
      16A     -0.395379    17A     -0.389871    18A     -0.369279
      19A     -0.347885    20A     -0.320735    21A     -0.309078
      22A     -0.205439    23A     -0.195234    24A     -0.189927

  @DF-RHF Final Energy:  -305.42286551095566

   => Energetics <=

    Nuclear Repulsion Energy =            236.2963171731710759
    One-Electron Energy =                -895.2584947903313832
    Two-Electron Energy =                 353.5393121062045907
    Total Energy =                       -305.4228655109556598
  Basis Set: (AUG-CC-PVTZ AUX)
    Blend: AUG-CC-PVTZ-RI
    Molecular point group: c1

    Geometry (in Angstrom), charge = -1, multiplicity = 1:

       Center              X                  Y                   Z               Mass
    ------------   -----------------  -----------------  -----------------  -----------------
         O            0.973611298592    -0.973140105966     0.849434191297    15.994914619570
         O            1.670837298592     0.627988894034    -0.605312808703    15.994914619570
         C           -0.682201701408     0.211235894034    -0.418236808703    12.000000000000
         C           -1.227260001408     1.270960494034     0.542922691297    12.000000000000
         C           -1.555039701408    -1.038283105966    -0.393229808703    12.000000000000
         C            0.787104298592    -0.083368105966    -0.035700808703    12.000000000000
         H           -0.674128401408     0.619350194034    -1.437034708703     1.007825032230
         H           -0.613730701408     2.184187894034     0.492767191297     1.007825032230
         H           -2.260112701408     1.555427894034     0.283389191297     1.007825032230
         H           -1.216312701408     0.902833894034     1.561104191297     1.007825032230
         H           -1.162312701408    -1.809552105966    -1.064065808703     1.007825032230
         H           -2.581770701408    -0.810028105966    -0.703402808703     1.007825032230
         H           -1.581641701408    -1.457369105966     0.615449191297     1.007825032230

  Basis Set: AUG-CC-PVTZ
    Blend: AUG-CC-PVTZ
  Basis Set: (AUG-CC-PVTZ AUX)
    Blend: AUG-CC-PVTZ-JKFIT
	 Reference Energy          =    -305.4228655109556598 [Eh]
	 Singles Energy            =      -0.0000000000000000 [Eh]
	 Same-Spin Energy          =      -0.3098875943142693 [Eh]
	 Opposite-Spin Energy      =      -0.9865821015069018 [Eh]
	 Correlation Energy        =      -1.2964696958211710 [Eh]
	 Total Energy              =    -306.7193352067768046 [Eh]

	 ================> DF-SCS-MP2 Energies <==================
	-----------------------------------------------------------
	 SCS Same-Spin Scale       =       0.3333333333333333 [-]
	 SCS Opposite-Spin Scale   =       1.2000000000000000 [-]
	 SCS Same-Spin Energy      =      -0.1032958647714231 [Eh]
	 SCS Opposite-Spin Energy  =      -1.1838985218082823 [Eh]
	 SCS Correlation Energy    =      -1.2871943865797053 [Eh]
	 SCS Total Energy          =    -306.7100598975353591 [Eh]
	-----------------------------------------------------------

  Dipole Moment: [D]
     X:    -5.7145      Y:     0.7794      Z:    -0.6802     Total:     5.8074

*** Psi4 exiting successfully. Buy a developer a beer!
