                               Psi4 1.3.2 release

  ==> Input File <==

--------------------------------------------------------------------------
#psi4
#
memory 32 gb

molecule  {
-1 1
  O        1.0583309    -0.9897642     0.8547561
  O        1.7774660     0.6142500    -0.6014300
  C       -0.5836865     0.1788673    -0.3965853
  C       -1.1221580     1.2656510     0.5365530
  C       -1.4484110    -1.0520220    -0.3893470
  C        0.8937330    -0.0971070    -0.0318180
  H       -0.5710850     0.6138500    -1.4298350
  H       -0.5071020     2.1704490     0.4966500
  H       -2.1534840     1.5416890     0.2872720
  H       -1.1096840     0.8890950     1.5649870
  H       -1.0556840    -1.8232910    -1.0601830
  H       -2.4751420    -0.8237670    -0.6995200
  H       -1.4750130    -1.4711080     0.6193320
units angstrom
no_reorient  #important for SAPT in psi4, default
symmetry c1  #important for SAPT in psi4, default
}

set PROPERTIES_ORIGIN ["COM"]
properties('MP2/aug-cc-pvtz', properties = ['dipole'])
--------------------------------------------------------------------------

    Molecular point group: c1
  Charge       = -1
  Multiplicity = 1
  Basis Set: AUG-CC-PVTZ
    Blend: AUG-CC-PVTZ
  Basis Set: (AUG-CC-PVTZ AUX)
    Blend: AUG-CC-PVTZ-JKFIT

    Orbital Energies [Eh]
    ---------------------

    Doubly Occupied:

       1A    -20.292628     2A    -20.291499     3A    -11.135078
       4A    -11.073549     5A    -11.066810     6A    -11.064801
       7A     -1.159551     8A     -1.059914     9A     -0.911304
      10A     -0.785551    11A     -0.671459    12A     -0.520149
      13A     -0.468532    14A     -0.449781    15A     -0.423068
      16A     -0.393775    17A     -0.389607    18A     -0.370437
      19A     -0.349217    20A     -0.321935    21A     -0.303450
      22A     -0.207201    23A     -0.194623    24A     -0.191313

  @DF-RHF Final Energy:  -305.42176848558103

   => Energetics <=

    Nuclear Repulsion Energy =            236.5359099130702418
    One-Electron Energy =                -895.7248954965676830
    Two-Electron Energy =                 353.7672170979164434
    Total Energy =                       -305.4217684855810262
  Basis Set: (AUG-CC-PVTZ AUX)
    Blend: AUG-CC-PVTZ-RI
    Molecular point group: c1

    Geometry (in Angstrom), charge = -1, multiplicity = 1:

       Center              X                  Y                   Z               Mass
    ------------   -----------------  -----------------  -----------------  -----------------
         O            0.957098626572    -0.974184307772     0.849534259002    15.994914619570
         O            1.676233726572     0.629829892228    -0.606651840998    15.994914619570
         C           -0.684918773428     0.194447192228    -0.401807140998    12.000000000000
         C           -1.223390273428     1.281230892228     0.531331159002    12.000000000000
         C           -1.549643273428    -1.036442107772    -0.394568840998    12.000000000000
         C            0.792500726572    -0.081527107772    -0.037039840998    12.000000000000
         H           -0.672317273428     0.629429892228    -1.435056840998     1.007825032230
         H           -0.608334273428     2.186028892228     0.491428159002     1.007825032230
         H           -2.254716273428     1.557268892228     0.282050159002     1.007825032230
         H           -1.210916273428     0.904674892228     1.559765159002     1.007825032230
         H           -1.156916273428    -1.807711107772    -1.065404840998     1.007825032230
         H           -2.576374273428    -0.808187107772    -0.704741840998     1.007825032230
         H           -1.576245273428    -1.455528107772     0.614110159002     1.007825032230

  Basis Set: AUG-CC-PVTZ
    Blend: AUG-CC-PVTZ
  Basis Set: (AUG-CC-PVTZ AUX)
    Blend: AUG-CC-PVTZ-JKFIT
	 Reference Energy          =    -305.4217684855810262 [Eh]
	 Singles Energy            =      -0.0000000000000000 [Eh]
	 Same-Spin Energy          =      -0.3101180509127935 [Eh]
	 Opposite-Spin Energy      =      -0.9868868315390386 [Eh]
	 Correlation Energy        =      -1.2970048824518321 [Eh]
	 Total Energy              =    -306.7187733680328847 [Eh]

	 ================> DF-SCS-MP2 Energies <==================
	-----------------------------------------------------------
	 SCS Same-Spin Scale       =       0.3333333333333333 [-]
	 SCS Opposite-Spin Scale   =       1.2000000000000000 [-]
	 SCS Same-Spin Energy      =      -0.1033726836375978 [Eh]
	 SCS Opposite-Spin Energy  =      -1.1842641978468462 [Eh]
	 SCS Correlation Energy    =      -1.2876368814844441 [Eh]
	 SCS Total Energy          =    -306.7094053670654716 [Eh]
	-----------------------------------------------------------

  Dipole Moment: [D]
     X:    -5.6640      Y:     0.7585      Z:    -0.6670     Total:     5.7534

*** Psi4 exiting successfully. Buy a developer a beer!
