                               Psi4 1.3.2 release

  ==> Input File <==

--------------------------------------------------------------------------
#psi4
#
memory 32 gb

molecule  {
-1 1
  O        1.0146078    -0.9970759     0.8544034
  O        1.7289858     0.6435235    -0.6362102
  C       -0.5755730     0.1974970    -0.4143540
  C       -1.1221580     1.2656510     0.5365530
  C       -1.4484110    -1.0520220    -0.3893470
  C        0.8937330    -0.0971070    -0.0318180
  H       -0.5710850     0.6138500    -1.4298350
  H       -0.5071020     2.1704490     0.4966500
  H       -2.1534840     1.5416890     0.2872720
  H       -1.1096840     0.8890950     1.5649870
  H       -1.0556840    -1.8232910    -1.0601830
  H       -2.4751420    -0.8237670    -0.6995200
  H       -1.4750130    -1.4711080     0.6193320
units angstrom
no_reorient  #important for SAPT in psi4, default
symmetry c1  #important for SAPT in psi4, default
}

set PROPERTIES_ORIGIN ["COM"]
properties('MP2/aug-cc-pvtz', properties = ['dipole'])
--------------------------------------------------------------------------

    Molecular point group: c1
  Charge       = -1
  Multiplicity = 1
  Basis Set: AUG-CC-PVTZ
    Blend: AUG-CC-PVTZ
  Basis Set: (AUG-CC-PVTZ AUX)
    Blend: AUG-CC-PVTZ-JKFIT

    Orbital Energies [Eh]
    ---------------------

    Doubly Occupied:

       1A    -20.296915     2A    -20.296407     3A    -11.137412
       4A    -11.070492     5A    -11.063404     6A    -11.057626
       7A     -1.160617     8A     -1.068766     9A     -0.904492
      10A     -0.780421    11A     -0.669361    12A     -0.520831
      13A     -0.464862    14A     -0.448726    15A     -0.420130
      16A     -0.395162    17A     -0.389738    18A     -0.367792
      19A     -0.347752    20A     -0.318131    21A     -0.306131
      22A     -0.215045    23A     -0.197241    24A     -0.189150

  @DF-RHF Final Energy:  -305.42100632246547

   => Energetics <=

    Nuclear Repulsion Energy =            236.9058365667093256
    One-Electron Energy =                -896.4804756149228524
    Two-Electron Energy =                 354.1536327257480252
    Total Energy =                       -305.4210063224654732
  Basis Set: (AUG-CC-PVTZ AUX)
    Blend: AUG-CC-PVTZ-RI
    Molecular point group: c1

    Geometry (in Angstrom), charge = -1, multiplicity = 1:

       Center              X                  Y                   Z               Mass
    ------------   -----------------  -----------------  -----------------  -----------------
         O            0.929199849281    -0.988099903780     0.858087017768    15.994914619570
         O            1.643577849281     0.652499496220    -0.632526582232    15.994914619570
         C           -0.660980950719     0.206472996220    -0.410670382232    12.000000000000
         C           -1.207565950719     1.274626996220     0.540236617768    12.000000000000
         C           -1.533818950719    -1.043046003780    -0.385663382232    12.000000000000
         C            0.808325049281    -0.088131003780    -0.028134382232    12.000000000000
         H           -0.656492950719     0.622825996220    -1.426151382232     1.007825032230
         H           -0.592509950719     2.179424996220     0.500333617768     1.007825032230
         H           -2.238891950719     1.550664996220     0.290955617768     1.007825032230
         H           -1.195091950719     0.898070996220     1.568670617768     1.007825032230
         H           -1.141091950719    -1.814315003780    -1.056499382232     1.007825032230
         H           -2.560549950719    -0.814791003780    -0.695836382232     1.007825032230
         H           -1.560420950719    -1.462132003780     0.623015617768     1.007825032230

  Basis Set: AUG-CC-PVTZ
    Blend: AUG-CC-PVTZ
  Basis Set: (AUG-CC-PVTZ AUX)
    Blend: AUG-CC-PVTZ-JKFIT
	 Reference Energy          =    -305.4210063224654732 [Eh]
	 Singles Energy            =      -0.0000000000000000 [Eh]
	 Same-Spin Energy          =      -0.3102633837951304 [Eh]
	 Opposite-Spin Energy      =      -0.9871351269605214 [Eh]
	 Correlation Energy        =      -1.2973985107556518 [Eh]
	 Total Energy              =    -306.7184048332211432 [Eh]

	 ================> DF-SCS-MP2 Energies <==================
	-----------------------------------------------------------
	 SCS Same-Spin Scale       =       0.3333333333333333 [-]
	 SCS Opposite-Spin Scale   =       1.2000000000000000 [-]
	 SCS Same-Spin Energy      =      -0.1034211279317101 [Eh]
	 SCS Opposite-Spin Energy  =      -1.1845621523526257 [Eh]
	 SCS Correlation Energy    =      -1.2879832802843358 [Eh]
	 SCS Total Energy          =    -306.7089896027497957 [Eh]
	-----------------------------------------------------------

  Dipole Moment: [D]
     X:    -5.3729      Y:     0.7341      Z:    -0.6152     Total:     5.4576

*** Psi4 exiting successfully. Buy a developer a beer!
