                               Psi4 1.3.2 release

  ==> Input File <==

--------------------------------------------------------------------------
#psi4
#
memory 32 gb

molecule  {
-1 1
  O        1.0802400    -0.9868790     0.8533170
  O        1.7695069     0.6196504    -0.6069262
  C       -0.5713803     0.2071974    -0.4227494
  C       -1.1221580     1.2656510     0.5365530
  C       -1.4484110    -1.0520220    -0.3893470
  C        0.8937330    -0.0971070    -0.0318180
  H       -0.5710850     0.6138500    -1.4298350
  H       -0.5071020     2.1704490     0.4966500
  H       -2.1534840     1.5416890     0.2872720
  H       -1.1096840     0.8890950     1.5649870
  H       -1.0556840    -1.8232910    -1.0601830
  H       -2.4751420    -0.8237670    -0.6995200
  H       -1.4750130    -1.4711080     0.6193320
units angstrom
no_reorient  #important for SAPT in psi4, default
symmetry c1  #important for SAPT in psi4, default
}

set PROPERTIES_ORIGIN ["COM"]
properties('MP2/aug-cc-pvtz', properties = ['dipole'])
--------------------------------------------------------------------------

    Molecular point group: c1
  Charge       = -1
  Multiplicity = 1
  Basis Set: AUG-CC-PVTZ
    Blend: AUG-CC-PVTZ
  Basis Set: (AUG-CC-PVTZ AUX)
    Blend: AUG-CC-PVTZ-JKFIT

    Orbital Energies [Eh]
    ---------------------

    Doubly Occupied:

       1A    -20.292098     2A    -20.290659     3A    -11.134537
       4A    -11.073684     5A    -11.067560     6A    -11.064084
       7A     -1.159187     8A     -1.058711     9A     -0.908348
      10A     -0.782940    11A     -0.674303    12A     -0.523770
      13A     -0.465632    14A     -0.448506    15A     -0.421341
      16A     -0.393429    17A     -0.390071    18A     -0.369230
      19A     -0.348336    20A     -0.320964    21A     -0.308951
      22A     -0.206478    23A     -0.194787    24A     -0.190479

  @DF-RHF Final Energy:  -305.42306702827409

   => Energetics <=

    Nuclear Repulsion Energy =            236.2152238313208272
    One-Electron Energy =                -895.1004086984545438
    Two-Electron Energy =                 353.4621178388596263
    Total Energy =                       -305.4230670282740903
  Basis Set: (AUG-CC-PVTZ AUX)
    Blend: AUG-CC-PVTZ-RI
    Molecular point group: c1

    Geometry (in Angstrom), charge = -1, multiplicity = 1:

       Center              X                  Y                   Z               Mass
    ------------   -----------------  -----------------  -----------------  -----------------
         O            0.974747801890    -0.976727228992     0.852976549801    15.994914619570
         O            1.664014701890     0.629802171008    -0.607266650199    15.994914619570
         C           -0.676872498110     0.217349171008    -0.423089850199    12.000000000000
         C           -1.227650198110     1.275802771008     0.536212549801    12.000000000000
         C           -1.553903198110    -1.041870228992    -0.389687450199    12.000000000000
         C            0.788240801890    -0.086955228992    -0.032158450199    12.000000000000
         H           -0.676577198110     0.624001771008    -1.430175450199     1.007825032230
         H           -0.612594198110     2.180600771008     0.496309549801     1.007825032230
         H           -2.258976198110     1.551840771008     0.286931549801     1.007825032230
         H           -1.215176198110     0.899246771008     1.564646549801     1.007825032230
         H           -1.161176198110    -1.813139228992    -1.060523450199     1.007825032230
         H           -2.580634198110    -0.813615228992    -0.699860450199     1.007825032230
         H           -1.580505198110    -1.460956228992     0.618991549801     1.007825032230

  Basis Set: AUG-CC-PVTZ
    Blend: AUG-CC-PVTZ
  Basis Set: (AUG-CC-PVTZ AUX)
    Blend: AUG-CC-PVTZ-JKFIT
	 Reference Energy          =    -305.4230670282740903 [Eh]
	 Singles Energy            =      -0.0000000000000000 [Eh]
	 Same-Spin Energy          =      -0.3098365177017540 [Eh]
	 Opposite-Spin Energy      =      -0.9865250714314020 [Eh]
	 Correlation Energy        =      -1.2963615891331561 [Eh]
	 Total Energy              =    -306.7194286174072317 [Eh]

	 ================> DF-SCS-MP2 Energies <==================
	-----------------------------------------------------------
	 SCS Same-Spin Scale       =       0.3333333333333333 [-]
	 SCS Opposite-Spin Scale   =       1.2000000000000000 [-]
	 SCS Same-Spin Energy      =      -0.1032788392339180 [Eh]
	 SCS Opposite-Spin Energy  =      -1.1838300857176824 [Eh]
	 SCS Correlation Energy    =      -1.2871089249516006 [Eh]
	 SCS Total Energy          =    -306.7101759532257006 [Eh]
	-----------------------------------------------------------

  Dipole Moment: [D]
     X:    -5.6884      Y:     0.7930      Z:    -0.6918     Total:     5.7850

*** Psi4 exiting successfully. Buy a developer a beer!
