                               Psi4 1.4a3.dev225

  ==> Input File <==

--------------------------------------------------------------------------
#psi4
#
memory 32 gb

molecule  {
-1 1
  O       -1.0485690    -0.0000230     1.2804550
  O       -1.8085780     0.0000120    -0.8608380
  C        0.5680610     0.0000050    -0.4771230
  C        1.2889140    -1.2559050     0.0104430
  C        1.2889010     1.2559130     0.0104710
  C       -0.8764328    -0.0000039     0.0130739
  H        0.5489340     0.0000180    -1.5740110
  H        0.7977980    -2.1625660    -0.3602090
  H        2.3325250    -1.2756680    -0.3244140
  H        1.2723070    -1.2837030     1.1032290
  H        0.7977740     2.1625770    -0.3601580
  H        2.3325120     1.2756960    -0.3243870
  H        1.2722960     1.2836850     1.1032580
units angstrom
no_reorient  #important for SAPT in psi4, default
symmetry c1  #important for SAPT in psi4, default
}

set PROPERTIES_ORIGIN ["COM"]
properties('MP2/aug-cc-pvtz', properties = ['dipole'])
--------------------------------------------------------------------------

    Molecular point group: c1
  Charge       = -1
  Multiplicity = 1
  Basis Set: AUG-CC-PVTZ
    Blend: AUG-CC-PVTZ
  Basis Set: (AUG-CC-PVTZ AUX)
    Blend: AUG-CC-PVTZ-JKFIT

    Orbital Energies [Eh]
    ---------------------

    Doubly Occupied:

       1A    -20.291438     2A    -20.289132     3A    -11.134644
       4A    -11.072776     5A    -11.072756     6A    -11.066490
       7A     -1.154059     8A     -1.051018     9A     -0.913398
      10A     -0.786370    11A     -0.679155    12A     -0.524933
      13A     -0.469577    14A     -0.447034    15A     -0.423175
      16A     -0.394547    17A     -0.389308    18A     -0.370257
      19A     -0.349573    20A     -0.317776    21A     -0.307806
      22A     -0.202565    23A     -0.199153    24A     -0.187041

  @DF-RHF Final Energy:  -305.42067144114424

   => Energetics <=

    Nuclear Repulsion Energy =            236.3562649753250753
    One-Electron Energy =                -895.3659128587355553
    Two-Electron Energy =                 353.5889764422662438
    Total Energy =                       -305.4206714411442363
  Basis Set: (AUG-CC-PVTZ AUX)
    Blend: AUG-CC-PVTZ-RI
    Molecular point group: c1

    Geometry (in Angstrom), charge = -1, multiplicity = 1:

       Center              X                  Y                   Z               Mass
    ------------   -----------------  -----------------  -----------------  -----------------
         O           -0.944723833695    -0.000022684772     1.272968490603    15.994914619570
         O           -1.704732833695     0.000012315228    -0.868324509397    15.994914619570
         C            0.671906166305     0.000005315228    -0.484609509397    12.000000000000
         C            1.392759166305    -1.255904684772     0.002956490603    12.000000000000
         C            1.392746166305     1.255913315228     0.002984490603    12.000000000000
         C           -0.772587633695    -0.000003584772     0.005587390603    12.000000000000
         H            0.652779166305     0.000018315228    -1.581497509397     1.007825032230
         H            0.901643166305    -2.162565684772    -0.367695509397     1.007825032230
         H            2.436370166305    -1.275667684772    -0.331900509397     1.007825032230
         H            1.376152166305    -1.283702684772     1.095742490603     1.007825032230
         H            0.901619166305     2.162577315228    -0.367644509397     1.007825032230
         H            2.436357166305     1.275696315228    -0.331873509397     1.007825032230
         H            1.376141166305     1.283685315228     1.095771490603     1.007825032230

  Basis Set: AUG-CC-PVTZ
    Blend: AUG-CC-PVTZ
  Basis Set: (AUG-CC-PVTZ AUX)
    Blend: AUG-CC-PVTZ-JKFIT
	 Reference Energy          =    -305.4206714411442363 [Eh]
	 Singles Energy            =      -0.0000000000000000 [Eh]
	 Same-Spin Energy          =      -0.3103527931061834 [Eh]
	 Opposite-Spin Energy      =      -0.9875109781615100 [Eh]
	 Correlation Energy        =      -1.2978637712676935 [Eh]
	 Total Energy              =    -306.7185352124119504 [Eh]

	 ================> DF-SCS-MP2 Energies <==================
	-----------------------------------------------------------
	 SCS Same-Spin Scale       =       0.3333333333333333 [-]
	 SCS Opposite-Spin Scale   =       1.2000000000000000 [-]
	 SCS Same-Spin Energy      =      -0.1034509310353945 [Eh]
	 SCS Opposite-Spin Energy  =      -1.1850131737938119 [Eh]
	 SCS Correlation Energy    =      -1.2884641048292063 [Eh]
	 SCS Total Energy          =    -306.7091355459734245 [Eh]
	-----------------------------------------------------------

  Dipole Moment: [D]
     X:     5.8566      Y:     0.0000      Z:    -1.0411     Total:     5.9484

*** Psi4 exiting successfully. Buy a developer a beer!
