                               Psi4 1.3.2 release

  ==> Input File <==

--------------------------------------------------------------------------
#psi4
#
memory 32 gb

molecule  {
-1 1
  O        1.0802400    -0.9868790     0.8533170
  O        1.8237863     0.5807247    -0.5675565
  C       -0.5983690     0.1388494    -0.3633926
  C       -1.1221580     1.2656510     0.5365530
  C       -1.4484110    -1.0520220    -0.3893470
  C        0.8937330    -0.0971070    -0.0318180
  H       -0.5710850     0.6138500    -1.4298350
  H       -0.5071020     2.1704490     0.4966500
  H       -2.1534840     1.5416890     0.2872720
  H       -1.1096840     0.8890950     1.5649870
  H       -1.0556840    -1.8232910    -1.0601830
  H       -2.4751420    -0.8237670    -0.6995200
  H       -1.4750130    -1.4711080     0.6193320
units angstrom
no_reorient  #important for SAPT in psi4, default
symmetry c1  #important for SAPT in psi4, default
}

set PROPERTIES_ORIGIN ["COM"]
properties('MP2/aug-cc-pvtz', properties = ['dipole'])
--------------------------------------------------------------------------

    Molecular point group: c1
  Charge       = -1
  Multiplicity = 1
  Basis Set: AUG-CC-PVTZ
    Blend: AUG-CC-PVTZ
  Basis Set: (AUG-CC-PVTZ AUX)
    Blend: AUG-CC-PVTZ-JKFIT

    Orbital Energies [Eh]
    ---------------------

    Doubly Occupied:

       1A    -20.290699     2A    -20.286278     3A    -11.133886
       4A    -11.076568     5A    -11.072346     6A    -11.068731
       7A     -1.159570     8A     -1.052893     9A     -0.919748
      10A     -0.791789    11A     -0.671634    12A     -0.518359
      13A     -0.474205    14A     -0.451054    15A     -0.427653
      16A     -0.396150    17A     -0.386079    18A     -0.374473
      19A     -0.352959    20A     -0.326071    21A     -0.292055
      22A     -0.201422    23A     -0.196679    24A     -0.186725

  @DF-RHF Final Energy:  -305.41286057856365

   => Energetics <=

    Nuclear Repulsion Energy =            236.5161033037170171
    One-Electron Energy =                -895.6418797625384514
    Two-Electron Energy =                 353.7129158802577535
    Total Energy =                       -305.4128605785636523
  Basis Set: (AUG-CC-PVTZ AUX)
    Blend: AUG-CC-PVTZ-RI
    Molecular point group: c1

    Geometry (in Angstrom), charge = -1, multiplicity = 1:

       Center              X                  Y                   Z               Mass
    ------------   -----------------  -----------------  -----------------  -----------------
         O            0.968494341702    -0.960151942599     0.837559206034    15.994914619570
         O            1.712040641702     0.607451757401    -0.583314293966    15.994914619570
         C           -0.710114658298     0.165576457401    -0.379150393966    12.000000000000
         C           -1.233903658298     1.292378057401     0.520795206034    12.000000000000
         C           -1.560156658298    -1.025294942599    -0.405104793966    12.000000000000
         C            0.781987341702    -0.070379942599    -0.047575793966    12.000000000000
         H           -0.682830658298     0.640577057401    -1.445592793966     1.007825032230
         H           -0.618847658298     2.197176057401     0.480892206034     1.007825032230
         H           -2.265229658298     1.568416057401     0.271514206034     1.007825032230
         H           -1.221429658298     0.915822057401     1.549229206034     1.007825032230
         H           -1.167429658298    -1.796563942599    -1.075940793966     1.007825032230
         H           -2.586887658298    -0.797039942599    -0.715277793966     1.007825032230
         H           -1.586758658298    -1.444380942599     0.603574206034     1.007825032230

  Basis Set: AUG-CC-PVTZ
    Blend: AUG-CC-PVTZ
  Basis Set: (AUG-CC-PVTZ AUX)
    Blend: AUG-CC-PVTZ-JKFIT
	 Reference Energy          =    -305.4128605785636523 [Eh]
	 Singles Energy            =      -0.0000000000000000 [Eh]
	 Same-Spin Energy          =      -0.3104872762990064 [Eh]
	 Opposite-Spin Energy      =      -0.9875351581467291 [Eh]
	 Correlation Energy        =      -1.2980224344457354 [Eh]
	 Total Energy              =    -306.7108830130093793 [Eh]

	 ================> DF-SCS-MP2 Energies <==================
	-----------------------------------------------------------
	 SCS Same-Spin Scale       =       0.3333333333333333 [-]
	 SCS Opposite-Spin Scale   =       1.2000000000000000 [-]
	 SCS Same-Spin Energy      =      -0.1034957587663355 [Eh]
	 SCS Opposite-Spin Energy  =      -1.1850421897760748 [Eh]
	 SCS Correlation Energy    =      -1.2885379485424102 [Eh]
	 SCS Total Energy          =    -306.7013985271060506 [Eh]
	-----------------------------------------------------------

  Dipole Moment: [D]
     X:    -5.8833      Y:     0.7580      Z:    -0.6850     Total:     5.9714

*** Psi4 exiting successfully. Buy a developer a beer!
