                               Psi4 1.4a3.dev225

  ==> Input File <==

--------------------------------------------------------------------------
#psi4
#
memory 32 gb

molecule  {
-1 1
  O       -1.0485690    -0.0000230     1.2804550
  O       -1.8085780     0.0000120    -0.8608380
  C        0.5680610     0.0000050    -0.4771230
  C        1.2889140    -1.2559050     0.0104430
  C        1.2889010     1.2559130     0.0104710
  C       -0.8593748    -0.0000046     0.0542026
  H        0.5489340     0.0000180    -1.5740110
  H        0.7977980    -2.1625660    -0.3602090
  H        2.3325250    -1.2756680    -0.3244140
  H        1.2723070    -1.2837030     1.1032290
  H        0.7977740     2.1625770    -0.3601580
  H        2.3325120     1.2756960    -0.3243870
  H        1.2722960     1.2836850     1.1032580
units angstrom
no_reorient  #important for SAPT in psi4, default
symmetry c1  #important for SAPT in psi4, default
}

set PROPERTIES_ORIGIN ["COM"]
properties('MP2/aug-cc-pvtz', properties = ['dipole'])
--------------------------------------------------------------------------

    Molecular point group: c1
  Charge       = -1
  Multiplicity = 1
  Basis Set: AUG-CC-PVTZ
    Blend: AUG-CC-PVTZ
  Basis Set: (AUG-CC-PVTZ AUX)
    Blend: AUG-CC-PVTZ-JKFIT

    Orbital Energies [Eh]
    ---------------------

    Doubly Occupied:

       1A    -20.299315     2A    -20.281089     3A    -11.134300
       4A    -11.073568     5A    -11.073550     6A    -11.066603
       7A     -1.162480     8A     -1.042583     9A     -0.914957
      10A     -0.787497    11A     -0.678675    12A     -0.528332
      13A     -0.469650    14A     -0.449554    15A     -0.424344
      16A     -0.396331    17A     -0.388216    18A     -0.369369
      19A     -0.350793    20A     -0.320607    21A     -0.309216
      22A     -0.205281    23A     -0.193148    24A     -0.184822

  @DF-RHF Final Energy:  -305.41757138893661

   => Energetics <=

    Nuclear Repulsion Energy =            236.4832421209242170
    One-Electron Energy =                -895.5930664996359383
    Two-Electron Energy =                 353.6922529897750564
    Total Energy =                       -305.4175713889366079
  Basis Set: (AUG-CC-PVTZ AUX)
    Blend: AUG-CC-PVTZ-RI
    Molecular point group: c1

    Geometry (in Angstrom), charge = -1, multiplicity = 1:

       Center              X                  Y                   Z               Mass
    ------------   -----------------  -----------------  -----------------  -----------------
         O           -0.947075455616    -0.000022588270     1.267298473455    15.994914619570
         O           -1.707084455616     0.000012411730    -0.873994526545    15.994914619570
         C            0.669554544384     0.000005411730    -0.490279526545    12.000000000000
         C            1.390407544384    -1.255904588270    -0.002713526545    12.000000000000
         C            1.390394544384     1.255913411730    -0.002685526545    12.000000000000
         C           -0.757881255616    -0.000004188270     0.041046073455    12.000000000000
         H            0.650427544384     0.000018411730    -1.587167526545     1.007825032230
         H            0.899291544384    -2.162565588270    -0.373365526545     1.007825032230
         H            2.434018544384    -1.275667588270    -0.337570526545     1.007825032230
         H            1.373800544384    -1.283702588270     1.090072473455     1.007825032230
         H            0.899267544384     2.162577411730    -0.373314526545     1.007825032230
         H            2.434005544384     1.275696411730    -0.337543526545     1.007825032230
         H            1.373789544384     1.283685411730     1.090101473455     1.007825032230

  Basis Set: AUG-CC-PVTZ
    Blend: AUG-CC-PVTZ
  Basis Set: (AUG-CC-PVTZ AUX)
    Blend: AUG-CC-PVTZ-JKFIT
	 Reference Energy          =    -305.4175713889366079 [Eh]
	 Singles Energy            =      -0.0000000000000000 [Eh]
	 Same-Spin Energy          =      -0.3104487393200284 [Eh]
	 Opposite-Spin Energy      =      -0.9877094681856067 [Eh]
	 Correlation Energy        =      -1.2981582075056350 [Eh]
	 Total Energy              =    -306.7157295964422588 [Eh]

	 ================> DF-SCS-MP2 Energies <==================
	-----------------------------------------------------------
	 SCS Same-Spin Scale       =       0.3333333333333333 [-]
	 SCS Opposite-Spin Scale   =       1.2000000000000000 [-]
	 SCS Same-Spin Energy      =      -0.1034829131066761 [Eh]
	 SCS Opposite-Spin Energy  =      -1.1852513618227281 [Eh]
	 SCS Correlation Energy    =      -1.2887342749294042 [Eh]
	 SCS Total Energy          =    -306.7063056638660328 [Eh]
	-----------------------------------------------------------

  Dipole Moment: [D]
     X:     6.0478      Y:     0.0000      Z:    -0.6187     Total:     6.0794

*** Psi4 exiting successfully. Buy a developer a beer!
