                               Psi4 1.4a3.dev225

  ==> Input File <==

--------------------------------------------------------------------------
#psi4
#
memory 32 gb

molecule  {
-1 1
  O       -1.0485690    -0.0000230     1.2804550
  O       -1.8085780     0.0000120    -0.8608380
  C        0.5680610     0.0000050    -0.4771230
  C        1.2889140    -1.2559050     0.0104430
  C        1.2889010     1.2559130     0.0104710
  C       -0.8480241    -0.0000037     0.0034332
  H        0.5489340     0.0000180    -1.5740110
  H        0.7977980    -2.1625660    -0.3602090
  H        2.3325250    -1.2756680    -0.3244140
  H        1.2723070    -1.2837030     1.1032290
  H        0.7977740     2.1625770    -0.3601580
  H        2.3325120     1.2756960    -0.3243870
  H        1.2722960     1.2836850     1.1032580
units angstrom
no_reorient  #important for SAPT in psi4, default
symmetry c1  #important for SAPT in psi4, default
}

set PROPERTIES_ORIGIN ["COM"]
properties('MP2/aug-cc-pvtz', properties = ['dipole'])
--------------------------------------------------------------------------

    Molecular point group: c1
  Charge       = -1
  Multiplicity = 1
  Basis Set: AUG-CC-PVTZ
    Blend: AUG-CC-PVTZ
  Basis Set: (AUG-CC-PVTZ AUX)
    Blend: AUG-CC-PVTZ-JKFIT

    Orbital Energies [Eh]
    ---------------------

    Doubly Occupied:

       1A    -20.290596     2A    -20.288071     3A    -11.135683
       4A    -11.074853     5A    -11.074831     6A    -11.068698
       7A     -1.146451     8A     -1.041189     9A     -0.918124
      10A     -0.788618    11A     -0.687359    12A     -0.528412
      13A     -0.471491    14A     -0.445551    15A     -0.425782
      16A     -0.396293    17A     -0.386349    18A     -0.368627
      19A     -0.350040    20A     -0.317756    21A     -0.303341
      22A     -0.204749    23A     -0.197385    24A     -0.182950

  @DF-RHF Final Energy:  -305.41533562380704

   => Energetics <=

    Nuclear Repulsion Energy =            236.3901952883211379
    One-Electron Energy =                -895.4246645726512952
    Two-Electron Energy =                 353.6191336605231186
    Total Energy =                       -305.4153356238070387
  Basis Set: (AUG-CC-PVTZ AUX)
    Blend: AUG-CC-PVTZ-RI
    Molecular point group: c1

    Geometry (in Angstrom), charge = -1, multiplicity = 1:

       Center              X                  Y                   Z               Mass
    ------------   -----------------  -----------------  -----------------  -----------------
         O           -0.948640267138    -0.000022712344     1.274297560920    15.994914619570
         O           -1.708649267138     0.000012287656    -0.866995439080    15.994914619570
         C            0.667989732862     0.000005287656    -0.483280439080    12.000000000000
         C            1.388842732862    -1.255904712344     0.004285560920    12.000000000000
         C            1.388829732862     1.255913287656     0.004313560920    12.000000000000
         C           -0.748095367138    -0.000003412344    -0.002724239080    12.000000000000
         H            0.648862732862     0.000018287656    -1.580168439080     1.007825032230
         H            0.897726732862    -2.162565712344    -0.366366439080     1.007825032230
         H            2.432453732862    -1.275667712344    -0.330571439080     1.007825032230
         H            1.372235732862    -1.283702712344     1.097071560920     1.007825032230
         H            0.897702732862     2.162577287656    -0.366315439080     1.007825032230
         H            2.432440732862     1.275696287656    -0.330544439080     1.007825032230
         H            1.372224732862     1.283685287656     1.097100560920     1.007825032230

  Basis Set: AUG-CC-PVTZ
    Blend: AUG-CC-PVTZ
  Basis Set: (AUG-CC-PVTZ AUX)
    Blend: AUG-CC-PVTZ-JKFIT
	 Reference Energy          =    -305.4153356238070387 [Eh]
	 Singles Energy            =      -0.0000000000000000 [Eh]
	 Same-Spin Energy          =      -0.3110307716139321 [Eh]
	 Opposite-Spin Energy      =      -0.9889974022362271 [Eh]
	 Correlation Energy        =      -1.3000281738501591 [Eh]
	 Total Energy              =    -306.7153637976571758 [Eh]

	 ================> DF-SCS-MP2 Energies <==================
	-----------------------------------------------------------
	 SCS Same-Spin Scale       =       0.3333333333333333 [-]
	 SCS Opposite-Spin Scale   =       1.2000000000000000 [-]
	 SCS Same-Spin Energy      =      -0.1036769238713107 [Eh]
	 SCS Opposite-Spin Energy  =      -1.1867968826834725 [Eh]
	 SCS Correlation Energy    =      -1.2904738065547832 [Eh]
	 SCS Total Energy          =    -306.7058094303617963 [Eh]
	-----------------------------------------------------------

  Dipole Moment: [D]
     X:     6.0434      Y:     0.0000      Z:    -1.0801     Total:     6.1392

*** Psi4 exiting successfully. Buy a developer a beer!
