                               Psi4 1.3.2 release

  ==> Input File <==

--------------------------------------------------------------------------
#psi4
#
memory 32 gb

molecule  {
-1 1
  O        1.0802400    -0.9868790     0.8533170
  O        1.7774660     0.6142500    -0.6014300
  C       -0.5755730     0.1974970    -0.4143540
  C       -1.1221580     1.2656510     0.5365530
  C       -1.4484110    -1.0520220    -0.3893470
  C        0.9633491    -0.0410698    -0.0766892
  H       -0.5710850     0.6138500    -1.4298350
  H       -0.5071020     2.1704490     0.4966500
  H       -2.1534840     1.5416890     0.2872720
  H       -1.1096840     0.8890950     1.5649870
  H       -1.0556840    -1.8232910    -1.0601830
  H       -2.4751420    -0.8237670    -0.6995200
  H       -1.4750130    -1.4711080     0.6193320
units angstrom
no_reorient  #important for SAPT in psi4, default
symmetry c1  #important for SAPT in psi4, default
}

set PROPERTIES_ORIGIN ["COM"]
properties('MP2/aug-cc-pvtz', properties = ['dipole'])
--------------------------------------------------------------------------

    Molecular point group: c1
  Charge       = -1
  Multiplicity = 1
  Basis Set: AUG-CC-PVTZ
    Blend: AUG-CC-PVTZ
  Basis Set: (AUG-CC-PVTZ AUX)
    Blend: AUG-CC-PVTZ-JKFIT

    Orbital Energies [Eh]
    ---------------------

    Doubly Occupied:

       1A    -20.313932     2A    -20.272831     3A    -11.132497
       4A    -11.070527     5A    -11.063192     6A    -11.060596
       7A     -1.205846     8A     -1.045903     9A     -0.901211
      10A     -0.779368    11A     -0.664528    12A     -0.516727
      13A     -0.468685    14A     -0.454002    15A     -0.419251
      16A     -0.399055    17A     -0.387107    18A     -0.376987
      19A     -0.359083    20A     -0.320273    21A     -0.310559
      22A     -0.208433    23A     -0.189751    24A     -0.178315

  @DF-RHF Final Energy:  -305.41140204806021

   => Energetics <=

    Nuclear Repulsion Energy =            236.2028781892508107
    One-Electron Energy =                -895.0312413984240720
    Two-Electron Energy =                 353.4169611611130790
    Total Energy =                       -305.4114020480602107
  Basis Set: (AUG-CC-PVTZ AUX)
    Blend: AUG-CC-PVTZ-RI
    Molecular point group: c1

    Geometry (in Angstrom), charge = -1, multiplicity = 1:

       Center              X                  Y                   Z               Mass
    ------------   -----------------  -----------------  -----------------  -----------------
         O            0.964265981328    -0.982122884082     0.856995160173    15.994914619570
         O            1.661491981328     0.619006115918    -0.597751839827    15.994914619570
         C           -0.691547018672     0.202253115918    -0.410675839827    12.000000000000
         C           -1.238132018672     1.270407115918     0.540231160173    12.000000000000
         C           -1.564385018672    -1.047265884082    -0.385668839827    12.000000000000
         C            0.847375081328    -0.036313684082    -0.073011039827    12.000000000000
         H           -0.687059018672     0.618606115918    -1.426156839827     1.007825032230
         H           -0.623076018672     2.175205115918     0.500328160173     1.007825032230
         H           -2.269458018672     1.546445115918     0.290950160173     1.007825032230
         H           -1.225658018672     0.893851115918     1.568665160173     1.007825032230
         H           -1.171658018672    -1.818534884082    -1.056504839827     1.007825032230
         H           -2.591116018672    -0.819010884082    -0.695841839827     1.007825032230
         H           -1.590987018672    -1.466351884082     0.623010160173     1.007825032230

  Basis Set: AUG-CC-PVTZ
    Blend: AUG-CC-PVTZ
  Basis Set: (AUG-CC-PVTZ AUX)
    Blend: AUG-CC-PVTZ-JKFIT
	 Reference Energy          =    -305.4114020480602107 [Eh]
	 Singles Energy            =      -0.0000000000000000 [Eh]
	 Same-Spin Energy          =      -0.3091370288245922 [Eh]
	 Opposite-Spin Energy      =      -0.9849642191737891 [Eh]
	 Correlation Energy        =      -1.2941012479983813 [Eh]
	 Total Energy              =    -306.7055032960585663 [Eh]

	 ================> DF-SCS-MP2 Energies <==================
	-----------------------------------------------------------
	 SCS Same-Spin Scale       =       0.3333333333333333 [-]
	 SCS Opposite-Spin Scale   =       1.2000000000000000 [-]
	 SCS Same-Spin Energy      =      -0.1030456762748641 [Eh]
	 SCS Opposite-Spin Energy  =      -1.1819570630085467 [Eh]
	 SCS Correlation Energy    =      -1.2850027392834109 [Eh]
	 SCS Total Energy          =    -306.6964047873436243 [Eh]
	-----------------------------------------------------------

  Dipole Moment: [D]
     X:    -5.0863      Y:     1.4096      Z:    -1.2553     Total:     5.4252

*** Psi4 exiting successfully. Buy a developer a beer!
