                               Psi4 1.3.2 release

  ==> Input File <==

--------------------------------------------------------------------------
#psi4
#
memory 32 gb

molecule  {
-1 1
  O        1.0802400    -0.9868790     0.8533170
  O        1.7287235     0.6458255    -0.6337423
  C       -0.5487498     0.2553371    -0.4642669
  C       -1.1221580     1.2656510     0.5365530
  C       -1.4484110    -1.0520220    -0.3893470
  C        0.8937330    -0.0971070    -0.0318180
  H       -0.5710850     0.6138500    -1.4298350
  H       -0.5071020     2.1704490     0.4966500
  H       -2.1534840     1.5416890     0.2872720
  H       -1.1096840     0.8890950     1.5649870
  H       -1.0556840    -1.8232910    -1.0601830
  H       -2.4751420    -0.8237670    -0.6995200
  H       -1.4750130    -1.4711080     0.6193320
units angstrom
no_reorient  #important for SAPT in psi4, default
symmetry c1  #important for SAPT in psi4, default
}

set PROPERTIES_ORIGIN ["COM"]
properties('MP2/aug-cc-pvtz', properties = ['dipole'])
--------------------------------------------------------------------------

    Molecular point group: c1
  Charge       = -1
  Multiplicity = 1
  Basis Set: AUG-CC-PVTZ
    Blend: AUG-CC-PVTZ
  Basis Set: (AUG-CC-PVTZ AUX)
    Blend: AUG-CC-PVTZ-JKFIT

    Orbital Energies [Eh]
    ---------------------

    Doubly Occupied:

       1A    -20.296688     2A    -20.290977     3A    -11.135944
       4A    -11.072501     5A    -11.066143     6A    -11.060042
       7A     -1.159878     8A     -1.063606     9A     -0.901209
      10A     -0.776575    11A     -0.677225    12A     -0.530407
      13A     -0.460234    14A     -0.445984    15A     -0.418208
      16A     -0.394227    17A     -0.390973    18A     -0.367059
      19A     -0.350734    20A     -0.327342    21A     -0.299895
      22A     -0.211585    23A     -0.193884    24A     -0.189764

  @DF-RHF Final Energy:  -305.41553925923262

   => Energetics <=

    Nuclear Repulsion Energy =            236.0621519510357587
    One-Electron Energy =                -894.7932113119503583
    Two-Electron Energy =                 353.3155201016820115
    Total Energy =                       -305.4155392592326166
  Basis Set: (AUG-CC-PVTZ AUX)
    Blend: AUG-CC-PVTZ-RI
    Molecular point group: c1

    Geometry (in Angstrom), charge = -1, multiplicity = 1:

       Center              X                  Y                   Z               Mass
    ------------   -----------------  -----------------  -----------------  -----------------
         O            0.979122122427    -0.988173600606     0.863627769778    15.994914619570
         O            1.627605622427     0.644530899394    -0.623431530222    15.994914619570
         C           -0.649867677573     0.254042499394    -0.453956130222    12.000000000000
         C           -1.223275877573     1.264356399394     0.546863769778    12.000000000000
         C           -1.549528877573    -1.053316600606    -0.379036230222    12.000000000000
         C            0.792615122427    -0.098401600606    -0.021507230222    12.000000000000
         H           -0.672202877573     0.612555399394    -1.419524230222     1.007825032230
         H           -0.608219877573     2.169154399394     0.506960769778     1.007825032230
         H           -2.254601877573     1.540394399394     0.297582769778     1.007825032230
         H           -1.210801877573     0.887800399394     1.575297769778     1.007825032230
         H           -1.156801877573    -1.824585600606    -1.049872230222     1.007825032230
         H           -2.576259877573    -0.825061600606    -0.689209230222     1.007825032230
         H           -1.576130877573    -1.472402600606     0.629642769778     1.007825032230

  Basis Set: AUG-CC-PVTZ
    Blend: AUG-CC-PVTZ
  Basis Set: (AUG-CC-PVTZ AUX)
    Blend: AUG-CC-PVTZ-JKFIT
	 Reference Energy          =    -305.4155392592326166 [Eh]
	 Singles Energy            =      -0.0000000000000000 [Eh]
	 Same-Spin Energy          =      -0.3098255602521359 [Eh]
	 Opposite-Spin Energy      =      -0.9867910743191086 [Eh]
	 Correlation Energy        =      -1.2966166345712444 [Eh]
	 Total Energy              =    -306.7121558938038675 [Eh]

	 ================> DF-SCS-MP2 Energies <==================
	-----------------------------------------------------------
	 SCS Same-Spin Scale       =       0.3333333333333333 [-]
	 SCS Opposite-Spin Scale   =       1.2000000000000000 [-]
	 SCS Same-Spin Energy      =      -0.1032751867507120 [Eh]
	 SCS Opposite-Spin Energy  =      -1.1841492891829304 [Eh]
	 SCS Correlation Energy    =      -1.2874244759336424 [Eh]
	 SCS Total Energy          =    -306.7029637351662359 [Eh]
	-----------------------------------------------------------

  Dipole Moment: [D]
     X:    -5.5153      Y:     0.8239      Z:    -0.6806     Total:     5.6179

*** Psi4 exiting successfully. Buy a developer a beer!
