                               Psi4 1.3.2 release

  ==> Input File <==

--------------------------------------------------------------------------
#psi4
#
memory 32 gb

molecule  {
-1 1
  O        1.0802400    -0.9868790     0.8533170
  O        1.7452320     0.6355224    -0.6231505
  C       -0.5581340     0.2361567    -0.4477543
  C       -1.1221580     1.2656510     0.5365530
  C       -1.4484110    -1.0520220    -0.3893470
  C        0.8937330    -0.0971070    -0.0318180
  H       -0.5710850     0.6138500    -1.4298350
  H       -0.5071020     2.1704490     0.4966500
  H       -2.1534840     1.5416890     0.2872720
  H       -1.1096840     0.8890950     1.5649870
  H       -1.0556840    -1.8232910    -1.0601830
  H       -2.4751420    -0.8237670    -0.6995200
  H       -1.4750130    -1.4711080     0.6193320
units angstrom
no_reorient  #important for SAPT in psi4, default
symmetry c1  #important for SAPT in psi4, default
}

set PROPERTIES_ORIGIN ["COM"]
properties('MP2/aug-cc-pvtz', properties = ['dipole'])
--------------------------------------------------------------------------

    Molecular point group: c1
  Charge       = -1
  Multiplicity = 1
  Basis Set: AUG-CC-PVTZ
    Blend: AUG-CC-PVTZ
  Basis Set: (AUG-CC-PVTZ AUX)
    Blend: AUG-CC-PVTZ-JKFIT

    Orbital Energies [Eh]
    ---------------------

    Doubly Occupied:

       1A    -20.294810     2A    -20.290806     3A    -11.135285
       4A    -11.072884     5A    -11.066779     6A    -11.061468
       7A     -1.159499     8A     -1.061568     9A     -0.903974
      10A     -0.779116    11A     -0.675947    12A     -0.527503
      13A     -0.462220    14A     -0.447141    15A     -0.419317
      16A     -0.393111    17A     -0.391347    18A     -0.367827
      19A     -0.349128    20A     -0.324400    21A     -0.305011
      22A     -0.209515    23A     -0.192978    24A     -0.191508

  @DF-RHF Final Energy:  -305.42008880933423

   => Energetics <=

    Nuclear Repulsion Energy =            236.1166463018238630
    One-Electron Energy =                -894.9071847043720709
    Two-Electron Energy =                 353.3704495932140048
    Total Energy =                       -305.4200888093342314
  Basis Set: (AUG-CC-PVTZ AUX)
    Blend: AUG-CC-PVTZ-RI
    Molecular point group: c1

    Geometry (in Angstrom), charge = -1, multiplicity = 1:

       Center              X                  Y                   Z               Mass
    ------------   -----------------  -----------------  -----------------  -----------------
         O            0.977382305824    -0.983636133784     0.859405036629    15.994914619570
         O            1.642374305824     0.638765266216    -0.617062463371    15.994914619570
         C           -0.660991694176     0.239399566216    -0.441666263371    12.000000000000
         C           -1.225015694176     1.268893866216     0.542641036629    12.000000000000
         C           -1.551268694176    -1.048779133784    -0.383258963371    12.000000000000
         C            0.790875305824    -0.093864133784    -0.025729963371    12.000000000000
         H           -0.673942694176     0.617092866216    -1.423746963371     1.007825032230
         H           -0.609959694176     2.173691866216     0.502738036629     1.007825032230
         H           -2.256341694176     1.544931866216     0.293360036629     1.007825032230
         H           -1.212541694176     0.892337866216     1.571075036629     1.007825032230
         H           -1.158541694176    -1.820048133784    -1.054094963371     1.007825032230
         H           -2.577999694176    -0.820524133784    -0.693431963371     1.007825032230
         H           -1.577870694176    -1.467865133784     0.625420036629     1.007825032230

  Basis Set: AUG-CC-PVTZ
    Blend: AUG-CC-PVTZ
  Basis Set: (AUG-CC-PVTZ AUX)
    Blend: AUG-CC-PVTZ-JKFIT
	 Reference Energy          =    -305.4200888093342314 [Eh]
	 Singles Energy            =      -0.0000000000000000 [Eh]
	 Same-Spin Energy          =      -0.3097827979192170 [Eh]
	 Opposite-Spin Energy      =      -0.9865825345445813 [Eh]
	 Correlation Energy        =      -1.2963653324637985 [Eh]
	 Total Energy              =    -306.7164541417980104 [Eh]

	 ================> DF-SCS-MP2 Energies <==================
	-----------------------------------------------------------
	 SCS Same-Spin Scale       =       0.3333333333333333 [-]
	 SCS Opposite-Spin Scale   =       1.2000000000000000 [-]
	 SCS Same-Spin Energy      =      -0.1032609326397390 [Eh]
	 SCS Opposite-Spin Energy  =      -1.1838990414534976 [Eh]
	 SCS Correlation Energy    =      -1.2871599740932367 [Eh]
	 SCS Total Energy          =    -306.7072487834274739 [Eh]
	-----------------------------------------------------------

  Dipole Moment: [D]
     X:    -5.5883      Y:     0.8104      Z:    -0.6864     Total:     5.6884

*** Psi4 exiting successfully. Buy a developer a beer!
