                               Psi4 1.3.2 release

  ==> Input File <==

--------------------------------------------------------------------------
#psi4
#
memory 32 gb

molecule  {
-1 1
  O        1.0802400    -0.9868790     0.8533170
  O        1.7774660     0.6142500    -0.6014300
  C       -0.5755730     0.1974970    -0.4143540
  C       -1.1250864     1.2822652     0.5158316
  C       -1.4484110    -1.0520220    -0.3893470
  C        0.8937330    -0.0971070    -0.0318180
  H       -0.5782564     0.6302317    -1.4229694
  H       -0.5071020     2.1704490     0.4966500
  H       -2.1534840     1.5416890     0.2872720
  H       -1.1096840     0.8890950     1.5649870
  H       -1.0556840    -1.8232910    -1.0601830
  H       -2.4751420    -0.8237670    -0.6995200
  H       -1.4750130    -1.4711080     0.6193320
units angstrom
no_reorient  #important for SAPT in psi4, default
symmetry c1  #important for SAPT in psi4, default
}

set PROPERTIES_ORIGIN ["COM"]
properties('MP2/aug-cc-pvtz', properties = ['dipole'])
--------------------------------------------------------------------------

    Molecular point group: c1
  Charge       = -1
  Multiplicity = 1
  Basis Set: AUG-CC-PVTZ
    Blend: AUG-CC-PVTZ
  Basis Set: (AUG-CC-PVTZ AUX)
    Blend: AUG-CC-PVTZ-JKFIT

    Orbital Energies [Eh]
    ---------------------

    Doubly Occupied:

       1A    -20.291401     2A    -20.290686     3A    -11.134649
       4A    -11.073902     5A    -11.068195     6A    -11.065160
       7A     -1.159219     8A     -1.057899     9A     -0.909827
      10A     -0.784649    11A     -0.673573    12A     -0.522822
      13A     -0.466494    14A     -0.450664    15A     -0.423891
      16A     -0.393276    17A     -0.385892    18A     -0.370730
      19A     -0.349818    20A     -0.321675    21A     -0.305780
      22A     -0.205646    23A     -0.195955    24A     -0.189925

  @DF-RHF Final Energy:  -305.42215147445290

   => Energetics <=

    Nuclear Repulsion Energy =            236.1672249429543911
    One-Electron Energy =                -894.9952964212009192
    Two-Electron Energy =                 353.4059200037936534
    Total Energy =                       -305.4221514744529031
  Basis Set: (AUG-CC-PVTZ AUX)
    Blend: AUG-CC-PVTZ-RI
    Molecular point group: c1

    Geometry (in Angstrom), charge = -1, multiplicity = 1:

       Center              X                  Y                   Z               Mass
    ------------   -----------------  -----------------  -----------------  -----------------
         O            0.974350024122    -0.976877686916     0.853586368492    15.994914619570
         O            1.671576024122     0.624251313084    -0.601160631508    15.994914619570
         C           -0.681462975878     0.207498313084    -0.414084631508    12.000000000000
         C           -1.230976375878     1.292266513084     0.516100968492    12.000000000000
         C           -1.554300975878    -1.042020686916    -0.389077631508    12.000000000000
         C            0.787843024122    -0.087105686916    -0.031548631508    12.000000000000
         H           -0.684146375878     0.640233013084    -1.422700031508     1.007825032230
         H           -0.612991975878     2.180450313084     0.496919368492     1.007825032230
         H           -2.259373975878     1.551690313084     0.287541368492     1.007825032230
         H           -1.215573975878     0.899096313084     1.565256368492     1.007825032230
         H           -1.161573975878    -1.813289686916    -1.059913631508     1.007825032230
         H           -2.581031975878    -0.813765686916    -0.699250631508     1.007825032230
         H           -1.580902975878    -1.461106686916     0.619601368492     1.007825032230

  Basis Set: AUG-CC-PVTZ
    Blend: AUG-CC-PVTZ
  Basis Set: (AUG-CC-PVTZ AUX)
    Blend: AUG-CC-PVTZ-JKFIT
	 Reference Energy          =    -305.4221514744529031 [Eh]
	 Singles Energy            =      -0.0000000000000000 [Eh]
	 Same-Spin Energy          =      -0.3099059136395096 [Eh]
	 Opposite-Spin Energy      =      -0.9866199529015152 [Eh]
	 Correlation Energy        =      -1.2965258665410249 [Eh]
	 Total Energy              =    -306.7186773409939065 [Eh]

	 ================> DF-SCS-MP2 Energies <==================
	-----------------------------------------------------------
	 SCS Same-Spin Scale       =       0.3333333333333333 [-]
	 SCS Opposite-Spin Scale   =       1.2000000000000000 [-]
	 SCS Same-Spin Energy      =      -0.1033019712131699 [Eh]
	 SCS Opposite-Spin Energy  =      -1.1839439434818182 [Eh]
	 SCS Correlation Energy    =      -1.2872459146949882 [Eh]
	 SCS Total Energy          =    -306.7093973891479095 [Eh]
	-----------------------------------------------------------

  Dipole Moment: [D]
     X:    -5.7278      Y:     0.8029      Z:    -0.7199     Total:     5.8284

*** Psi4 exiting successfully. Buy a developer a beer!
