                               Psi4 1.3.2 release

  ==> Input File <==

--------------------------------------------------------------------------
#psi4
#
memory 32 gb

molecule  {
-1 1
  O        1.0802400    -0.9868790     0.8533170
  O        1.7774660     0.6142500    -0.6014300
  C       -0.5755730     0.1974970    -0.4143540
  C       -1.1221580     1.2656510     0.5365530
  C       -1.4484110    -1.0520220    -0.3893470
  C        0.8643349     0.0431432    -0.1713373
  H       -0.5710850     0.6138500    -1.4298350
  H       -0.5071020     2.1704490     0.4966500
  H       -2.1534840     1.5416890     0.2872720
  H       -1.1096840     0.8890950     1.5649870
  H       -1.0556840    -1.8232910    -1.0601830
  H       -2.4751420    -0.8237670    -0.6995200
  H       -1.4750130    -1.4711080     0.6193320
units angstrom
no_reorient  #important for SAPT in psi4, default
symmetry c1  #important for SAPT in psi4, default
}

set PROPERTIES_ORIGIN ["COM"]
properties('MP2/aug-cc-pvtz', properties = ['dipole'])
--------------------------------------------------------------------------

    Molecular point group: c1
  Charge       = -1
  Multiplicity = 1
  Basis Set: AUG-CC-PVTZ
    Blend: AUG-CC-PVTZ
  Basis Set: (AUG-CC-PVTZ AUX)
    Blend: AUG-CC-PVTZ-JKFIT

    Orbital Energies [Eh]
    ---------------------

    Doubly Occupied:

       1A    -20.328707     2A    -20.248642     3A    -11.134454
       4A    -11.080359     5A    -11.073890     6A    -11.070806
       7A     -1.216963     8A     -0.979739     9A     -0.914684
      10A     -0.788018    11A     -0.702561    12A     -0.527046
      13A     -0.479913    14A     -0.463317    15A     -0.430651
      16A     -0.398547    17A     -0.391358    18A     -0.375874
      19A     -0.361088    20A     -0.325490    21A     -0.313723
      22A     -0.187913    23A     -0.165555    24A     -0.158185

  @DF-RHF Final Energy:  -305.36985700958616

   => Energetics <=

    Nuclear Repulsion Energy =            236.3630806624176728
    One-Electron Energy =                -895.2309045958704701
    Two-Electron Energy =                 353.4979669238666133
    Total Energy =                       -305.3698570095861555
  Basis Set: (AUG-CC-PVTZ AUX)
    Blend: AUG-CC-PVTZ-RI
    Molecular point group: c1

    Geometry (in Angstrom), charge = -1, multiplicity = 1:

       Center              X                  Y                   Z               Mass
    ------------   -----------------  -----------------  -----------------  -----------------
         O            0.977916114007    -0.993732518087     0.870043380760    15.994914619570
         O            1.675142114007     0.607396481913    -0.584703619240    15.994914619570
         C           -0.677896885993     0.190643481913    -0.397627619240    12.000000000000
         C           -1.224481885993     1.258797481913     0.553279380760    12.000000000000
         C           -1.550734885993    -1.058875518087    -0.372620619240    12.000000000000
         C            0.762011014007     0.036289681913    -0.154610919240    12.000000000000
         H           -0.673408885993     0.606996481913    -1.413108619240     1.007825032230
         H           -0.609425885993     2.163595481913     0.513376380760     1.007825032230
         H           -2.255807885993     1.534835481913     0.303998380760     1.007825032230
         H           -1.212007885993     0.882241481913     1.581713380760     1.007825032230
         H           -1.158007885993    -1.830144518087    -1.043456619240     1.007825032230
         H           -2.577465885993    -0.830620518087    -0.682793619240     1.007825032230
         H           -1.577336885993    -1.477961518087     0.636058380760     1.007825032230

  Basis Set: AUG-CC-PVTZ
    Blend: AUG-CC-PVTZ
  Basis Set: (AUG-CC-PVTZ AUX)
    Blend: AUG-CC-PVTZ-JKFIT
	 Reference Energy          =    -305.3698570095861555 [Eh]
	 Singles Energy            =      -0.0000000000000000 [Eh]
	 Same-Spin Energy          =      -0.3118517940923499 [Eh]
	 Opposite-Spin Energy      =      -0.9913737445229265 [Eh]
	 Correlation Energy        =      -1.3032255386152762 [Eh]
	 Total Energy              =    -306.6730825482014211 [Eh]

	 ================> DF-SCS-MP2 Energies <==================
	-----------------------------------------------------------
	 SCS Same-Spin Scale       =       0.3333333333333333 [-]
	 SCS Opposite-Spin Scale   =       1.2000000000000000 [-]
	 SCS Same-Spin Energy      =      -0.1039505980307833 [Eh]
	 SCS Opposite-Spin Energy  =      -1.1896484934275118 [Eh]
	 SCS Correlation Energy    =      -1.2935990914582951 [Eh]
	 SCS Total Energy          =    -306.6634561010444600 [Eh]
	-----------------------------------------------------------

  Dipole Moment: [D]
     X:    -5.7130      Y:     2.1695      Z:    -1.9427     Total:     6.4124

*** Psi4 exiting successfully. Buy a developer a beer!
