                               Psi4 1.3.2 release

  ==> Input File <==

--------------------------------------------------------------------------
#psi4
#
memory 32 gb

molecule  {
-1 1
  O        1.0363717    -0.9923775     0.8559252
  O        1.7774660     0.6142500    -0.6014300
  C       -0.5913500     0.1601535    -0.3787055
  C       -1.1221580     1.2656510     0.5365530
  C       -1.4484110    -1.0520220    -0.3893470
  C        0.8937330    -0.0971070    -0.0318180
  H       -0.5710850     0.6138500    -1.4298350
  H       -0.5071020     2.1704490     0.4966500
  H       -2.1534840     1.5416890     0.2872720
  H       -1.1096840     0.8890950     1.5649870
  H       -1.0556840    -1.8232910    -1.0601830
  H       -2.4751420    -0.8237670    -0.6995200
  H       -1.4750130    -1.4711080     0.6193320
units angstrom
no_reorient  #important for SAPT in psi4, default
symmetry c1  #important for SAPT in psi4, default
}

set PROPERTIES_ORIGIN ["COM"]
properties('MP2/aug-cc-pvtz', properties = ['dipole'])
--------------------------------------------------------------------------

    Molecular point group: c1
  Charge       = -1
  Multiplicity = 1
  Basis Set: AUG-CC-PVTZ
    Blend: AUG-CC-PVTZ
  Basis Set: (AUG-CC-PVTZ AUX)
    Blend: AUG-CC-PVTZ-JKFIT

    Orbital Energies [Eh]
    ---------------------

    Doubly Occupied:

       1A    -20.294666     2A    -20.291842     3A    -11.135933
       4A    -11.073207     5A    -11.065874     6A    -11.064719
       7A     -1.160093     8A     -1.062121     9A     -0.912864
      10A     -0.786891    11A     -0.669250    12A     -0.518010
      13A     -0.470122    14A     -0.450724    15A     -0.424184
      16A     -0.393893    17A     -0.389869    18A     -0.371328
      19A     -0.350312    20A     -0.323807    21A     -0.296537
      22A     -0.209077    23A     -0.193384    24A     -0.192703

  @DF-RHF Final Energy:  -305.41853873697454

   => Energetics <=

    Nuclear Repulsion Energy =            236.8279910500779124
    One-Electron Energy =                -896.2902372543504725
    Two-Electron Energy =                 354.0437074672980202
    Total Energy =                       -305.4185387369745399
  Basis Set: (AUG-CC-PVTZ AUX)
    Blend: AUG-CC-PVTZ-RI
    Molecular point group: c1

    Geometry (in Angstrom), charge = -1, multiplicity = 1:

       Center              X                  Y                   Z               Mass
    ------------   -----------------  -----------------  -----------------  -----------------
         O            0.940231040599    -0.973737508734     0.848023615023    15.994914619570
         O            1.681325340599     0.632889991266    -0.609331584977    15.994914619570
         C           -0.687490659401     0.178793491266    -0.386607084977    12.000000000000
         C           -1.218298659401     1.284290991266     0.528651415023    12.000000000000
         C           -1.544551659401    -1.033382008734    -0.397248584977    12.000000000000
         C            0.797592340599    -0.078467008734    -0.039719584977    12.000000000000
         H           -0.667225659401     0.632489991266    -1.437736584977     1.007825032230
         H           -0.603242659401     2.189088991266     0.488748415023     1.007825032230
         H           -2.249624659401     1.560328991266     0.279370415023     1.007825032230
         H           -1.205824659401     0.907734991266     1.557085415023     1.007825032230
         H           -1.151824659401    -1.804651008734    -1.068084584977     1.007825032230
         H           -2.571282659401    -0.805127008734    -0.707421584977     1.007825032230
         H           -1.571153659401    -1.452468008734     0.611430415023     1.007825032230

  Basis Set: AUG-CC-PVTZ
    Blend: AUG-CC-PVTZ
  Basis Set: (AUG-CC-PVTZ AUX)
    Blend: AUG-CC-PVTZ-JKFIT
	 Reference Energy          =    -305.4185387369745399 [Eh]
	 Singles Energy            =      -0.0000000000000000 [Eh]
	 Same-Spin Energy          =      -0.3104110678438838 [Eh]
	 Opposite-Spin Energy      =      -0.9873291495822148 [Eh]
	 Correlation Energy        =      -1.2977402174260986 [Eh]
	 Total Energy              =    -306.7162789544006500 [Eh]

	 ================> DF-SCS-MP2 Energies <==================
	-----------------------------------------------------------
	 SCS Same-Spin Scale       =       0.3333333333333333 [-]
	 SCS Opposite-Spin Scale   =       1.2000000000000000 [-]
	 SCS Same-Spin Energy      =      -0.1034703559479613 [Eh]
	 SCS Opposite-Spin Energy  =      -1.1847949794986579 [Eh]
	 SCS Correlation Energy    =      -1.2882653354466191 [Eh]
	 SCS Total Energy          =    -306.7068040724211642 [Eh]
	-----------------------------------------------------------

  Dipole Moment: [D]
     X:    -5.6047      Y:     0.7280      Z:    -0.6375     Total:     5.6876

*** Psi4 exiting successfully. Buy a developer a beer!
