                               Psi4 1.3.2 release

  ==> Input File <==

--------------------------------------------------------------------------
#psi4
#
memory 32 gb

molecule  {
-1 1
  O        1.0802400    -0.9868790     0.8533170
  O        1.7774660     0.6142500    -0.6014300
  C       -0.5755730     0.1974970    -0.4143540
  C       -1.1103500     1.2660570     0.5427904
  C       -1.4484110    -1.0520220    -0.3893470
  C        0.8929013    -0.0880260    -0.0218680
  H       -0.5710850     0.6138500    -1.4298350
  H       -0.5071020     2.1704490     0.4966500
  H       -2.1534840     1.5416890     0.2872720
  H       -1.1096840     0.8890950     1.5649870
  H       -1.0556840    -1.8232910    -1.0601830
  H       -2.4751420    -0.8237670    -0.6995200
  H       -1.4750130    -1.4711080     0.6193320
units angstrom
no_reorient  #important for SAPT in psi4, default
symmetry c1  #important for SAPT in psi4, default
}

set PROPERTIES_ORIGIN ["COM"]
properties('MP2/aug-cc-pvtz', properties = ['dipole'])
--------------------------------------------------------------------------

    Molecular point group: c1
  Charge       = -1
  Multiplicity = 1
  Basis Set: AUG-CC-PVTZ
    Blend: AUG-CC-PVTZ
  Basis Set: (AUG-CC-PVTZ AUX)
    Blend: AUG-CC-PVTZ-JKFIT

    Orbital Energies [Eh]
    ---------------------

    Doubly Occupied:

       1A    -20.291157     2A    -20.290458     3A    -11.134153
       4A    -11.074039     5A    -11.068034     6A    -11.065032
       7A     -1.159188     8A     -1.057844     9A     -0.909899
      10A     -0.784554    11A     -0.673473    12A     -0.522976
      13A     -0.467529    14A     -0.448829    15A     -0.421493
      16A     -0.393297    17A     -0.390023    18A     -0.368940
      19A     -0.348845    20A     -0.321952    21A     -0.308662
      22A     -0.205453    23A     -0.194923    24A     -0.189963

  @DF-RHF Final Energy:  -305.42290196747950

   => Energetics <=

    Nuclear Repulsion Energy =            236.3213162135043319
    One-Electron Energy =                -895.3070006947941692
    Two-Electron Energy =                 353.5627825138103049
    Total Energy =                       -305.4229019674795040
  Basis Set: (AUG-CC-PVTZ AUX)
    Blend: AUG-CC-PVTZ-RI
    Molecular point group: c1

    Geometry (in Angstrom), charge = -1, multiplicity = 1:

       Center              X                  Y                   Z               Mass
    ------------   -----------------  -----------------  -----------------  -----------------
         O            0.972350084924    -0.975705457023     0.848577599951    15.994914619570
         O            1.669576084924     0.625423542977    -0.606169400049    15.994914619570
         C           -0.683462915076     0.208670542977    -0.419093400049    12.000000000000
         C           -1.218239915076     1.277230542977     0.538050999951    12.000000000000
         C           -1.556300915076    -1.040848457023    -0.394086400049    12.000000000000
         C            0.785011384924    -0.076852457023    -0.026607400049    12.000000000000
         H           -0.678974915076     0.625023542977    -1.434574400049     1.007825032230
         H           -0.614991915076     2.181622542977     0.491910599951     1.007825032230
         H           -2.261373915076     1.552862542977     0.282532599951     1.007825032230
         H           -1.217573915076     0.900268542977     1.560247599951     1.007825032230
         H           -1.163573915076    -1.812117457023    -1.064922400049     1.007825032230
         H           -2.583031915076    -0.812593457023    -0.704259400049     1.007825032230
         H           -1.582902915076    -1.459934457023     0.614592599951     1.007825032230

  Basis Set: AUG-CC-PVTZ
    Blend: AUG-CC-PVTZ
  Basis Set: (AUG-CC-PVTZ AUX)
    Blend: AUG-CC-PVTZ-JKFIT
	 Reference Energy          =    -305.4229019674795040 [Eh]
	 Singles Energy            =      -0.0000000000000000 [Eh]
	 Same-Spin Energy          =      -0.3098807395855800 [Eh]
	 Opposite-Spin Energy      =      -0.9865424147255215 [Eh]
	 Correlation Energy        =      -1.2964231543111016 [Eh]
	 Total Energy              =    -306.7193251217906322 [Eh]

	 ================> DF-SCS-MP2 Energies <==================
	-----------------------------------------------------------
	 SCS Same-Spin Scale       =       0.3333333333333333 [-]
	 SCS Opposite-Spin Scale   =       1.2000000000000000 [-]
	 SCS Same-Spin Energy      =      -0.1032935798618600 [Eh]
	 SCS Opposite-Spin Energy  =      -1.1838508976706257 [Eh]
	 SCS Correlation Energy    =      -1.2871444775324856 [Eh]
	 SCS Total Energy          =    -306.7100464450119830 [Eh]
	-----------------------------------------------------------

  Dipole Moment: [D]
     X:    -5.7051      Y:     0.7850      Z:    -0.6811     Total:     5.7990

*** Psi4 exiting successfully. Buy a developer a beer!
