                               Psi4 1.3.2 release

  ==> Input File <==

--------------------------------------------------------------------------
#psi4
#
memory 32 gb

molecule  {
-1 1
  O        1.0802400    -0.9868790     0.8533170
  O        1.7774660     0.6142500    -0.6014300
  C       -0.5755730     0.1974970    -0.4143540
  C       -1.1221580     1.2656510     0.5365530
  C       -1.4484110    -1.0520220    -0.3893470
  C        0.8241169    -0.1531442     0.0130532
  H       -0.5710850     0.6138500    -1.4298350
  H       -0.5071020     2.1704490     0.4966500
  H       -2.1534840     1.5416890     0.2872720
  H       -1.1096840     0.8890950     1.5649870
  H       -1.0556840    -1.8232910    -1.0601830
  H       -2.4751420    -0.8237670    -0.6995200
  H       -1.4750130    -1.4711080     0.6193320
units angstrom
no_reorient  #important for SAPT in psi4, default
symmetry c1  #important for SAPT in psi4, default
}

set PROPERTIES_ORIGIN ["COM"]
properties('MP2/aug-cc-pvtz', properties = ['dipole'])
--------------------------------------------------------------------------

    Molecular point group: c1
  Charge       = -1
  Multiplicity = 1
  Basis Set: AUG-CC-PVTZ
    Blend: AUG-CC-PVTZ
  Basis Set: (AUG-CC-PVTZ AUX)
    Blend: AUG-CC-PVTZ-JKFIT

    Orbital Energies [Eh]
    ---------------------

    Doubly Occupied:

       1A    -20.310161     2A    -20.268667     3A    -11.134233
       4A    -11.077338     5A    -11.072016     6A    -11.068807
       7A     -1.178077     8A     -1.019620     9A     -0.917800
      10A     -0.788822    11A     -0.683086    12A     -0.533745
      13A     -0.469995    14A     -0.455174    15A     -0.427306
      16A     -0.398472    17A     -0.384258    18A     -0.368859
      19A     -0.352097    20A     -0.324461    21A     -0.311853
      22A     -0.204375    23A     -0.184337    24A     -0.176524

  @DF-RHF Final Energy:  -305.40653866904518

   => Energetics <=

    Nuclear Repulsion Energy =            236.5417738283563835
    One-Electron Energy =                -895.6764533617118786
    Two-Electron Energy =                 353.7281408643102623
    Total Energy =                       -305.4065386690451760
  Basis Set: (AUG-CC-PVTZ AUX)
    Blend: AUG-CC-PVTZ-RI
    Molecular point group: c1

    Geometry (in Angstrom), charge = -1, multiplicity = 1:

       Center              X                  Y                   Z               Mass
    ------------   -----------------  -----------------  -----------------  -----------------
         O            0.983460581731    -0.966672267604     0.844623241125    15.994914619570
         O            1.680686581731     0.634456732396    -0.610123758875    15.994914619570
         C           -0.672352418269     0.217703732396    -0.423047758875    12.000000000000
         C           -1.218937418269     1.285857732396     0.527859241125    12.000000000000
         C           -1.545190418269    -1.031815267604    -0.398040758875    12.000000000000
         C            0.727337481731    -0.132937467604     0.004359441125    12.000000000000
         H           -0.667864418269     0.634056732396    -1.438528758875     1.007825032230
         H           -0.603881418269     2.190655732396     0.487956241125     1.007825032230
         H           -2.250263418269     1.561895732396     0.278578241125     1.007825032230
         H           -1.206463418269     0.909301732396     1.556293241125     1.007825032230
         H           -1.152463418269    -1.803084267604    -1.068876758875     1.007825032230
         H           -2.571921418269    -0.803560267604    -0.708213758875     1.007825032230
         H           -1.571792418269    -1.450901267604     0.610638241125     1.007825032230

  Basis Set: AUG-CC-PVTZ
    Blend: AUG-CC-PVTZ
  Basis Set: (AUG-CC-PVTZ AUX)
    Blend: AUG-CC-PVTZ-JKFIT
	 Reference Energy          =    -305.4065386690451760 [Eh]
	 Singles Energy            =      -0.0000000000000000 [Eh]
	 Same-Spin Energy          =      -0.3107893868771803 [Eh]
	 Opposite-Spin Energy      =      -0.9886302990415483 [Eh]
	 Correlation Energy        =      -1.2994196859187286 [Eh]
	 Total Energy              =    -306.7059583549639115 [Eh]

	 ================> DF-SCS-MP2 Energies <==================
	-----------------------------------------------------------
	 SCS Same-Spin Scale       =       0.3333333333333333 [-]
	 SCS Opposite-Spin Scale   =       1.2000000000000000 [-]
	 SCS Same-Spin Energy      =      -0.1035964622923934 [Eh]
	 SCS Opposite-Spin Energy  =      -1.1863563588498580 [Eh]
	 SCS Correlation Energy    =      -1.2899528211422515 [Eh]
	 SCS Total Energy          =    -306.6964914901874408 [Eh]
	-----------------------------------------------------------

  Dipole Moment: [D]
     X:    -6.3329      Y:     0.1974      Z:    -0.1515     Total:     6.3378

*** Psi4 exiting successfully. Buy a developer a beer!
