                               Psi4 1.4a3.dev225

  ==> Input File <==

--------------------------------------------------------------------------
#psi4
#
memory 32 gb

molecule  {
-1 1
  O       -1.0485690    -0.0000230     1.2804550
  O       -1.8085780     0.0000120    -0.8608380
  C        0.5680610     0.0000050    -0.4771230
  C        1.2889140    -1.2559050     0.0104430
  C        1.2889010     1.2559130     0.0104710
  C       -0.8977841    -0.0000043     0.0393550
  H        0.5489340     0.0000180    -1.5740110
  H        0.7977980    -2.1625660    -0.3602090
  H        2.3325250    -1.2756680    -0.3244140
  H        1.2723070    -1.2837030     1.1032290
  H        0.7977740     2.1625770    -0.3601580
  H        2.3325120     1.2756960    -0.3243870
  H        1.2722960     1.2836850     1.1032580
units angstrom
no_reorient  #important for SAPT in psi4, default
symmetry c1  #important for SAPT in psi4, default
}

set PROPERTIES_ORIGIN ["COM"]
properties('MP2/aug-cc-pvtz', properties = ['dipole'])
--------------------------------------------------------------------------

    Molecular point group: c1
  Charge       = -1
  Multiplicity = 1
  Basis Set: AUG-CC-PVTZ
    Blend: AUG-CC-PVTZ
  Basis Set: (AUG-CC-PVTZ AUX)
    Blend: AUG-CC-PVTZ-JKFIT

    Orbital Energies [Eh]
    ---------------------

    Doubly Occupied:

       1A    -20.294581     2A    -20.288307     3A    -11.133882
       4A    -11.071013     5A    -11.070996     6A    -11.063875
       7A     -1.163176     8A     -1.059157     9A     -0.909483
      10A     -0.784550    11A     -0.671167    12A     -0.522885
      13A     -0.467955    14A     -0.448813    15A     -0.421136
      16A     -0.393516    17A     -0.392679    18A     -0.371199
      19A     -0.350228    20A     -0.318183    21A     -0.311398
      22A     -0.207383    23A     -0.192769    24A     -0.190845

  @DF-RHF Final Energy:  -305.42325752661986

   => Energetics <=

    Nuclear Repulsion Energy =            236.3713698033757282
    One-Electron Energy =                -895.3909027535543146
    Two-Electron Energy =                 353.5962754235587227
    Total Energy =                       -305.4232575266198637
  Basis Set: (AUG-CC-PVTZ AUX)
    Blend: AUG-CC-PVTZ-RI
    Molecular point group: c1

    Geometry (in Angstrom), charge = -1, multiplicity = 1:

       Center              X                  Y                   Z               Mass
    ------------   -----------------  -----------------  -----------------  -----------------
         O           -0.941780335915    -0.000022629628     1.269345368849    15.994914619570
         O           -1.701789335915     0.000012370372    -0.871947631151    15.994914619570
         C            0.674849664085     0.000005370372    -0.488232631151    12.000000000000
         C            1.395702664085    -1.255904629628    -0.000666631151    12.000000000000
         C            1.395689664085     1.255913370372    -0.000638631151    12.000000000000
         C           -0.790995435915    -0.000003929628     0.028245368849    12.000000000000
         H            0.655722664085     0.000018370372    -1.585120631151     1.007825032230
         H            0.904586664085    -2.162565629628    -0.371318631151     1.007825032230
         H            2.439313664085    -1.275667629628    -0.335523631151     1.007825032230
         H            1.379095664085    -1.283702629628     1.092119368849     1.007825032230
         H            0.904562664085     2.162577370372    -0.371267631151     1.007825032230
         H            2.439300664085     1.275696370372    -0.335496631151     1.007825032230
         H            1.379084664085     1.283685370372     1.092148368849     1.007825032230

  Basis Set: AUG-CC-PVTZ
    Blend: AUG-CC-PVTZ
  Basis Set: (AUG-CC-PVTZ AUX)
    Blend: AUG-CC-PVTZ-JKFIT
	 Reference Energy          =    -305.4232575266198637 [Eh]
	 Singles Energy            =      -0.0000000000000000 [Eh]
	 Same-Spin Energy          =      -0.3098346194015812 [Eh]
	 Opposite-Spin Energy      =      -0.9863188505773604 [Eh]
	 Correlation Energy        =      -1.2961534699789414 [Eh]
	 Total Energy              =    -306.7194109965988105 [Eh]

	 ================> DF-SCS-MP2 Energies <==================
	-----------------------------------------------------------
	 SCS Same-Spin Scale       =       0.3333333333333333 [-]
	 SCS Opposite-Spin Scale   =       1.2000000000000000 [-]
	 SCS Same-Spin Energy      =      -0.1032782064671937 [Eh]
	 SCS Opposite-Spin Energy  =      -1.1835826206928324 [Eh]
	 SCS Correlation Energy    =      -1.2868608271600261 [Eh]
	 SCS Total Energy          =    -306.7101183537798761 [Eh]
	-----------------------------------------------------------

  Dipole Moment: [D]
     X:     5.7350      Y:     0.0000      Z:    -0.8251     Total:     5.7941

*** Psi4 exiting successfully. Buy a developer a beer!
