                               Psi4 1.3.2 release

  ==> Input File <==

--------------------------------------------------------------------------
#psi4
#
memory 32 gb

molecule  {
-1 1
  O        1.1020126    -0.9829365     0.8524154
  O        1.7930942     0.6040548    -0.5894848
  C       -0.5755730     0.1974970    -0.4143540
  C       -1.1221580     1.2656510     0.5365530
  C       -1.4484110    -1.0520220    -0.3893470
  C        0.8937330    -0.0971070    -0.0318180
  H       -0.5710850     0.6138500    -1.4298350
  H       -0.5071020     2.1704490     0.4966500
  H       -2.1534840     1.5416890     0.2872720
  H       -1.1096840     0.8890950     1.5649870
  H       -1.0556840    -1.8232910    -1.0601830
  H       -2.4751420    -0.8237670    -0.6995200
  H       -1.4750130    -1.4711080     0.6193320
units angstrom
no_reorient  #important for SAPT in psi4, default
symmetry c1  #important for SAPT in psi4, default
}

set PROPERTIES_ORIGIN ["COM"]
properties('MP2/aug-cc-pvtz', properties = ['dipole'])
--------------------------------------------------------------------------

    Molecular point group: c1
  Charge       = -1
  Multiplicity = 1
  Basis Set: AUG-CC-PVTZ
    Blend: AUG-CC-PVTZ
  Basis Set: (AUG-CC-PVTZ AUX)
    Blend: AUG-CC-PVTZ-JKFIT

    Orbital Energies [Eh]
    ---------------------

    Doubly Occupied:

       1A    -20.289219     2A    -20.288608     3A    -11.133353
       4A    -11.075159     5A    -11.069220     6A    -11.067475
       7A     -1.158819     8A     -1.053916     9A     -0.911622
      10A     -0.785456    11A     -0.675303    12A     -0.523388
      13A     -0.467600    14A     -0.448787    15A     -0.422848
      16A     -0.394645    17A     -0.388004    18A     -0.370318
      19A     -0.348866    20A     -0.321954    21A     -0.308793
      22A     -0.201953    23A     -0.197270    24A     -0.187377

  @DF-RHF Final Energy:  -305.42252413988274

   => Energetics <=

    Nuclear Repulsion Energy =            236.0625167672707505
    One-Electron Energy =                -894.7901800617939898
    Two-Electron Energy =                 353.3051391546405284
    Total Energy =                       -305.4225241398827393
  Basis Set: (AUG-CC-PVTZ AUX)
    Blend: AUG-CC-PVTZ-RI
    Molecular point group: c1

    Geometry (in Angstrom), charge = -1, multiplicity = 1:

       Center              X                  Y                   Z               Mass
    ------------   -----------------  -----------------  -----------------  -----------------
         O            0.988763283206    -0.969306108561     0.847878279702    15.994914619570
         O            1.679844883206     0.617685191439    -0.594021920298    15.994914619570
         C           -0.688822316794     0.211127391439    -0.418891120298    12.000000000000
         C           -1.235407316794     1.279281391439     0.532015879702    12.000000000000
         C           -1.561660316794    -1.038391608561    -0.393884120298    12.000000000000
         C            0.780483683206    -0.083476608561    -0.036355120298    12.000000000000
         H           -0.684334316794     0.627480391439    -1.434372120298     1.007825032230
         H           -0.620351316794     2.184079391439     0.492112879702     1.007825032230
         H           -2.266733316794     1.555319391439     0.282734879702     1.007825032230
         H           -1.222933316794     0.902725391439     1.560449879702     1.007825032230
         H           -1.168933316794    -1.809660608561    -1.064720120298     1.007825032230
         H           -2.588391316794    -0.810136608561    -0.704057120298     1.007825032230
         H           -1.588262316794    -1.457477608561     0.614794879702     1.007825032230

  Basis Set: AUG-CC-PVTZ
    Blend: AUG-CC-PVTZ
  Basis Set: (AUG-CC-PVTZ AUX)
    Blend: AUG-CC-PVTZ-JKFIT
	 Reference Energy          =    -305.4225241398827393 [Eh]
	 Singles Energy            =      -0.0000000000000000 [Eh]
	 Same-Spin Energy          =      -0.3098108045721218 [Eh]
	 Opposite-Spin Energy      =      -0.9864813814037636 [Eh]
	 Correlation Energy        =      -1.2962921859758856 [Eh]
	 Total Energy              =    -306.7188163258585973 [Eh]

	 ================> DF-SCS-MP2 Energies <==================
	-----------------------------------------------------------
	 SCS Same-Spin Scale       =       0.3333333333333333 [-]
	 SCS Opposite-Spin Scale   =       1.2000000000000000 [-]
	 SCS Same-Spin Energy      =      -0.1032702681907073 [Eh]
	 SCS Opposite-Spin Energy  =      -1.1837776576845163 [Eh]
	 SCS Correlation Energy    =      -1.2870479258752234 [Eh]
	 SCS Total Energy          =    -306.7095720657579818 [Eh]
	-----------------------------------------------------------

  Dipole Moment: [D]
     X:    -5.8326      Y:     0.8053      Z:    -0.7178     Total:     5.9315

*** Psi4 exiting successfully. Buy a developer a beer!
