                               Psi4 1.3.2 release

  ==> Input File <==

--------------------------------------------------------------------------
#psi4
#
memory 32 gb

molecule  {
-1 1
  O        1.0802400    -0.9868790     0.8533170
  O        1.7774660     0.6142500    -0.6014300
  C       -0.5755730     0.1974970    -0.4143540
  C       -1.1339244     1.2651637     0.5302432
  C       -1.4484110    -1.0520220    -0.3893470
  C        0.8944528    -0.1061656    -0.0417971
  H       -0.5710850     0.6138500    -1.4298350
  H       -0.5071020     2.1704490     0.4966500
  H       -2.1534840     1.5416890     0.2872720
  H       -1.1096840     0.8890950     1.5649870
  H       -1.0556840    -1.8232910    -1.0601830
  H       -2.4751420    -0.8237670    -0.6995200
  H       -1.4750130    -1.4711080     0.6193320
units angstrom
no_reorient  #important for SAPT in psi4, default
symmetry c1  #important for SAPT in psi4, default
}

set PROPERTIES_ORIGIN ["COM"]
properties('MP2/aug-cc-pvtz', properties = ['dipole'])
--------------------------------------------------------------------------

    Molecular point group: c1
  Charge       = -1
  Multiplicity = 1
  Basis Set: AUG-CC-PVTZ
    Blend: AUG-CC-PVTZ
  Basis Set: (AUG-CC-PVTZ AUX)
    Blend: AUG-CC-PVTZ-JKFIT

    Orbital Energies [Eh]
    ---------------------

    Doubly Occupied:

       1A    -20.291327     2A    -20.290850     3A    -11.134635
       4A    -11.074065     5A    -11.067555     6A    -11.065171
       7A     -1.159036     8A     -1.057673     9A     -0.909889
      10A     -0.783939    11A     -0.674242    12A     -0.522446
      13A     -0.466390    14A     -0.448906    15A     -0.423059
      16A     -0.394483    17A     -0.388439    18A     -0.370457
      19A     -0.348157    20A     -0.320050    21A     -0.307752
      22A     -0.205541    23A     -0.196000    24A     -0.189832

  @DF-RHF Final Energy:  -305.42254595380274

   => Energetics <=

    Nuclear Repulsion Energy =            236.1794883867044916
    One-Electron Energy =                -895.0242823345968191
    Two-Electron Energy =                 353.4222479940895596
    Total Energy =                       -305.4225459538027394
  Basis Set: (AUG-CC-PVTZ AUX)
    Blend: AUG-CC-PVTZ-RI
    Molecular point group: c1

    Geometry (in Angstrom), charge = -1, multiplicity = 1:

       Center              X                  Y                   Z               Mass
    ------------   -----------------  -----------------  -----------------  -----------------
         O            0.975386169718    -0.973081574688     0.853054794172    15.994914619570
         O            1.672612169718     0.628047425312    -0.601692205828    15.994914619570
         C           -0.680426830282     0.211294425312    -0.414616205828    12.000000000000
         C           -1.238778230282     1.278961125312     0.529980994172    12.000000000000
         C           -1.553264830282    -1.038224574688    -0.389609205828    12.000000000000
         C            0.789598969718    -0.092368174688    -0.042059305828    12.000000000000
         H           -0.675938830282     0.627647425312    -1.430097205828     1.007825032230
         H           -0.611955830282     2.184246425312     0.496387794172     1.007825032230
         H           -2.258337830282     1.555486425312     0.287009794172     1.007825032230
         H           -1.214537830282     0.902892425312     1.564724794172     1.007825032230
         H           -1.160537830282    -1.809493574688    -1.060445205828     1.007825032230
         H           -2.579995830282    -0.809969574688    -0.699782205828     1.007825032230
         H           -1.579866830282    -1.457310574688     0.619069794172     1.007825032230

  Basis Set: AUG-CC-PVTZ
    Blend: AUG-CC-PVTZ
  Basis Set: (AUG-CC-PVTZ AUX)
    Blend: AUG-CC-PVTZ-JKFIT
	 Reference Energy          =    -305.4225459538027394 [Eh]
	 Singles Energy            =      -0.0000000000000000 [Eh]
	 Same-Spin Energy          =      -0.3099169072948873 [Eh]
	 Opposite-Spin Energy      =      -0.9866676651949402 [Eh]
	 Correlation Energy        =      -1.2965845724898275 [Eh]
	 Total Energy              =    -306.7191305262925880 [Eh]

	 ================> DF-SCS-MP2 Energies <==================
	-----------------------------------------------------------
	 SCS Same-Spin Scale       =       0.3333333333333333 [-]
	 SCS Opposite-Spin Scale   =       1.2000000000000000 [-]
	 SCS Same-Spin Energy      =      -0.1033056357649624 [Eh]
	 SCS Opposite-Spin Energy  =      -1.1840011982339282 [Eh]
	 SCS Correlation Energy    =      -1.2873068339988907 [Eh]
	 SCS Total Energy          =    -306.7098527878016512 [Eh]
	-----------------------------------------------------------

  Dipole Moment: [D]
     X:    -5.7330      Y:     0.7896      Z:    -0.7044     Total:     5.8298

*** Psi4 exiting successfully. Buy a developer a beer!
