                               Psi4 1.3.2 release

  ==> Input File <==

--------------------------------------------------------------------------
#psi4
#
memory 32 gb

molecule  {
-1 1
  O        1.1455998    -0.9766011     0.8473840
  O        1.7774660     0.6142500    -0.6014300
  C       -0.5485576     0.2528251    -0.4669395
  C       -1.1221580     1.2656510     0.5365530
  C       -1.4484110    -1.0520220    -0.3893470
  C        0.8937330    -0.0971070    -0.0318180
  H       -0.5710850     0.6138500    -1.4298350
  H       -0.5071020     2.1704490     0.4966500
  H       -2.1534840     1.5416890     0.2872720
  H       -1.1096840     0.8890950     1.5649870
  H       -1.0556840    -1.8232910    -1.0601830
  H       -2.4751420    -0.8237670    -0.6995200
  H       -1.4750130    -1.4711080     0.6193320
units angstrom
no_reorient  #important for SAPT in psi4, default
symmetry c1  #important for SAPT in psi4, default
}

set PROPERTIES_ORIGIN ["COM"]
properties('MP2/aug-cc-pvtz', properties = ['dipole'])
--------------------------------------------------------------------------

    Molecular point group: c1
  Charge       = -1
  Multiplicity = 1
  Basis Set: AUG-CC-PVTZ
    Blend: AUG-CC-PVTZ
  Basis Set: (AUG-CC-PVTZ AUX)
    Blend: AUG-CC-PVTZ-JKFIT

    Orbital Energies [Eh]
    ---------------------

    Doubly Occupied:

       1A    -20.290726     2A    -20.284941     3A    -11.132928
       4A    -11.076094     5A    -11.070574     6A    -11.067222
       7A     -1.158720     8A     -1.052063     9A     -0.906241
      10A     -0.780312    11A     -0.681915    12A     -0.532617
      13A     -0.461404    14A     -0.446510    15A     -0.420235
      16A     -0.394292    17A     -0.389502    18A     -0.368992
      19A     -0.352159    20A     -0.328795    21A     -0.302057
      22A     -0.202888    23A     -0.194133    24A     -0.186054

  @DF-RHF Final Energy:  -305.41493816420905

   => Energetics <=

    Nuclear Repulsion Energy =            235.4538804547087238
    One-Electron Energy =                -893.5748871215708959
    Two-Electron Energy =                 352.7060685026531246
    Total Energy =                       -305.4149381642090475
  Basis Set: (AUG-CC-PVTZ AUX)
    Blend: AUG-CC-PVTZ-RI
    Molecular point group: c1

    Geometry (in Angstrom), charge = -1, multiplicity = 1:

       Center              X                  Y                   Z               Mass
    ------------   -----------------  -----------------  -----------------  -----------------
         O            1.023488513845    -0.973635846754     0.853215876989    15.994914619570
         O            1.655354713845     0.617215253246    -0.595598123011    15.994914619570
         C           -0.670668886155     0.255790353246    -0.461107623011    12.000000000000
         C           -1.244269286155     1.268616253246     0.542384876989    12.000000000000
         C           -1.570522286155    -1.049056746754    -0.383515123011    12.000000000000
         C            0.771621713845    -0.094141746754    -0.025986123011    12.000000000000
         H           -0.693196286155     0.616815253246    -1.424003123011     1.007825032230
         H           -0.629213286155     2.173414253246     0.502481876989     1.007825032230
         H           -2.275595286155     1.544654253246     0.293103876989     1.007825032230
         H           -1.231795286155     0.892060253246     1.570818876989     1.007825032230
         H           -1.177795286155    -1.820325746754    -1.054351123011     1.007825032230
         H           -2.597253286155    -0.820801746754    -0.693688123011     1.007825032230
         H           -1.597124286155    -1.468142746754     0.625163876989     1.007825032230

  Basis Set: AUG-CC-PVTZ
    Blend: AUG-CC-PVTZ
  Basis Set: (AUG-CC-PVTZ AUX)
    Blend: AUG-CC-PVTZ-JKFIT
	 Reference Energy          =    -305.4149381642090475 [Eh]
	 Singles Energy            =      -0.0000000000000000 [Eh]
	 Same-Spin Energy          =      -0.3095448409587412 [Eh]
	 Opposite-Spin Energy      =      -0.9864264778712296 [Eh]
	 Correlation Energy        =      -1.2959713188299709 [Eh]
	 Total Energy              =    -306.7109094830390177 [Eh]

	 ================> DF-SCS-MP2 Energies <==================
	-----------------------------------------------------------
	 SCS Same-Spin Scale       =       0.3333333333333333 [-]
	 SCS Opposite-Spin Scale   =       1.2000000000000000 [-]
	 SCS Same-Spin Energy      =      -0.1031816136529137 [Eh]
	 SCS Opposite-Spin Energy  =      -1.1837117734454754 [Eh]
	 SCS Correlation Energy    =      -1.2868933870983892 [Eh]
	 SCS Total Energy          =    -306.7018315513074640 [Eh]
	-----------------------------------------------------------

  Dipole Moment: [D]
     X:    -5.8622      Y:     0.8699      Z:    -0.7485     Total:     5.9735

*** Psi4 exiting successfully. Buy a developer a beer!
