                               Psi4 1.3.2 release

  ==> Input File <==

--------------------------------------------------------------------------
#psi4
#
memory 32 gb

molecule  {
-1 1
  O        1.0802400    -0.9868790     0.8533170
  O        1.7774660     0.6142500    -0.6014300
  C       -0.5755730     0.1974970    -0.4143540
  C       -1.1689649     1.2632140     0.5108841
  C       -1.4484110    -1.0520220    -0.3893470
  C        0.8959403    -0.1331999    -0.0719016
  H       -0.5710850     0.6138500    -1.4298350
  H       -0.5071020     2.1704490     0.4966500
  H       -2.1534840     1.5416890     0.2872720
  H       -1.1096840     0.8890950     1.5649870
  H       -1.0556840    -1.8232910    -1.0601830
  H       -2.4751420    -0.8237670    -0.6995200
  H       -1.4750130    -1.4711080     0.6193320
units angstrom
no_reorient  #important for SAPT in psi4, default
symmetry c1  #important for SAPT in psi4, default
}

set PROPERTIES_ORIGIN ["COM"]
properties('MP2/aug-cc-pvtz', properties = ['dipole'])
--------------------------------------------------------------------------

    Molecular point group: c1
  Charge       = -1
  Multiplicity = 1
  Basis Set: AUG-CC-PVTZ
    Blend: AUG-CC-PVTZ
  Basis Set: (AUG-CC-PVTZ AUX)
    Blend: AUG-CC-PVTZ-JKFIT

    Orbital Energies [Eh]
    ---------------------

    Doubly Occupied:

       1A    -20.291862     2A    -20.291725     3A    -11.135992
       4A    -11.074713     5A    -11.066988     6A    -11.065798
       7A     -1.158267     8A     -1.056654     9A     -0.910226
      10A     -0.783512    11A     -0.675878    12A     -0.521756
      13A     -0.466784    14A     -0.448478    15A     -0.427492
      16A     -0.396218    17A     -0.384413    18A     -0.371703
      19A     -0.346715    20A     -0.316519    21A     -0.305835
      22A     -0.205616    23A     -0.197463    24A     -0.189308

  @DF-RHF Final Energy:  -305.41689440578227

   => Energetics <=

    Nuclear Repulsion Energy =            235.9378245445890343
    One-Electron Energy =                -894.5296150636540915
    Two-Electron Energy =                 353.1748961132827844
    Total Energy =                       -305.4168944057822728
  Basis Set: (AUG-CC-PVTZ AUX)
    Blend: AUG-CC-PVTZ-RI
    Molecular point group: c1

    Geometry (in Angstrom), charge = -1, multiplicity = 1:

       Center              X                  Y                   Z               Mass
    ------------   -----------------  -----------------  -----------------  -----------------
         O            0.980011798181    -0.969085830183     0.859873863586    15.994914619570
         O            1.677237798181     0.632043169817    -0.594873136414    15.994914619570
         C           -0.675801201819     0.215290169817    -0.407797136414    12.000000000000
         C           -1.269193101819     1.281007169817     0.517440963586    12.000000000000
         C           -1.548639201819    -1.034228830183    -0.382790136414    12.000000000000
         C            0.795712098181    -0.115406730183    -0.065344736414    12.000000000000
         H           -0.671313201819     0.631643169817    -1.423278136414     1.007825032230
         H           -0.607330201819     2.188242169817     0.503206863586     1.007825032230
         H           -2.253712201819     1.559482169817     0.293828863586     1.007825032230
         H           -1.209912201819     0.906888169817     1.571543863586     1.007825032230
         H           -1.155912201819    -1.805497830183    -1.053626136414     1.007825032230
         H           -2.575370201819    -0.805973830183    -0.692963136414     1.007825032230
         H           -1.575241201819    -1.453314830183     0.625888863586     1.007825032230

  Basis Set: AUG-CC-PVTZ
    Blend: AUG-CC-PVTZ
  Basis Set: (AUG-CC-PVTZ AUX)
    Blend: AUG-CC-PVTZ-JKFIT
	 Reference Energy          =    -305.4168944057822728 [Eh]
	 Singles Energy            =      -0.0000000000000000 [Eh]
	 Same-Spin Energy          =      -0.3101763405274464 [Eh]
	 Opposite-Spin Energy      =      -0.9873465308805713 [Eh]
	 Correlation Energy        =      -1.2975228714080176 [Eh]
	 Total Energy              =    -306.7144172771903072 [Eh]

	 ================> DF-SCS-MP2 Energies <==================
	-----------------------------------------------------------
	 SCS Same-Spin Scale       =       0.3333333333333333 [-]
	 SCS Opposite-Spin Scale   =       1.2000000000000000 [-]
	 SCS Same-Spin Energy      =      -0.1033921135091488 [Eh]
	 SCS Opposite-Spin Energy  =      -1.1848158370566855 [Eh]
	 SCS Correlation Energy    =      -1.2882079505658344 [Eh]
	 SCS Total Energy          =    -306.7051023563481067 [Eh]
	-----------------------------------------------------------

  Dipole Moment: [D]
     X:    -5.7680      Y:     0.7902      Z:    -0.7416     Total:     5.8689

*** Psi4 exiting successfully. Buy a developer a beer!
