                               Psi4 1.3.2 release

  ==> Input File <==

--------------------------------------------------------------------------
#psi4
#
memory 32 gb

molecule  {
-1 1
  O        1.0802400    -0.9868790     0.8533170
  O        1.7774660     0.6142500    -0.6014300
  C       -0.5755730     0.1974970    -0.4143540
  C       -1.1123776     1.2138769     0.5969545
  C       -1.4484110    -1.0520220    -0.3893470
  C        0.8937330    -0.0971070    -0.0318180
  H       -0.5495877     0.5639642    -1.4485678
  H       -0.5071020     2.1704490     0.4966500
  H       -2.1534840     1.5416890     0.2872720
  H       -1.1096840     0.8890950     1.5649870
  H       -1.0556840    -1.8232910    -1.0601830
  H       -2.4751420    -0.8237670    -0.6995200
  H       -1.4750130    -1.4711080     0.6193320
units angstrom
no_reorient  #important for SAPT in psi4, default
symmetry c1  #important for SAPT in psi4, default
}

set PROPERTIES_ORIGIN ["COM"]
properties('MP2/aug-cc-pvtz', properties = ['dipole'])
--------------------------------------------------------------------------

    Molecular point group: c1
  Charge       = -1
  Multiplicity = 1
  Basis Set: AUG-CC-PVTZ
    Blend: AUG-CC-PVTZ
  Basis Set: (AUG-CC-PVTZ AUX)
    Blend: AUG-CC-PVTZ-JKFIT

    Orbital Energies [Eh]
    ---------------------

    Doubly Occupied:

       1A    -20.290870     2A    -20.290689     3A    -11.133722
       4A    -11.076077     5A    -11.066824     6A    -11.065541
       7A     -1.159156     8A     -1.057748     9A     -0.910818
      10A     -0.784093    11A     -0.675914    12A     -0.523808
      13A     -0.467267    14A     -0.445732    15A     -0.424052
      16A     -0.403804    17A     -0.387933    18A     -0.366793
      19A     -0.344218    20A     -0.319792    21A     -0.309022
      22A     -0.205253    23A     -0.194079    24A     -0.190070

  @DF-RHF Final Energy:  -305.41488180542149

   => Energetics <=

    Nuclear Repulsion Energy =            236.5319626379470321
    One-Electron Energy =                -895.7071431202606391
    Two-Electron Energy =                 353.7602986768921483
    Total Energy =                       -305.4148818054214871
  Basis Set: (AUG-CC-PVTZ AUX)
    Blend: AUG-CC-PVTZ-RI
    Molecular point group: c1

    Geometry (in Angstrom), charge = -1, multiplicity = 1:

       Center              X                  Y                   Z               Mass
    ------------   -----------------  -----------------  -----------------  -----------------
         O            0.972266050800    -0.966682389335     0.842699121689    15.994914619570
         O            1.669492050800     0.634446610665    -0.612047878311    15.994914619570
         C           -0.683546949200     0.217693610665    -0.424971878311    12.000000000000
         C           -1.220351549200     1.234073510665     0.586336621689    12.000000000000
         C           -1.556384949200    -1.031825389335    -0.399964878311    12.000000000000
         C            0.785759050800    -0.076910389335    -0.042435878311    12.000000000000
         H           -0.657561649200     0.584160810665    -1.459185678311     1.007825032230
         H           -0.615075949200     2.190645610665     0.486032121689     1.007825032230
         H           -2.261457949200     1.561885610665     0.276654121689     1.007825032230
         H           -1.217657949200     0.909291610665     1.554369121689     1.007825032230
         H           -1.163657949200    -1.803094389335    -1.070800878311     1.007825032230
         H           -2.583115949200    -0.803570389335    -0.710137878311     1.007825032230
         H           -1.582986949200    -1.450911389335     0.608714121689     1.007825032230

  Basis Set: AUG-CC-PVTZ
    Blend: AUG-CC-PVTZ
  Basis Set: (AUG-CC-PVTZ AUX)
    Blend: AUG-CC-PVTZ-JKFIT
	 Reference Energy          =    -305.4148818054214871 [Eh]
	 Singles Energy            =      -0.0000000000000000 [Eh]
	 Same-Spin Energy          =      -0.3100311259906849 [Eh]
	 Opposite-Spin Energy      =      -0.9869711557713873 [Eh]
	 Correlation Energy        =      -1.2970022817620723 [Eh]
	 Total Energy              =    -306.7118840871835346 [Eh]

	 ================> DF-SCS-MP2 Energies <==================
	-----------------------------------------------------------
	 SCS Same-Spin Scale       =       0.3333333333333333 [-]
	 SCS Opposite-Spin Scale   =       1.2000000000000000 [-]
	 SCS Same-Spin Energy      =      -0.1033437086635616 [Eh]
	 SCS Opposite-Spin Energy  =      -1.1843653869256647 [Eh]
	 SCS Correlation Energy    =      -1.2877090955892263 [Eh]
	 SCS Total Energy          =    -306.7025909010106943 [Eh]
	-----------------------------------------------------------

  Dipole Moment: [D]
     X:    -5.6817      Y:     0.7304      Z:    -0.6307     Total:     5.7630

*** Psi4 exiting successfully. Buy a developer a beer!
