                               Psi4 1.4a3.dev225

  ==> Input File <==

--------------------------------------------------------------------------
#psi4
#
memory 32 gb

molecule  {
-1 1
  O       -1.0485690    -0.0000230     1.2804550
  O       -1.8085780     0.0000120    -0.8608380
  C        0.5680610     0.0000050    -0.4771230
  C        1.2889140    -1.2559050     0.0104430
  C        1.2889010     1.2559130     0.0104710
  C       -0.9313692    -0.0000034    -0.0152006
  H        0.5489340     0.0000180    -1.5740110
  H        0.7977980    -2.1625660    -0.3602090
  H        2.3325250    -1.2756680    -0.3244140
  H        1.2723070    -1.2837030     1.1032290
  H        0.7977740     2.1625770    -0.3601580
  H        2.3325120     1.2756960    -0.3243870
  H        1.2722960     1.2836850     1.1032580
units angstrom
no_reorient  #important for SAPT in psi4, default
symmetry c1  #important for SAPT in psi4, default
}

set PROPERTIES_ORIGIN ["COM"]
properties('MP2/aug-cc-pvtz', properties = ['dipole'])
--------------------------------------------------------------------------

    Molecular point group: c1
  Charge       = -1
  Multiplicity = 1
  Basis Set: AUG-CC-PVTZ
    Blend: AUG-CC-PVTZ
  Basis Set: (AUG-CC-PVTZ AUX)
    Blend: AUG-CC-PVTZ-JKFIT

    Orbital Energies [Eh]
    ---------------------

    Doubly Occupied:

       1A    -20.303504     2A    -20.280751     3A    -11.133458
       4A    -11.069132     5A    -11.069112     6A    -11.062732
       7A     -1.174964     8A     -1.057589     9A     -0.905597
      10A     -0.782149    11A     -0.669074    12A     -0.518233
      13A     -0.468183    14A     -0.449507    15A     -0.419345
      16A     -0.395688    17A     -0.390436    18A     -0.374661
      19A     -0.351912    20A     -0.314375    21A     -0.313981
      22A     -0.208168    23A     -0.191330    24A     -0.188902

  @DF-RHF Final Energy:  -305.42148134817228

   => Energetics <=

    Nuclear Repulsion Energy =            236.2500597656066361
    One-Electron Energy =                -895.1575181452288916
    Two-Electron Energy =                 353.4859770314500338
    Total Energy =                       -305.4214813481722786
  Basis Set: (AUG-CC-PVTZ AUX)
    Blend: AUG-CC-PVTZ-RI
    Molecular point group: c1

    Geometry (in Angstrom), charge = -1, multiplicity = 1:

       Center              X                  Y                   Z               Mass
    ------------   -----------------  -----------------  -----------------  -----------------
         O           -0.937150282134    -0.000022753702     1.276866423187    15.994914619570
         O           -1.697159282134     0.000012246298    -0.864426576813    15.994914619570
         C            0.679479717866     0.000005246298    -0.480711576813    12.000000000000
         C            1.400332717866    -1.255904753702     0.006854423187    12.000000000000
         C            1.400319717866     1.255913246298     0.006882423187    12.000000000000
         C           -0.819950482134    -0.000003153702    -0.018789176813    12.000000000000
         H            0.660352717866     0.000018246298    -1.577599576813     1.007825032230
         H            0.909216717866    -2.162565753702    -0.363797576813     1.007825032230
         H            2.443943717866    -1.275667753702    -0.328002576813     1.007825032230
         H            1.383725717866    -1.283702753702     1.099640423187     1.007825032230
         H            0.909192717866     2.162577246298    -0.363746576813     1.007825032230
         H            2.443930717866     1.275696246298    -0.327975576813     1.007825032230
         H            1.383714717866     1.283685246298     1.099669423187     1.007825032230

  Basis Set: AUG-CC-PVTZ
    Blend: AUG-CC-PVTZ
  Basis Set: (AUG-CC-PVTZ AUX)
    Blend: AUG-CC-PVTZ-JKFIT
	 Reference Energy          =    -305.4214813481722786 [Eh]
	 Singles Energy            =      -0.0000000000000000 [Eh]
	 Same-Spin Energy          =      -0.3095297220676542 [Eh]
	 Opposite-Spin Energy      =      -0.9856820460680635 [Eh]
	 Correlation Energy        =      -1.2952117681357178 [Eh]
	 Total Energy              =    -306.7166931163080221 [Eh]

	 ================> DF-SCS-MP2 Energies <==================
	-----------------------------------------------------------
	 SCS Same-Spin Scale       =       0.3333333333333333 [-]
	 SCS Opposite-Spin Scale   =       1.2000000000000000 [-]
	 SCS Same-Spin Energy      =      -0.1031765740225514 [Eh]
	 SCS Opposite-Spin Energy  =      -1.1828184552816763 [Eh]
	 SCS Correlation Energy    =      -1.2859950293042277 [Eh]
	 SCS Total Energy          =    -306.7074763774764961 [Eh]
	-----------------------------------------------------------

  Dipole Moment: [D]
     X:     5.3954      Y:     0.0000      Z:    -1.4177     Total:     5.5786

*** Psi4 exiting successfully. Buy a developer a beer!
