                               Psi4 1.3.2 release

  ==> Input File <==

--------------------------------------------------------------------------
#psi4
#
memory 32 gb

molecule  {
-1 1
  O        1.0802400    -0.9868790     0.8533170
  O        1.7774660     0.6142500    -0.6014300
  C       -0.5755730     0.1974970    -0.4143540
  C       -1.1921008     1.2615084     0.4976249
  C       -1.4484110    -1.0520220    -0.3893470
  C        0.8963717    -0.1510981    -0.0921029
  H       -0.5710850     0.6138500    -1.4298350
  H       -0.5071020     2.1704490     0.4966500
  H       -2.1534840     1.5416890     0.2872720
  H       -1.1096840     0.8890950     1.5649870
  H       -1.0556840    -1.8232910    -1.0601830
  H       -2.4751420    -0.8237670    -0.6995200
  H       -1.4750130    -1.4711080     0.6193320
units angstrom
no_reorient  #important for SAPT in psi4, default
symmetry c1  #important for SAPT in psi4, default
}

set PROPERTIES_ORIGIN ["COM"]
properties('MP2/aug-cc-pvtz', properties = ['dipole'])
--------------------------------------------------------------------------

    Molecular point group: c1
  Charge       = -1
  Multiplicity = 1
  Basis Set: AUG-CC-PVTZ
    Blend: AUG-CC-PVTZ
  Basis Set: (AUG-CC-PVTZ AUX)
    Blend: AUG-CC-PVTZ-JKFIT

    Orbital Energies [Eh]
    ---------------------

    Doubly Occupied:

       1A    -20.292504     2A    -20.292396     3A    -11.137301
       4A    -11.075534     5A    -11.066917     6A    -11.066289
       7A     -1.157393     8A     -1.055477     9A     -0.910678
      10A     -0.783588    11A     -0.677287    12A     -0.521372
      13A     -0.468707    14A     -0.447822    15A     -0.431023
      16A     -0.396765    17A     -0.381386    18A     -0.372014
      19A     -0.345544    20A     -0.313709    21A     -0.304284
      22A     -0.205627    23A     -0.198343    24A     -0.188749

  @DF-RHF Final Energy:  -305.40956408329401

   => Energetics <=

    Nuclear Repulsion Energy =            235.7579837158467058
    One-Electron Energy =                -894.1536789296333154
    Two-Electron Energy =                 352.9861311304926517
    Total Energy =                       -305.4095640832940148
  Basis Set: (AUG-CC-PVTZ AUX)
    Blend: AUG-CC-PVTZ-RI
    Molecular point group: c1

    Geometry (in Angstrom), charge = -1, multiplicity = 1:

       Center              X                  Y                   Z               Mass
    ------------   -----------------  -----------------  -----------------  -----------------
         O            0.983141848593    -0.966383243372     0.864486739967    15.994914619570
         O            1.680367848593     0.634745756628    -0.590260260033    15.994914619570
         C           -0.672671151407     0.217992756628    -0.403184260033    12.000000000000
         C           -1.289198951407     1.282004156628     0.508794639967    12.000000000000
         C           -1.545509151407    -1.031526243372    -0.378177260033    12.000000000000
         C            0.799273548593    -0.130602343372    -0.080933160033    12.000000000000
         H           -0.668183151407     0.634345756628    -1.418665260033     1.007825032230
         H           -0.604200151407     2.190944756628     0.507819739967     1.007825032230
         H           -2.250582151407     1.562184756628     0.298441739967     1.007825032230
         H           -1.206782151407     0.909590756628     1.576156739967     1.007825032230
         H           -1.152782151407    -1.802795243372    -1.049013260033     1.007825032230
         H           -2.572240151407    -0.803271243372    -0.688350260033     1.007825032230
         H           -1.572111151407    -1.450612243372     0.630501739967     1.007825032230

  Basis Set: AUG-CC-PVTZ
    Blend: AUG-CC-PVTZ
  Basis Set: (AUG-CC-PVTZ AUX)
    Blend: AUG-CC-PVTZ-JKFIT
	 Reference Energy          =    -305.4095640832940148 [Eh]
	 Singles Energy            =      -0.0000000000000000 [Eh]
	 Same-Spin Energy          =      -0.3104851142135295 [Eh]
	 Opposite-Spin Energy      =      -0.9881340150190046 [Eh]
	 Correlation Energy        =      -1.2986191292325340 [Eh]
	 Total Energy              =    -306.7081832125265350 [Eh]

	 ================> DF-SCS-MP2 Energies <==================
	-----------------------------------------------------------
	 SCS Same-Spin Scale       =       0.3333333333333333 [-]
	 SCS Opposite-Spin Scale   =       1.2000000000000000 [-]
	 SCS Same-Spin Energy      =      -0.1034950380711765 [Eh]
	 SCS Opposite-Spin Energy  =      -1.1857608180228054 [Eh]
	 SCS Correlation Energy    =      -1.2892558560939820 [Eh]
	 SCS Total Energy          =    -306.6988199393879881 [Eh]
	-----------------------------------------------------------

  Dipole Moment: [D]
     X:    -5.7870      Y:     0.7866      Z:    -0.7676     Total:     5.8905

*** Psi4 exiting successfully. Buy a developer a beer!
