                               Psi4 1.4a3.dev225

  ==> Input File <==

--------------------------------------------------------------------------
#psi4
#
memory 32 gb

molecule  {
-1 1
  O       -1.0485690    -0.0000230     1.2804550
  O       -1.8085780     0.0000120    -0.8608380
  C        0.5680610     0.0000050    -0.4771230
  C        1.2889140    -1.2559050     0.0104430
  C        1.2889010     1.2559130     0.0104710
  C       -0.8809731    -0.0000043     0.0333816
  H        0.5489340     0.0000180    -1.5740110
  H        0.7977980    -2.1625660    -0.3602090
  H        2.3325250    -1.2756680    -0.3244140
  H        1.2723070    -1.2837030     1.1032290
  H        0.7977740     2.1625770    -0.3601580
  H        2.3325120     1.2756960    -0.3243870
  H        1.2722960     1.2836850     1.1032580
units angstrom
no_reorient  #important for SAPT in psi4, default
symmetry c1  #important for SAPT in psi4, default
}

set PROPERTIES_ORIGIN ["COM"]
properties('MP2/aug-cc-pvtz', properties = ['dipole'])
--------------------------------------------------------------------------

    Molecular point group: c1
  Charge       = -1
  Multiplicity = 1
  Basis Set: AUG-CC-PVTZ
    Blend: AUG-CC-PVTZ
  Basis Set: (AUG-CC-PVTZ AUX)
    Blend: AUG-CC-PVTZ-JKFIT

    Orbital Energies [Eh]
    ---------------------

    Doubly Occupied:

       1A    -20.293702     2A    -20.287685     3A    -11.134259
       4A    -11.072260     5A    -11.072241     6A    -11.065514
       7A     -1.158503     8A     -1.053206     9A     -0.912200
      10A     -0.785913    11A     -0.675798    12A     -0.524853
      13A     -0.468842    14A     -0.448130    15A     -0.422579
      16A     -0.394552    17A     -0.390329    18A     -0.370273
      19A     -0.349882    20A     -0.318682    21A     -0.309435
      22A     -0.204981    23A     -0.195846    24A     -0.188270

  @DF-RHF Final Energy:  -305.42160509921621

   => Energetics <=

    Nuclear Repulsion Energy =            236.3883790898306358
    One-Electron Energy =                -895.4240989134663096
    Two-Electron Energy =                 353.6141147244194372
    Total Energy =                       -305.4216050992162081
  Basis Set: (AUG-CC-PVTZ AUX)
    Blend: AUG-CC-PVTZ-RI
    Molecular point group: c1

    Geometry (in Angstrom), charge = -1, multiplicity = 1:

       Center              X                  Y                   Z               Mass
    ------------   -----------------  -----------------  -----------------  -----------------
         O           -0.944097906329    -0.000022629628     1.270168863889    15.994914619570
         O           -1.704106906329     0.000012370372    -0.871124136111    15.994914619570
         C            0.672532093671     0.000005370372    -0.487409136111    12.000000000000
         C            1.393385093671    -1.255904629628     0.000156863889    12.000000000000
         C            1.393372093671     1.255913370372     0.000184863889    12.000000000000
         C           -0.776502006329    -0.000003929628     0.023095463889    12.000000000000
         H            0.653405093671     0.000018370372    -1.584297136111     1.007825032230
         H            0.902269093671    -2.162565629628    -0.370495136111     1.007825032230
         H            2.436996093671    -1.275667629628    -0.334700136111     1.007825032230
         H            1.376778093671    -1.283702629628     1.092942863889     1.007825032230
         H            0.902245093671     2.162577370372    -0.370444136111     1.007825032230
         H            2.436983093671     1.275696370372    -0.334673136111     1.007825032230
         H            1.376767093671     1.283685370372     1.092971863889     1.007825032230

  Basis Set: AUG-CC-PVTZ
    Blend: AUG-CC-PVTZ
  Basis Set: (AUG-CC-PVTZ AUX)
    Blend: AUG-CC-PVTZ-JKFIT
	 Reference Energy          =    -305.4216050992162081 [Eh]
	 Singles Energy            =      -0.0000000000000000 [Eh]
	 Same-Spin Energy          =      -0.3101549160132279 [Eh]
	 Opposite-Spin Energy      =      -0.9870539287182433 [Eh]
	 Correlation Energy        =      -1.2972088447314711 [Eh]
	 Total Energy              =    -306.7188139439476799 [Eh]

	 ================> DF-SCS-MP2 Energies <==================
	-----------------------------------------------------------
	 SCS Same-Spin Scale       =       0.3333333333333333 [-]
	 SCS Opposite-Spin Scale   =       1.2000000000000000 [-]
	 SCS Same-Spin Energy      =      -0.1033849720044093 [Eh]
	 SCS Opposite-Spin Energy  =      -1.1844647144618918 [Eh]
	 SCS Correlation Energy    =      -1.2878496864663012 [Eh]
	 SCS Total Energy          =    -306.7094547856825102 [Eh]
	-----------------------------------------------------------

  Dipole Moment: [D]
     X:     5.8542      Y:     0.0000      Z:    -0.8546     Total:     5.9163

*** Psi4 exiting successfully. Buy a developer a beer!
