                               Psi4 1.3.2 release

  ==> Input File <==

--------------------------------------------------------------------------
#psi4
#
memory 32 gb

molecule  {
-1 1
  O        1.0802400    -0.9868790     0.8533170
  O        1.7774660     0.6142500    -0.6014300
  C       -0.5755730     0.1974970    -0.4143540
  C       -1.1304402     1.3144974     0.4735451
  C       -1.4484110    -1.0520220    -0.3893470
  C        0.8937330    -0.0971070    -0.0318180
  H       -0.5925946     0.6625946    -1.4083188
  H       -0.5071020     2.1704490     0.4966500
  H       -2.1534840     1.5416890     0.2872720
  H       -1.1096840     0.8890950     1.5649870
  H       -1.0556840    -1.8232910    -1.0601830
  H       -2.4751420    -0.8237670    -0.6995200
  H       -1.4750130    -1.4711080     0.6193320
units angstrom
no_reorient  #important for SAPT in psi4, default
symmetry c1  #important for SAPT in psi4, default
}

set PROPERTIES_ORIGIN ["COM"]
properties('MP2/aug-cc-pvtz', properties = ['dipole'])
--------------------------------------------------------------------------

    Molecular point group: c1
  Charge       = -1
  Multiplicity = 1
  Basis Set: AUG-CC-PVTZ
    Blend: AUG-CC-PVTZ
  Basis Set: (AUG-CC-PVTZ AUX)
    Blend: AUG-CC-PVTZ-JKFIT

    Orbital Energies [Eh]
    ---------------------

    Doubly Occupied:

       1A    -20.291845     2A    -20.290891     3A    -11.135373
       4A    -11.074602     5A    -11.069126     6A    -11.065697
       7A     -1.159465     8A     -1.058174     9A     -0.910163
      10A     -0.785987    11A     -0.673610    12A     -0.523848
      13A     -0.465790    14A     -0.455127    15A     -0.428228
      16A     -0.394915    17A     -0.377301    18A     -0.372399
      19A     -0.352569    20A     -0.322574    21A     -0.297796
      22A     -0.206019    23A     -0.196952    24A     -0.190011

  @DF-RHF Final Energy:  -305.41562344326201

   => Energetics <=

    Nuclear Repulsion Energy =            236.0067855290496368
    One-Electron Energy =                -894.6478965697044714
    Two-Electron Energy =                 353.2254875973927710
    Total Energy =                       -305.4156234432620067
  Basis Set: (AUG-CC-PVTZ AUX)
    Blend: AUG-CC-PVTZ-RI
    Molecular point group: c1

    Geometry (in Angstrom), charge = -1, multiplicity = 1:

       Center              X                  Y                   Z               Mass
    ------------   -----------------  -----------------  -----------------  -----------------
         O            0.975254112289    -0.981695935483     0.859246371908    15.994914619570
         O            1.672480112289     0.619433064517    -0.595500628092    15.994914619570
         C           -0.680558887711     0.202680064517    -0.408424628092    12.000000000000
         C           -1.235426087711     1.319680464517     0.479474471908    12.000000000000
         C           -1.553396887711    -1.046838935483    -0.383417628092    12.000000000000
         C            0.788747112289    -0.091923935483    -0.025888628092    12.000000000000
         H           -0.697580487711     0.667777664517    -1.402389428092     1.007825032230
         H           -0.612087887711     2.175632064517     0.502579371908     1.007825032230
         H           -2.258469887711     1.546872064517     0.293201371908     1.007825032230
         H           -1.214669887711     0.894278064517     1.570916371908     1.007825032230
         H           -1.160669887711    -1.818107935483    -1.054253628092     1.007825032230
         H           -2.580127887711    -0.818583935483    -0.693590628092     1.007825032230
         H           -1.579998887711    -1.465924935483     0.625261371908     1.007825032230

  Basis Set: AUG-CC-PVTZ
    Blend: AUG-CC-PVTZ
  Basis Set: (AUG-CC-PVTZ AUX)
    Blend: AUG-CC-PVTZ-JKFIT
	 Reference Energy          =    -305.4156234432620067 [Eh]
	 Singles Energy            =      -0.0000000000000000 [Eh]
	 Same-Spin Energy          =      -0.3100505648123464 [Eh]
	 Opposite-Spin Energy      =      -0.9869748991645435 [Eh]
	 Correlation Energy        =      -1.2970254639768899 [Eh]
	 Total Energy              =    -306.7126489072388722 [Eh]

	 ================> DF-SCS-MP2 Energies <==================
	-----------------------------------------------------------
	 SCS Same-Spin Scale       =       0.3333333333333333 [-]
	 SCS Opposite-Spin Scale   =       1.2000000000000000 [-]
	 SCS Same-Spin Energy      =      -0.1033501882707821 [Eh]
	 SCS Opposite-Spin Energy  =      -1.1843698789974522 [Eh]
	 SCS Correlation Energy    =      -1.2877200672682343 [Eh]
	 SCS Total Energy          =    -306.7033435105302601 [Eh]
	-----------------------------------------------------------

  Dipole Moment: [D]
     X:    -5.7381      Y:     0.8279      Z:    -0.7842     Total:     5.8503

*** Psi4 exiting successfully. Buy a developer a beer!
