                               Psi4 1.3.2 release

  ==> Input File <==

--------------------------------------------------------------------------
#psi4
#
memory 32 gb

molecule  {
-1 1
  O        1.0911737    -0.9853347     0.8524963
  O        1.7774660     0.6142500    -0.6014300
  C       -0.5713482     0.2067786    -0.4231950
  C       -1.1221580     1.2656510     0.5365530
  C       -1.4484110    -1.0520220    -0.3893470
  C        0.8937330    -0.0971070    -0.0318180
  H       -0.5710850     0.6138500    -1.4298350
  H       -0.5071020     2.1704490     0.4966500
  H       -2.1534840     1.5416890     0.2872720
  H       -1.1096840     0.8890950     1.5649870
  H       -1.0556840    -1.8232910    -1.0601830
  H       -2.4751420    -0.8237670    -0.6995200
  H       -1.4750130    -1.4711080     0.6193320
units angstrom
no_reorient  #important for SAPT in psi4, default
symmetry c1  #important for SAPT in psi4, default
}

set PROPERTIES_ORIGIN ["COM"]
properties('MP2/aug-cc-pvtz', properties = ['dipole'])
--------------------------------------------------------------------------

    Molecular point group: c1
  Charge       = -1
  Multiplicity = 1
  Basis Set: AUG-CC-PVTZ
    Blend: AUG-CC-PVTZ
  Basis Set: (AUG-CC-PVTZ AUX)
    Blend: AUG-CC-PVTZ-JKFIT

    Orbital Energies [Eh]
    ---------------------

    Doubly Occupied:

       1A    -20.291107     2A    -20.289655     3A    -11.134035
       4A    -11.074285     5A    -11.068271     6A    -11.065291
       7A     -1.158997     8A     -1.056795     9A     -0.909198
      10A     -0.783552    11A     -0.675069    12A     -0.524129
      13A     -0.465960    14A     -0.448478    15A     -0.421689
      16A     -0.393816    17A     -0.389409    18A     -0.369513
      19A     -0.348461    20A     -0.321610    21A     -0.309107
      22A     -0.204763    23A     -0.195691    24A     -0.189243

  @DF-RHF Final Energy:  -305.42296166890611

   => Energetics <=

    Nuclear Repulsion Energy =            236.1138070844132812
    One-Electron Energy =                -894.8972910040162105
    Two-Electron Energy =                 353.3605222506968744
    Total Energy =                       -305.4229616689061118
  Basis Set: (AUG-CC-PVTZ AUX)
    Blend: AUG-CC-PVTZ-RI
    Molecular point group: c1

    Geometry (in Angstrom), charge = -1, multiplicity = 1:

       Center              X                  Y                   Z               Mass
    ------------   -----------------  -----------------  -----------------  -----------------
         O            0.982205422876    -0.974416613944     0.851358132082    15.994914619570
         O            1.668497722876     0.625168086056    -0.602568167918    15.994914619570
         C           -0.680316477124     0.217696686056    -0.424333167918    12.000000000000
         C           -1.231126277124     1.276569086056     0.535414832082    12.000000000000
         C           -1.557379277124    -1.041103913944    -0.390485167918    12.000000000000
         C            0.784764722876    -0.086188913944    -0.032956167918    12.000000000000
         H           -0.680053277124     0.624768086056    -1.430973167918     1.007825032230
         H           -0.616070277124     2.181367086056     0.495511832082     1.007825032230
         H           -2.262452277124     1.552607086056     0.286133832082     1.007825032230
         H           -1.218652277124     0.900013086056     1.563848832082     1.007825032230
         H           -1.164652277124    -1.812372913944    -1.061321167918     1.007825032230
         H           -2.584110277124    -0.812848913944    -0.700658167918     1.007825032230
         H           -1.583981277124    -1.460189913944     0.618193832082     1.007825032230

  Basis Set: AUG-CC-PVTZ
    Blend: AUG-CC-PVTZ
  Basis Set: (AUG-CC-PVTZ AUX)
    Blend: AUG-CC-PVTZ-JKFIT
	 Reference Energy          =    -305.4229616689061118 [Eh]
	 Singles Energy            =      -0.0000000000000000 [Eh]
	 Same-Spin Energy          =      -0.3097910219880731 [Eh]
	 Opposite-Spin Energy      =      -0.9864644219825967 [Eh]
	 Correlation Energy        =      -1.2962554439706697 [Eh]
	 Total Energy              =    -306.7192171128767768 [Eh]

	 ================> DF-SCS-MP2 Energies <==================
	-----------------------------------------------------------
	 SCS Same-Spin Scale       =       0.3333333333333333 [-]
	 SCS Opposite-Spin Scale   =       1.2000000000000000 [-]
	 SCS Same-Spin Energy      =      -0.1032636739960243 [Eh]
	 SCS Opposite-Spin Energy  =      -1.1837573063791160 [Eh]
	 SCS Correlation Energy    =      -1.2870209803751405 [Eh]
	 SCS Total Energy          =    -306.7099826492812440 [Eh]
	-----------------------------------------------------------

  Dipole Moment: [D]
     X:    -5.7458      Y:     0.8019      Z:    -0.7040     Total:     5.8440

*** Psi4 exiting successfully. Buy a developer a beer!
