                               Psi4 1.4a3.dev225

  ==> Input File <==

--------------------------------------------------------------------------
#psi4
#
memory 32 gb

molecule  {
-1 1
  O       -1.0485690    -0.0000230     1.2804550
  O       -1.8085780     0.0000120    -0.8608380
  C        0.5680610     0.0000050    -0.4771230
  C        1.2889140    -1.2559050     0.0104430
  C        1.2889010     1.2559130     0.0104710
  C       -0.8893417    -0.0000033    -0.0301340
  H        0.5489340     0.0000180    -1.5740110
  H        0.7977980    -2.1625660    -0.3602090
  H        2.3325250    -1.2756680    -0.3244140
  H        1.2723070    -1.2837030     1.1032290
  H        0.7977740     2.1625770    -0.3601580
  H        2.3325120     1.2756960    -0.3243870
  H        1.2722960     1.2836850     1.1032580
units angstrom
no_reorient  #important for SAPT in psi4, default
symmetry c1  #important for SAPT in psi4, default
}

set PROPERTIES_ORIGIN ["COM"]
properties('MP2/aug-cc-pvtz', properties = ['dipole'])
--------------------------------------------------------------------------

    Molecular point group: c1
  Charge       = -1
  Multiplicity = 1
  Basis Set: AUG-CC-PVTZ
    Blend: AUG-CC-PVTZ
  Basis Set: (AUG-CC-PVTZ AUX)
    Blend: AUG-CC-PVTZ-JKFIT

    Orbital Energies [Eh]
    ---------------------

    Doubly Occupied:

       1A    -20.301835     2A    -20.278694     3A    -11.134449
       4A    -11.072288     5A    -11.072263     6A    -11.066871
       7A     -1.162398     8A     -1.043690     9A     -0.912201
      10A     -0.785559    11A     -0.680781    12A     -0.522672
      13A     -0.470476    14A     -0.448125    15A     -0.422880
      16A     -0.393085    17A     -0.389693    18A     -0.372821
      19A     -0.350240    20A     -0.315176    21A     -0.309746
      22A     -0.203502    23A     -0.195340    24A     -0.184993

  @DF-RHF Final Energy:  -305.41777986237099

   => Energetics <=

    Nuclear Repulsion Energy =            236.2836962679328110
    One-Electron Energy =                -895.2233958669935419
    Two-Electron Energy =                 353.5219197366897674
    Total Energy =                       -305.4177798623709919
  Basis Set: (AUG-CC-PVTZ AUX)
    Blend: AUG-CC-PVTZ-RI
    Molecular point group: c1

    Geometry (in Angstrom), charge = -1, multiplicity = 1:

       Center              X                  Y                   Z               Mass
    ------------   -----------------  -----------------  -----------------  -----------------
         O           -0.942944208169    -0.000022767488     1.278925147000    15.994914619570
         O           -1.702953208169     0.000012232512    -0.862367853000    15.994914619570
         C            0.673685791831     0.000005232512    -0.478652853000    12.000000000000
         C            1.394538791831    -1.255904767488     0.008913147000    12.000000000000
         C            1.394525791831     1.255913232512     0.008941147000    12.000000000000
         C           -0.783716908169    -0.000003067488    -0.031663853000    12.000000000000
         H            0.654558791831     0.000018232512    -1.575540853000     1.007825032230
         H            0.903422791831    -2.162565767488    -0.361738853000     1.007825032230
         H            2.438149791831    -1.275667767488    -0.325943853000     1.007825032230
         H            1.377931791831    -1.283702767488     1.101699147000     1.007825032230
         H            0.903398791831     2.162577232512    -0.361687853000     1.007825032230
         H            2.438136791831     1.275696232512    -0.325916853000     1.007825032230
         H            1.377920791831     1.283685232512     1.101728147000     1.007825032230

  Basis Set: AUG-CC-PVTZ
    Blend: AUG-CC-PVTZ
  Basis Set: (AUG-CC-PVTZ AUX)
    Blend: AUG-CC-PVTZ-JKFIT
	 Reference Energy          =    -305.4177798623709919 [Eh]
	 Singles Energy            =      -0.0000000000000000 [Eh]
	 Same-Spin Energy          =      -0.3103216940961119 [Eh]
	 Opposite-Spin Energy      =      -0.9875123166157151 [Eh]
	 Correlation Energy        =      -1.2978340107118269 [Eh]
	 Total Energy              =    -306.7156138730828161 [Eh]

	 ================> DF-SCS-MP2 Energies <==================
	-----------------------------------------------------------
	 SCS Same-Spin Scale       =       0.3333333333333333 [-]
	 SCS Opposite-Spin Scale   =       1.2000000000000000 [-]
	 SCS Same-Spin Energy      =      -0.1034405646987040 [Eh]
	 SCS Opposite-Spin Energy  =      -1.1850147799388582 [Eh]
	 SCS Correlation Energy    =      -1.2884553446375622 [Eh]
	 SCS Total Energy          =    -306.7062352070085467 [Eh]
	-----------------------------------------------------------

  Dipole Moment: [D]
     X:     5.6998      Y:     0.0000      Z:    -1.4770     Total:     5.8881

*** Psi4 exiting successfully. Buy a developer a beer!
