                               Psi4 1.3.2 release

  ==> Input File <==

--------------------------------------------------------------------------
#psi4
#
memory 32 gb

molecule  {
-1 1
  O        1.0802400    -0.9868790     0.8533170
  O        1.8086233     0.5921109    -0.5790155
  C       -0.5912219     0.1584784    -0.3804877
  C       -1.1221580     1.2656510     0.5365530
  C       -1.4484110    -1.0520220    -0.3893470
  C        0.8937330    -0.0971070    -0.0318180
  H       -0.5710850     0.6138500    -1.4298350
  H       -0.5071020     2.1704490     0.4966500
  H       -2.1534840     1.5416890     0.2872720
  H       -1.1096840     0.8890950     1.5649870
  H       -1.0556840    -1.8232910    -1.0601830
  H       -2.4751420    -0.8237670    -0.6995200
  H       -1.4750130    -1.4711080     0.6193320
units angstrom
no_reorient  #important for SAPT in psi4, default
symmetry c1  #important for SAPT in psi4, default
}

set PROPERTIES_ORIGIN ["COM"]
properties('MP2/aug-cc-pvtz', properties = ['dipole'])
--------------------------------------------------------------------------

    Molecular point group: c1
  Charge       = -1
  Multiplicity = 1
  Basis Set: AUG-CC-PVTZ
    Blend: AUG-CC-PVTZ
  Basis Set: (AUG-CC-PVTZ AUX)
    Blend: AUG-CC-PVTZ-JKFIT

    Orbital Energies [Eh]
    ---------------------

    Doubly Occupied:

       1A    -20.290642     2A    -20.287865     3A    -11.133918
       4A    -11.075602     5A    -11.069785     6A    -11.068369
       7A     -1.159307     8A     -1.054441     9A     -0.916306
      10A     -0.789288    11A     -0.672240    12A     -0.519398
      13A     -0.471769    14A     -0.450338    15A     -0.425629
      16A     -0.395336    17A     -0.387085    18A     -0.372560
      19A     -0.351146    20A     -0.324581    21A     -0.298505
      22A     -0.202160    23A     -0.197119    24A     -0.187747

  @DF-RHF Final Energy:  -305.41814981718630

   => Energetics <=

    Nuclear Repulsion Energy =            236.4207600787524655
    One-Electron Energy =                -895.4755511473882734
    Two-Electron Energy =                 353.6366412514495323
    Total Energy =                       -305.4181498171863041
  Basis Set: (AUG-CC-PVTZ AUX)
    Blend: AUG-CC-PVTZ-RI
    Molecular point group: c1

    Geometry (in Angstrom), charge = -1, multiplicity = 1:

       Center              X                  Y                   Z               Mass
    ------------   -----------------  -----------------  -----------------  -----------------
         O            0.970295322835    -0.964950279031     0.842021595507    15.994914619570
         O            1.698678622835     0.614039620969    -0.590310904493    15.994914619570
         C           -0.701166577165     0.180407120969    -0.391783104493    12.000000000000
         C           -1.232102677165     1.287579720969     0.525257595507    12.000000000000
         C           -1.558355677165    -1.030093279031    -0.400642404493    12.000000000000
         C            0.783788322835    -0.075178279031    -0.043113404493    12.000000000000
         H           -0.681029677165     0.635778720969    -1.441130404493     1.007825032230
         H           -0.617046677165     2.192377720969     0.485354595507     1.007825032230
         H           -2.263428677165     1.563617720969     0.275976595507     1.007825032230
         H           -1.219628677165     0.911023720969     1.553691595507     1.007825032230
         H           -1.165628677165    -1.801362279031    -1.071478404493     1.007825032230
         H           -2.585086677165    -0.801838279031    -0.710815404493     1.007825032230
         H           -1.584957677165    -1.449179279031     0.608036595507     1.007825032230

  Basis Set: AUG-CC-PVTZ
    Blend: AUG-CC-PVTZ
  Basis Set: (AUG-CC-PVTZ AUX)
    Blend: AUG-CC-PVTZ-JKFIT
	 Reference Energy          =    -305.4181498171863041 [Eh]
	 Singles Energy            =      -0.0000000000000000 [Eh]
	 Same-Spin Energy          =      -0.3102282355416343 [Eh]
	 Opposite-Spin Energy      =      -0.9870876536864065 [Eh]
	 Correlation Energy        =      -1.2973158892280408 [Eh]
	 Total Energy              =    -306.7154657064143635 [Eh]

	 ================> DF-SCS-MP2 Energies <==================
	-----------------------------------------------------------
	 SCS Same-Spin Scale       =       0.3333333333333333 [-]
	 SCS Opposite-Spin Scale   =       1.2000000000000000 [-]
	 SCS Same-Spin Energy      =      -0.1034094118472114 [Eh]
	 SCS Opposite-Spin Energy  =      -1.1845051844236878 [Eh]
	 SCS Correlation Energy    =      -1.2879145962708991 [Eh]
	 SCS Total Energy          =    -306.7060644134572271 [Eh]
	-----------------------------------------------------------

  Dipole Moment: [D]
     X:    -5.8328      Y:     0.7679      Z:    -0.6901     Total:     5.9235

*** Psi4 exiting successfully. Buy a developer a beer!
