                               Psi4 1.4a3.dev225

  ==> Input File <==

--------------------------------------------------------------------------
#psi4
#
memory 32 gb

molecule  {
-1 1
  O       -1.0485690    -0.0000230     1.2804550
  O       -1.8085780     0.0000120    -0.8608380
  C        0.5680610     0.0000050    -0.4771230
  C        1.2889140    -1.2559050     0.0104430
  C        1.2889010     1.2559130     0.0104710
  C       -0.9097709    -0.0000037     0.0056204
  H        0.5489340     0.0000180    -1.5740110
  H        0.7977980    -2.1625660    -0.3602090
  H        2.3325250    -1.2756680    -0.3244140
  H        1.2723070    -1.2837030     1.1032290
  H        0.7977740     2.1625770    -0.3601580
  H        2.3325120     1.2756960    -0.3243870
  H        1.2722960     1.2836850     1.1032580
units angstrom
no_reorient  #important for SAPT in psi4, default
symmetry c1  #important for SAPT in psi4, default
}

set PROPERTIES_ORIGIN ["COM"]
properties('MP2/aug-cc-pvtz', properties = ['dipole'])
--------------------------------------------------------------------------

    Molecular point group: c1
  Charge       = -1
  Multiplicity = 1
  Basis Set: AUG-CC-PVTZ
    Blend: AUG-CC-PVTZ
  Basis Set: (AUG-CC-PVTZ AUX)
    Blend: AUG-CC-PVTZ-JKFIT

    Orbital Energies [Eh]
    ---------------------

    Doubly Occupied:

       1A    -20.296656     2A    -20.286260     3A    -11.133931
       4A    -11.070489     5A    -11.070469     6A    -11.063980
       7A     -1.163099     8A     -1.059591     9A     -0.908447
      10A     -0.783777    11A     -0.671951    12A     -0.520714
      13A     -0.468201    14A     -0.448148    15A     -0.420546
      16A     -0.393359    17A     -0.392195    18A     -0.372479
      19A     -0.350093    20A     -0.316149    21A     -0.311537
      22A     -0.206687    23A     -0.193584    24A     -0.190914

  @DF-RHF Final Energy:  -305.42331254562293

   => Energetics <=

    Nuclear Repulsion Energy =            236.2938334417196700
    One-Electron Energy =                -895.2477843591771034
    Two-Electron Energy =                 353.5306383718344705
    Total Energy =                       -305.4233125456229345
  Basis Set: (AUG-CC-PVTZ AUX)
    Blend: AUG-CC-PVTZ-RI
    Molecular point group: c1

    Geometry (in Angstrom), charge = -1, multiplicity = 1:

       Center              X                  Y                   Z               Mass
    ------------   -----------------  -----------------  -----------------  -----------------
         O           -0.940127831421    -0.000022712344     1.273996032753    15.994914619570
         O           -1.700136831421     0.000012287656    -0.867296967247    15.994914619570
         C            0.676502168579     0.000005287656    -0.483581967247    12.000000000000
         C            1.397355168579    -1.255904712344     0.003984032753    12.000000000000
         C            1.397342168579     1.255913287656     0.004012032753    12.000000000000
         C           -0.801329731421    -0.000003412344    -0.000838567247    12.000000000000
         H            0.657375168579     0.000018287656    -1.580469967247     1.007825032230
         H            0.906239168579    -2.162565712344    -0.366667967247     1.007825032230
         H            2.440966168579    -1.275667712344    -0.330872967247     1.007825032230
         H            1.380748168579    -1.283702712344     1.096770032753     1.007825032230
         H            0.906215168579     2.162577287656    -0.366616967247     1.007825032230
         H            2.440953168579     1.275696287656    -0.330845967247     1.007825032230
         H            1.380737168579     1.283685287656     1.096799032753     1.007825032230

  Basis Set: AUG-CC-PVTZ
    Blend: AUG-CC-PVTZ
  Basis Set: (AUG-CC-PVTZ AUX)
    Blend: AUG-CC-PVTZ-JKFIT
	 Reference Energy          =    -305.4233125456229345 [Eh]
	 Singles Energy            =      -0.0000000000000000 [Eh]
	 Same-Spin Energy          =      -0.3097875534490823 [Eh]
	 Opposite-Spin Energy      =      -0.9862434526035233 [Eh]
	 Correlation Energy        =      -1.2960310060526057 [Eh]
	 Total Energy              =    -306.7193435516755358 [Eh]

	 ================> DF-SCS-MP2 Energies <==================
	-----------------------------------------------------------
	 SCS Same-Spin Scale       =       0.3333333333333333 [-]
	 SCS Opposite-Spin Scale   =       1.2000000000000000 [-]
	 SCS Same-Spin Energy      =      -0.1032625178163608 [Eh]
	 SCS Opposite-Spin Energy  =      -1.1834921431242280 [Eh]
	 SCS Correlation Energy    =      -1.2867546609405887 [Eh]
	 SCS Total Energy          =    -306.7100672065635081 [Eh]
	-----------------------------------------------------------

  Dipole Moment: [D]
     X:     5.5939      Y:     0.0000      Z:    -1.1737     Total:     5.7157

*** Psi4 exiting successfully. Buy a developer a beer!
