                               Psi4 1.4a3.dev225

  ==> Input File <==

--------------------------------------------------------------------------
#psi4
#
memory 32 gb

molecule  {
-1 1
  O       -1.0485690    -0.0000230     1.2804550
  O       -1.8085780     0.0000120    -0.8608380
  C        0.5680610     0.0000050    -0.4771230
  C        1.2889140    -1.2559050     0.0104430
  C        1.2889010     1.2559130     0.0104710
  C       -0.9143112    -0.0000041     0.0259281
  H        0.5489340     0.0000180    -1.5740110
  H        0.7977980    -2.1625660    -0.3602090
  H        2.3325250    -1.2756680    -0.3244140
  H        1.2723070    -1.2837030     1.1032290
  H        0.7977740     2.1625770    -0.3601580
  H        2.3325120     1.2756960    -0.3243870
  H        1.2722960     1.2836850     1.1032580
units angstrom
no_reorient  #important for SAPT in psi4, default
symmetry c1  #important for SAPT in psi4, default
}

set PROPERTIES_ORIGIN ["COM"]
properties('MP2/aug-cc-pvtz', properties = ['dipole'])
--------------------------------------------------------------------------

    Molecular point group: c1
  Charge       = -1
  Multiplicity = 1
  Basis Set: AUG-CC-PVTZ
    Blend: AUG-CC-PVTZ
  Basis Set: (AUG-CC-PVTZ AUX)
    Blend: AUG-CC-PVTZ-JKFIT

    Orbital Energies [Eh]
    ---------------------

    Doubly Occupied:

       1A    -20.292993     2A    -20.290934     3A    -11.133807
       4A    -11.069965     5A    -11.069948     6A    -11.062819
       7A     -1.164332     8A     -1.064528     9A     -0.907323
      10A     -0.783304    11A     -0.668748    12A     -0.520545
      13A     -0.467480    14A     -0.448503    15A     -0.419916
      16A     -0.394748    17A     -0.392185    18A     -0.372173
      19A     -0.350358    20A     -0.316781    21A     -0.312184
      22A     -0.208803    23A     -0.192837    24A     -0.191367

  @DF-RHF Final Energy:  -305.42443186110063

   => Energetics <=

    Nuclear Repulsion Energy =            236.3176222589909798
    One-Electron Energy =                -895.2909420340777160
    Two-Electron Energy =                 353.5488879139861638
    Total Energy =                       -305.4244318611006292
  Basis Set: (AUG-CC-PVTZ AUX)
    Blend: AUG-CC-PVTZ-RI
    Molecular point group: c1

    Geometry (in Angstrom), charge = -1, multiplicity = 1:

       Center              X                  Y                   Z               Mass
    ------------   -----------------  -----------------  -----------------  -----------------
         O           -0.939501904055    -0.000022657200     1.271196406039    15.994914619570
         O           -1.699510904055     0.000012342800    -0.870096593961    15.994914619570
         C            0.677128095945     0.000005342800    -0.486381593961    12.000000000000
         C            1.397981095945    -1.255904657200     0.001184406039    12.000000000000
         C            1.397968095945     1.255913342800     0.001212406039    12.000000000000
         C           -0.805244104055    -0.000003757200     0.016669506039    12.000000000000
         H            0.658001095945     0.000018342800    -1.583269593961     1.007825032230
         H            0.906865095945    -2.162565657200    -0.369467593961     1.007825032230
         H            2.441592095945    -1.275667657200    -0.333672593961     1.007825032230
         H            1.381374095945    -1.283702657200     1.093970406039     1.007825032230
         H            0.906841095945     2.162577342800    -0.369416593961     1.007825032230
         H            2.441579095945     1.275696342800    -0.333645593961     1.007825032230
         H            1.381363095945     1.283685342800     1.093999406039     1.007825032230

  Basis Set: AUG-CC-PVTZ
    Blend: AUG-CC-PVTZ
  Basis Set: (AUG-CC-PVTZ AUX)
    Blend: AUG-CC-PVTZ-JKFIT
	 Reference Energy          =    -305.4244318611006292 [Eh]
	 Singles Energy            =      -0.0000000000000000 [Eh]
	 Same-Spin Energy          =      -0.3096368484616778 [Eh]
	 Opposite-Spin Energy      =      -0.9858650719794579 [Eh]
	 Correlation Energy        =      -1.2955019204411358 [Eh]
	 Total Energy              =    -306.7199337815417834 [Eh]

	 ================> DF-SCS-MP2 Energies <==================
	-----------------------------------------------------------
	 SCS Same-Spin Scale       =       0.3333333333333333 [-]
	 SCS Opposite-Spin Scale   =       1.2000000000000000 [-]
	 SCS Same-Spin Energy      =      -0.1032122828205593 [Eh]
	 SCS Opposite-Spin Energy  =      -1.1830380863753496 [Eh]
	 SCS Correlation Energy    =      -1.2862503691959088 [Eh]
	 SCS Total Energy          =    -306.7106822302965270 [Eh]
	-----------------------------------------------------------

  Dipole Moment: [D]
     X:     5.5858      Y:     0.0000      Z:    -0.9842     Total:     5.6718

*** Psi4 exiting successfully. Buy a developer a beer!
