                               Psi4 1.4a3.dev225

  ==> Input File <==

--------------------------------------------------------------------------
#psi4
#
memory 32 gb

molecule  {
-1 1
  O       -1.0485690    -0.0000230     1.2804550
  O       -1.8085780     0.0000120    -0.8608380
  C        0.5680610     0.0000050    -0.4771230
  C        1.2889140    -1.2559050     0.0104430
  C        1.2889010     1.2559130     0.0104710
  C       -0.8929599    -0.0000037    -0.0003530
  H        0.5489340     0.0000180    -1.5740110
  H        0.7977980    -2.1625660    -0.3602090
  H        2.3325250    -1.2756680    -0.3244140
  H        1.2723070    -1.2837030     1.1032290
  H        0.7977740     2.1625770    -0.3601580
  H        2.3325120     1.2756960    -0.3243870
  H        1.2722960     1.2836850     1.1032580
units angstrom
no_reorient  #important for SAPT in psi4, default
symmetry c1  #important for SAPT in psi4, default
}

set PROPERTIES_ORIGIN ["COM"]
properties('MP2/aug-cc-pvtz', properties = ['dipole'])
--------------------------------------------------------------------------

    Molecular point group: c1
  Charge       = -1
  Multiplicity = 1
  Basis Set: AUG-CC-PVTZ
    Blend: AUG-CC-PVTZ
  Basis Set: (AUG-CC-PVTZ AUX)
    Blend: AUG-CC-PVTZ-JKFIT

    Orbital Energies [Eh]
    ---------------------

    Doubly Occupied:

       1A    -20.296011     2A    -20.285416     3A    -11.134313
       4A    -11.071742     5A    -11.071721     6A    -11.065620
       7A     -1.158437     8A     -1.053658     9A     -0.911128
      10A     -0.785138    11A     -0.676615    12A     -0.522613
      13A     -0.469158    14A     -0.447515    15A     -0.421992
      16A     -0.393246    17A     -0.390902    18A     -0.371698
      19A     -0.349678    20A     -0.316529    21A     -0.309634
      22A     -0.203879    23A     -0.197097    24A     -0.188338

  @DF-RHF Final Energy:  -305.42167688905118

   => Energetics <=

    Nuclear Repulsion Energy =            236.3095325163127143
    One-Electron Energy =                -895.2782641927134364
    Two-Electron Energy =                 353.5470547873495093
    Total Energy =                       -305.4216768890511844
  Basis Set: (AUG-CC-PVTZ AUX)
    Blend: AUG-CC-PVTZ-RI
    Molecular point group: c1

    Geometry (in Angstrom), charge = -1, multiplicity = 1:

       Center              X                  Y                   Z               Mass
    ------------   -----------------  -----------------  -----------------  -----------------
         O           -0.942445401835    -0.000022712344     1.274819527792    15.994914619570
         O           -1.702454401835     0.000012287656    -0.866473472208    15.994914619570
         C            0.674184598165     0.000005287656    -0.482758472208    12.000000000000
         C            1.395037598165    -1.255904712344     0.004807527792    12.000000000000
         C            1.395024598165     1.255913287656     0.004835527792    12.000000000000
         C           -0.786836301835    -0.000003412344    -0.005988472208    12.000000000000
         H            0.655057598165     0.000018287656    -1.579646472208     1.007825032230
         H            0.903921598165    -2.162565712344    -0.365844472208     1.007825032230
         H            2.438648598165    -1.275667712344    -0.330049472208     1.007825032230
         H            1.378430598165    -1.283702712344     1.097593527792     1.007825032230
         H            0.903897598165     2.162577287656    -0.365793472208     1.007825032230
         H            2.438635598165     1.275696287656    -0.330022472208     1.007825032230
         H            1.378419598165     1.283685287656     1.097622527792     1.007825032230

  Basis Set: AUG-CC-PVTZ
    Blend: AUG-CC-PVTZ
  Basis Set: (AUG-CC-PVTZ AUX)
    Blend: AUG-CC-PVTZ-JKFIT
	 Reference Energy          =    -305.4216768890511844 [Eh]
	 Singles Energy            =      -0.0000000000000000 [Eh]
	 Same-Spin Energy          =      -0.3101054963047682 [Eh]
	 Opposite-Spin Energy      =      -0.9869760861565207 [Eh]
	 Correlation Energy        =      -1.2970815824612889 [Eh]
	 Total Energy              =    -306.7187584715125013 [Eh]

	 ================> DF-SCS-MP2 Energies <==================
	-----------------------------------------------------------
	 SCS Same-Spin Scale       =       0.3333333333333333 [-]
	 SCS Opposite-Spin Scale   =       1.2000000000000000 [-]
	 SCS Same-Spin Energy      =      -0.1033684987682561 [Eh]
	 SCS Opposite-Spin Energy  =      -1.1843713033878247 [Eh]
	 SCS Correlation Energy    =      -1.2877398021560809 [Eh]
	 SCS Total Energy          =    -306.7094166912072524 [Eh]
	-----------------------------------------------------------

  Dipole Moment: [D]
     X:     5.7143      Y:     0.0000      Z:    -1.1999     Total:     5.8389

*** Psi4 exiting successfully. Buy a developer a beer!
