                               Psi4 1.3.2 release

  ==> Input File <==

--------------------------------------------------------------------------
#psi4
#
memory 32 gb

molecule  {
-1 1
  O        1.0693320    -0.9887487     0.8536667
  O        1.7695507     0.6192666    -0.6073377
  C       -0.5755730     0.1974970    -0.4143540
  C       -1.1221580     1.2656510     0.5365530
  C       -1.4484110    -1.0520220    -0.3893470
  C        0.8937330    -0.0971070    -0.0318180
  H       -0.5710850     0.6138500    -1.4298350
  H       -0.5071020     2.1704490     0.4966500
  H       -2.1534840     1.5416890     0.2872720
  H       -1.1096840     0.8890950     1.5649870
  H       -1.0556840    -1.8232910    -1.0601830
  H       -2.4751420    -0.8237670    -0.6995200
  H       -1.4750130    -1.4711080     0.6193320
units angstrom
no_reorient  #important for SAPT in psi4, default
symmetry c1  #important for SAPT in psi4, default
}

set PROPERTIES_ORIGIN ["COM"]
properties('MP2/aug-cc-pvtz', properties = ['dipole'])
--------------------------------------------------------------------------

    Molecular point group: c1
  Charge       = -1
  Multiplicity = 1
  Basis Set: AUG-CC-PVTZ
    Blend: AUG-CC-PVTZ
  Basis Set: (AUG-CC-PVTZ AUX)
    Blend: AUG-CC-PVTZ-JKFIT

    Orbital Energies [Eh]
    ---------------------

    Doubly Occupied:

       1A    -20.292205     2A    -20.291628     3A    -11.134855
       4A    -11.073431     5A    -11.067066     6A    -11.063854
       7A     -1.159345     8A     -1.059710     9A     -0.908986
      10A     -0.783590    11A     -0.673084    12A     -0.522372
      13A     -0.466475    14A     -0.448924    15A     -0.421752
      16A     -0.393454    17A     -0.390065    18A     -0.369476
      19A     -0.348382    20A     -0.320577    21A     -0.307949
      22A     -0.207226    23A     -0.194526    24A     -0.191141

  @DF-RHF Final Energy:  -305.42309064971050

   => Energetics <=

    Nuclear Repulsion Energy =            236.3525585552400514
    One-Electron Energy =                -895.3711489097349840
    Two-Electron Energy =                 353.5954997047844017
    Total Energy =                       -305.4230906497105025
  Basis Set: (AUG-CC-PVTZ AUX)
    Blend: AUG-CC-PVTZ-RI
    Molecular point group: c1

    Geometry (in Angstrom), charge = -1, multiplicity = 1:

       Center              X                  Y                   Z               Mass
    ------------   -----------------  -----------------  -----------------  -----------------
         O            0.966414164228    -0.976845535657     0.852180213067    15.994914619570
         O            1.666632864228     0.631169764343    -0.608824186933    15.994914619570
         C           -0.678490835772     0.209400164343    -0.415840486933    12.000000000000
         C           -1.225075835772     1.277554164343     0.535066513067    12.000000000000
         C           -1.551328835772    -1.040118835657    -0.390833486933    12.000000000000
         C            0.790815164228    -0.085203835657    -0.033304486933    12.000000000000
         H           -0.674002835772     0.625753164343    -1.431321486933     1.007825032230
         H           -0.610019835772     2.182352164343     0.495163513067     1.007825032230
         H           -2.256401835772     1.553592164343     0.285785513067     1.007825032230
         H           -1.212601835772     0.900998164343     1.563500513067     1.007825032230
         H           -1.158601835772    -1.811387835657    -1.061669486933     1.007825032230
         H           -2.578059835772    -0.811863835657    -0.701006486933     1.007825032230
         H           -1.577930835772    -1.459204835657     0.617845513067     1.007825032230

  Basis Set: AUG-CC-PVTZ
    Blend: AUG-CC-PVTZ
  Basis Set: (AUG-CC-PVTZ AUX)
    Blend: AUG-CC-PVTZ-JKFIT
	 Reference Energy          =    -305.4230906497105025 [Eh]
	 Singles Energy            =      -0.0000000000000000 [Eh]
	 Same-Spin Energy          =      -0.3099320394834737 [Eh]
	 Opposite-Spin Energy      =      -0.9866365979352076 [Eh]
	 Correlation Energy        =      -1.2965686374186813 [Eh]
	 Total Energy              =    -306.7196592871291614 [Eh]

	 ================> DF-SCS-MP2 Energies <==================
	-----------------------------------------------------------
	 SCS Same-Spin Scale       =       0.3333333333333333 [-]
	 SCS Opposite-Spin Scale   =       1.2000000000000000 [-]
	 SCS Same-Spin Energy      =      -0.1033106798278246 [Eh]
	 SCS Opposite-Spin Energy  =      -1.1839639175222492 [Eh]
	 SCS Correlation Energy    =      -1.2872745973500737 [Eh]
	 SCS Total Energy          =    -306.7103652470605653 [Eh]
	-----------------------------------------------------------

  Dipole Moment: [D]
     X:    -5.6624      Y:     0.7789      Z:    -0.6798     Total:     5.7560

*** Psi4 exiting successfully. Buy a developer a beer!
