                               Psi4 1.3.2 release

  ==> Input File <==

--------------------------------------------------------------------------
#psi4
#
memory 32 gb

molecule  {
-1 1
  O        1.0802400    -0.9868790     0.8533170
  O        1.7774660     0.6142500    -0.6014300
  C       -0.5755730     0.1974970    -0.4143540
  C       -1.1221580     1.2656510     0.5365530
  C       -1.4484110    -1.0520220    -0.3893470
  C        0.7037289    -0.0590101    -0.0812859
  H       -0.5710850     0.6138500    -1.4298350
  H       -0.5071020     2.1704490     0.4966500
  H       -2.1534840     1.5416890     0.2872720
  H       -1.1096840     0.8890950     1.5649870
  H       -1.0556840    -1.8232910    -1.0601830
  H       -2.4751420    -0.8237670    -0.6995200
  H       -1.4750130    -1.4711080     0.6193320
units angstrom
no_reorient  #important for SAPT in psi4, default
symmetry c1  #important for SAPT in psi4, default
}

set PROPERTIES_ORIGIN ["COM"]
properties('MP2/aug-cc-pvtz', properties = ['dipole'])
--------------------------------------------------------------------------

    Molecular point group: c1
  Charge       = -1
  Multiplicity = 1
  Basis Set: AUG-CC-PVTZ
    Blend: AUG-CC-PVTZ
  Basis Set: (AUG-CC-PVTZ AUX)
    Blend: AUG-CC-PVTZ-JKFIT

    Orbital Energies [Eh]
    ---------------------

    Doubly Occupied:

       1A    -20.286382     2A    -20.286192     3A    -11.143077
       4A    -11.089352     5A    -11.080281     6A    -11.074529
       7A     -1.110633     8A     -0.995761     9A     -0.944278
      10A     -0.798771    11A     -0.731916    12A     -0.546504
      13A     -0.482292    14A     -0.441207    15A     -0.435943
      16A     -0.405016    17A     -0.381708    18A     -0.364498
      19A     -0.357115    20A     -0.303202    21A     -0.273677
      22A     -0.219078    23A     -0.175168    24A     -0.165218

  @DF-RHF Final Energy:  -305.35213621122489

   => Energetics <=

    Nuclear Repulsion Energy =            236.6101926541095111
    One-Electron Energy =                -895.7410623623388801
    Two-Electron Energy =                 353.7787334970045094
    Total Energy =                       -305.3521362112248880
  Basis Set: (AUG-CC-PVTZ AUX)
    Blend: AUG-CC-PVTZ-RI
    Molecular point group: c1

    Geometry (in Angstrom), charge = -1, multiplicity = 1:

       Center              X                  Y                   Z               Mass
    ------------   -----------------  -----------------  -----------------  -----------------
         O            1.000057314049    -0.979649627970     0.857628862863    15.994914619570
         O            1.697283314049     0.621479372030    -0.597118137137    15.994914619570
         C           -0.655755685951     0.204726372030    -0.410042137137    12.000000000000
         C           -1.202340685951     1.272880372030     0.540864862863    12.000000000000
         C           -1.528593685951    -1.044792627970    -0.385035137137    12.000000000000
         C            0.623546214049    -0.051780727970    -0.076974037137    12.000000000000
         H           -0.651267685951     0.621079372030    -1.425523137137     1.007825032230
         H           -0.587284685951     2.177678372030     0.500961862863     1.007825032230
         H           -2.233666685951     1.548918372030     0.291583862863     1.007825032230
         H           -1.189866685951     0.896324372030     1.569298862863     1.007825032230
         H           -1.135866685951    -1.816061627970    -1.055871137137     1.007825032230
         H           -2.555324685951    -0.816537627970    -0.695208137137     1.007825032230
         H           -1.555195685951    -1.463878627970     0.623643862863     1.007825032230

  Basis Set: AUG-CC-PVTZ
    Blend: AUG-CC-PVTZ
  Basis Set: (AUG-CC-PVTZ AUX)
    Blend: AUG-CC-PVTZ-JKFIT
	 Reference Energy          =    -305.3521362112248880 [Eh]
	 Singles Energy            =      -0.0000000000000000 [Eh]
	 Same-Spin Energy          =      -0.3159731914128702 [Eh]
	 Opposite-Spin Energy      =      -0.9992387161454599 [Eh]
	 Correlation Energy        =      -1.3152119075583300 [Eh]
	 Total Energy              =    -306.6673481187831953 [Eh]

	 ================> DF-SCS-MP2 Energies <==================
	-----------------------------------------------------------
	 SCS Same-Spin Scale       =       0.3333333333333333 [-]
	 SCS Opposite-Spin Scale   =       1.2000000000000000 [-]
	 SCS Same-Spin Energy      =      -0.1053243971376234 [Eh]
	 SCS Opposite-Spin Energy  =      -1.1990864593745518 [Eh]
	 SCS Correlation Energy    =      -1.3044108565121753 [Eh]
	 SCS Total Energy          =    -306.6565470677370513 [Eh]
	-----------------------------------------------------------

  Dipole Moment: [D]
     X:    -6.8304      Y:     0.9763      Z:    -0.8424     Total:     6.9511

*** Psi4 exiting successfully. Buy a developer a beer!
