                               Psi4 1.3.2 release

  ==> Input File <==

--------------------------------------------------------------------------
#psi4
#
memory 32 gb

molecule  {
-1 1
  O        1.0802400    -0.9868790     0.8533170
  O        1.7774660     0.6142500    -0.6014300
  C       -0.5755730     0.1974970    -0.4143540
  C       -1.1221580     1.2656510     0.5365530
  C       -1.4484110    -1.0520220    -0.3893470
  C        0.7545007    -0.2091814     0.0579245
  H       -0.5710850     0.6138500    -1.4298350
  H       -0.5071020     2.1704490     0.4966500
  H       -2.1534840     1.5416890     0.2872720
  H       -1.1096840     0.8890950     1.5649870
  H       -1.0556840    -1.8232910    -1.0601830
  H       -2.4751420    -0.8237670    -0.6995200
  H       -1.4750130    -1.4711080     0.6193320
units angstrom
no_reorient  #important for SAPT in psi4, default
symmetry c1  #important for SAPT in psi4, default
}

set PROPERTIES_ORIGIN ["COM"]
properties('MP2/aug-cc-pvtz', properties = ['dipole'])
--------------------------------------------------------------------------

    Molecular point group: c1
  Charge       = -1
  Multiplicity = 1
  Basis Set: AUG-CC-PVTZ
    Blend: AUG-CC-PVTZ
  Basis Set: (AUG-CC-PVTZ AUX)
    Blend: AUG-CC-PVTZ-JKFIT

    Orbital Energies [Eh]
    ---------------------

    Doubly Occupied:

       1A    -20.328898     2A    -20.248251     3A    -11.133594
       4A    -11.080710     5A    -11.076165     6A    -11.072893
       7A     -1.218624     8A     -0.975943     9A     -0.922288
      10A     -0.793464    11A     -0.691955    12A     -0.545887
      13A     -0.479278    14A     -0.465717    15A     -0.434436
      16A     -0.404010    17A     -0.383764    18A     -0.375640
      19A     -0.361880    20A     -0.330916    21A     -0.322474
      22A     -0.188275    23A     -0.162976    24A     -0.156460

  @DF-RHF Final Energy:  -305.36944831502575

   => Energetics <=

    Nuclear Repulsion Energy =            236.9846200965223204
    One-Electron Energy =                -896.3991444239300108
    Two-Electron Energy =                 354.0450760123819123
    Total Energy =                       -305.3694483150257497
  Basis Set: (AUG-CC-PVTZ AUX)
    Blend: AUG-CC-PVTZ-RI
    Molecular point group: c1

    Geometry (in Angstrom), charge = -1, multiplicity = 1:

       Center              X                  Y                   Z               Mass
    ------------   -----------------  -----------------  -----------------  -----------------
         O            0.993057895719    -0.958946959366     0.838437267815    15.994914619570
         O            1.690283895719     0.642182040634    -0.616309732185    15.994914619570
         C           -0.662755104281     0.225429040634    -0.429233732185    12.000000000000
         C           -1.209340104281     1.293583040634     0.521673267815    12.000000000000
         C           -1.535593104281    -1.024089959366    -0.404226732185    12.000000000000
         C            0.667318595719    -0.181249359366     0.043044767815    12.000000000000
         H           -0.658267104281     0.641782040634    -1.444714732185     1.007825032230
         H           -0.594284104281     2.198381040634     0.481770267815     1.007825032230
         H           -2.240666104281     1.569621040634     0.272392267815     1.007825032230
         H           -1.196866104281     0.917027040634     1.550107267815     1.007825032230
         H           -1.142866104281    -1.795358959366    -1.075062732185     1.007825032230
         H           -2.562324104281    -0.795834959366    -0.714399732185     1.007825032230
         H           -1.562195104281    -1.443175959366     0.604452267815     1.007825032230

  Basis Set: AUG-CC-PVTZ
    Blend: AUG-CC-PVTZ
  Basis Set: (AUG-CC-PVTZ AUX)
    Blend: AUG-CC-PVTZ-JKFIT
	 Reference Energy          =    -305.3694483150257497 [Eh]
	 Singles Energy            =      -0.0000000000000000 [Eh]
	 Same-Spin Energy          =      -0.3120038696989041 [Eh]
	 Opposite-Spin Energy      =      -0.9914462706571046 [Eh]
	 Correlation Energy        =      -1.3034501403560088 [Eh]
	 Total Energy              =    -306.6728984553817554 [Eh]

	 ================> DF-SCS-MP2 Energies <==================
	-----------------------------------------------------------
	 SCS Same-Spin Scale       =       0.3333333333333333 [-]
	 SCS Opposite-Spin Scale   =       1.2000000000000000 [-]
	 SCS Same-Spin Energy      =      -0.1040012898996347 [Eh]
	 SCS Opposite-Spin Energy  =      -1.1897355247885255 [Eh]
	 SCS Correlation Energy    =      -1.2937368146881603 [Eh]
	 SCS Total Energy          =    -306.6631851297138951 [Eh]
	-----------------------------------------------------------

  Dipole Moment: [D]
     X:    -6.9645      Y:    -0.3880      Z:     0.3920     Total:     6.9863

*** Psi4 exiting successfully. Buy a developer a beer!
