                               Psi4 1.3.2 release

  ==> Input File <==

--------------------------------------------------------------------------
#psi4
#
memory 32 gb

molecule  {
-1 1
  O        1.1020923    -0.9837228     0.8516082
  O        1.7774660     0.6142500    -0.6014300
  C       -0.5670119     0.2160370    -0.4320062
  C       -1.1221580     1.2656510     0.5365530
  C       -1.4484110    -1.0520220    -0.3893470
  C        0.8937330    -0.0971070    -0.0318180
  H       -0.5710850     0.6138500    -1.4298350
  H       -0.5071020     2.1704490     0.4966500
  H       -2.1534840     1.5416890     0.2872720
  H       -1.1096840     0.8890950     1.5649870
  H       -1.0556840    -1.8232910    -1.0601830
  H       -2.4751420    -0.8237670    -0.6995200
  H       -1.4750130    -1.4711080     0.6193320
units angstrom
no_reorient  #important for SAPT in psi4, default
symmetry c1  #important for SAPT in psi4, default
}

set PROPERTIES_ORIGIN ["COM"]
properties('MP2/aug-cc-pvtz', properties = ['dipole'])
--------------------------------------------------------------------------

    Molecular point group: c1
  Charge       = -1
  Multiplicity = 1
  Basis Set: AUG-CC-PVTZ
    Blend: AUG-CC-PVTZ
  Basis Set: (AUG-CC-PVTZ AUX)
    Blend: AUG-CC-PVTZ-JKFIT

    Orbital Energies [Eh]
    ---------------------

    Doubly Occupied:

       1A    -20.291005     2A    -20.288688     3A    -11.133751
       4A    -11.074589     5A    -11.068751     6A    -11.065565
       7A     -1.158878     8A     -1.055803     9A     -0.908553
      10A     -0.782893    11A     -0.676354    12A     -0.525650
      13A     -0.465067    14A     -0.448069    15A     -0.421311
      16A     -0.393874    17A     -0.389393    18A     -0.369293
      19A     -0.348630    20A     -0.322901    21A     -0.308817
      22A     -0.204132    23A     -0.195744    24A     -0.188579

  @DF-RHF Final Energy:  -305.42236905253935

   => Energetics <=

    Nuclear Repulsion Energy =            235.9774314562015718
    One-Electron Energy =                -894.6270248336650184
    Two-Electron Energy =                 353.2272243249241228
    Total Energy =                       -305.4223690525393522
  Basis Set: (AUG-CC-PVTZ AUX)
    Blend: AUG-CC-PVTZ-RI
    Molecular point group: c1

    Geometry (in Angstrom), charge = -1, multiplicity = 1:

       Center              X                  Y                   Z               Mass
    ------------   -----------------  -----------------  -----------------  -----------------
         O            0.990519867498    -0.974377275549     0.851847940391    15.994914619570
         O            1.665893567498     0.623595524451    -0.601190259609    15.994914619570
         C           -0.678584332502     0.225382524451    -0.431766459609    12.000000000000
         C           -1.233730432502     1.274996524451     0.536792740391    12.000000000000
         C           -1.559983432502    -1.042676475549    -0.389107259609    12.000000000000
         C            0.782160567498    -0.087761475549    -0.031578259609    12.000000000000
         H           -0.682657432502     0.623195524451    -1.429595259609     1.007825032230
         H           -0.618674432502     2.179794524451     0.496889740391     1.007825032230
         H           -2.265056432502     1.551034524451     0.287511740391     1.007825032230
         H           -1.221256432502     0.898440524451     1.565226740391     1.007825032230
         H           -1.167256432502    -1.813945475549    -1.059943259609     1.007825032230
         H           -2.586714432502    -0.814421475549    -0.699280259609     1.007825032230
         H           -1.586585432502    -1.461762475549     0.619571740391     1.007825032230

  Basis Set: AUG-CC-PVTZ
    Blend: AUG-CC-PVTZ
  Basis Set: (AUG-CC-PVTZ AUX)
    Blend: AUG-CC-PVTZ-JKFIT
	 Reference Energy          =    -305.4223690525393522 [Eh]
	 Singles Energy            =      -0.0000000000000000 [Eh]
	 Same-Spin Energy          =      -0.3097119011413038 [Eh]
	 Opposite-Spin Energy      =      -0.9863892821206817 [Eh]
	 Correlation Energy        =      -1.2961011832619853 [Eh]
	 Total Energy              =    -306.7184702358013624 [Eh]

	 ================> DF-SCS-MP2 Energies <==================
	-----------------------------------------------------------
	 SCS Same-Spin Scale       =       0.3333333333333333 [-]
	 SCS Opposite-Spin Scale   =       1.2000000000000000 [-]
	 SCS Same-Spin Energy      =      -0.1032373003804346 [Eh]
	 SCS Opposite-Spin Energy  =      -1.1836671385448179 [Eh]
	 SCS Correlation Energy    =      -1.2869044389252524 [Eh]
	 SCS Total Energy          =    -306.7092734914646144 [Eh]
	-----------------------------------------------------------

  Dipole Moment: [D]
     X:    -5.7711      Y:     0.8158      Z:    -0.7145     Total:     5.8721

*** Psi4 exiting successfully. Buy a developer a beer!
