                               Psi4 1.3.2 release

  ==> Input File <==

--------------------------------------------------------------------------
#psi4
#
memory 32 gb

molecule  {
-1 1
  O        1.0584105    -0.9905504     0.8539490
  O        1.7615686     0.6242285    -0.6132017
  C       -0.5755730     0.1974970    -0.4143540
  C       -1.1221580     1.2656510     0.5365530
  C       -1.4484110    -1.0520220    -0.3893470
  C        0.8937330    -0.0971070    -0.0318180
  H       -0.5710850     0.6138500    -1.4298350
  H       -0.5071020     2.1704490     0.4966500
  H       -2.1534840     1.5416890     0.2872720
  H       -1.1096840     0.8890950     1.5649870
  H       -1.0556840    -1.8232910    -1.0601830
  H       -2.4751420    -0.8237670    -0.6995200
  H       -1.4750130    -1.4711080     0.6193320
units angstrom
no_reorient  #important for SAPT in psi4, default
symmetry c1  #important for SAPT in psi4, default
}

set PROPERTIES_ORIGIN ["COM"]
properties('MP2/aug-cc-pvtz', properties = ['dipole'])
--------------------------------------------------------------------------

    Molecular point group: c1
  Charge       = -1
  Multiplicity = 1
  Basis Set: AUG-CC-PVTZ
    Blend: AUG-CC-PVTZ
  Basis Set: (AUG-CC-PVTZ AUX)
    Blend: AUG-CC-PVTZ-JKFIT

    Orbital Energies [Eh]
    ---------------------

    Doubly Occupied:

       1A    -20.293173     2A    -20.292610     3A    -11.135361
       4A    -11.072849     5A    -11.066342     6A    -11.062626
       7A     -1.159561     8A     -1.061581     9A     -0.908098
      10A     -0.782962    11A     -0.672342    12A     -0.522049
      13A     -0.466125    14A     -0.448928    15A     -0.421405
      16A     -0.393309    17A     -0.390501    18A     -0.369162
      19A     -0.348240    20A     -0.320099    21A     -0.307626
      22A     -0.208901    23A     -0.193661    24A     -0.192236

  @DF-RHF Final Energy:  -305.42297270232160

   => Energetics <=

    Nuclear Repulsion Energy =            236.4562706574495223
    One-Electron Energy =                -895.5789943401923665
    Two-Electron Energy =                 353.6997509804212427
    Total Energy =                       -305.4229727023216014
  Basis Set: (AUG-CC-PVTZ AUX)
    Blend: AUG-CC-PVTZ-RI
    Molecular point group: c1

    Geometry (in Angstrom), charge = -1, multiplicity = 1:

       Center              X                  Y                   Z               Mass
    ------------   -----------------  -----------------  -----------------  -----------------
         O            0.958966302483    -0.979227939418     0.853488180487    15.994914619570
         O            1.662124402483     0.635550960582    -0.613662519513    15.994914619570
         C           -0.675017197517     0.208819460582    -0.414814819513    12.000000000000
         C           -1.221602197517     1.276973460582     0.536092180487    12.000000000000
         C           -1.547855197517    -1.040699539418    -0.389807819513    12.000000000000
         C            0.794288802483    -0.085784539418    -0.032278819513    12.000000000000
         H           -0.670529197517     0.625172460582    -1.430295819513     1.007825032230
         H           -0.606546197517     2.181771460582     0.496189180487     1.007825032230
         H           -2.252928197517     1.553011460582     0.286811180487     1.007825032230
         H           -1.209128197517     0.900417460582     1.564526180487     1.007825032230
         H           -1.155128197517    -1.811968539418    -1.060643819513     1.007825032230
         H           -2.574586197517    -0.812444539418    -0.699980819513     1.007825032230
         H           -1.574457197517    -1.459785539418     0.618871180487     1.007825032230

  Basis Set: AUG-CC-PVTZ
    Blend: AUG-CC-PVTZ
  Basis Set: (AUG-CC-PVTZ AUX)
    Blend: AUG-CC-PVTZ-JKFIT
	 Reference Energy          =    -305.4229727023216014 [Eh]
	 Singles Energy            =      -0.0000000000000000 [Eh]
	 Same-Spin Energy          =      -0.3099854857977001 [Eh]
	 Opposite-Spin Energy      =      -0.9867126217683857 [Eh]
	 Correlation Energy        =      -1.2966981075660859 [Eh]
	 Total Energy              =    -306.7196708098877025 [Eh]

	 ================> DF-SCS-MP2 Energies <==================
	-----------------------------------------------------------
	 SCS Same-Spin Scale       =       0.3333333333333333 [-]
	 SCS Opposite-Spin Scale   =       1.2000000000000000 [-]
	 SCS Same-Spin Energy      =      -0.1033284952659000 [Eh]
	 SCS Opposite-Spin Energy  =      -1.1840551461220628 [Eh]
	 SCS Correlation Energy    =      -1.2873836413879629 [Eh]
	 SCS Total Energy          =    -306.7103563437095772 [Eh]
	-----------------------------------------------------------

  Dipole Moment: [D]
     X:    -5.6051      Y:     0.7700      Z:    -0.6670     Total:     5.6969

*** Psi4 exiting successfully. Buy a developer a beer!
