                               Psi4 1.3.2 release

  ==> Input File <==

--------------------------------------------------------------------------
#psi4
#
memory 32 gb

molecule  {
-1 1
  O        1.0802400    -0.9868790     0.8533170
  O        1.7774660     0.6142500    -0.6014300
  C       -0.5755730     0.1974970    -0.4143540
  C       -1.1221580     1.2656510     0.5365530
  C       -1.4484110    -1.0520220    -0.3893470
  C        0.9887351    -0.1161554    -0.0070841
  H       -0.5710850     0.6138500    -1.4298350
  H       -0.5071020     2.1704490     0.4966500
  H       -2.1534840     1.5416890     0.2872720
  H       -1.1096840     0.8890950     1.5649870
  H       -1.0556840    -1.8232910    -1.0601830
  H       -2.4751420    -0.8237670    -0.6995200
  H       -1.4750130    -1.4711080     0.6193320
units angstrom
no_reorient  #important for SAPT in psi4, default
symmetry c1  #important for SAPT in psi4, default
}

set PROPERTIES_ORIGIN ["COM"]
properties('MP2/aug-cc-pvtz', properties = ['dipole'])
--------------------------------------------------------------------------

    Molecular point group: c1
  Charge       = -1
  Multiplicity = 1
  Basis Set: AUG-CC-PVTZ
    Blend: AUG-CC-PVTZ
  Basis Set: (AUG-CC-PVTZ AUX)
    Blend: AUG-CC-PVTZ-JKFIT

    Orbital Energies [Eh]
    ---------------------

    Doubly Occupied:

       1A    -20.297607     2A    -20.296803     3A    -11.135021
       4A    -11.066460     5A    -11.060782     6A    -11.052894
       7A     -1.185278     8A     -1.093041     9A     -0.895174
      10A     -0.776309    11A     -0.649690    12A     -0.513496
      13A     -0.464323    14A     -0.449587    15A     -0.417201
      16A     -0.405571    17A     -0.387554    18A     -0.372970
      19A     -0.357672    20A     -0.317772    21A     -0.309687
      22A     -0.222491    23A     -0.205859    24A     -0.171419

  @DF-RHF Final Energy:  -305.42153217281623

   => Energetics <=

    Nuclear Repulsion Energy =            236.1599694710062636
    One-Electron Energy =                -894.9536824972399245
    Two-Electron Energy =                 353.3721808534174897
    Total Energy =                       -305.4215321728162280
  Basis Set: (AUG-CC-PVTZ AUX)
    Blend: AUG-CC-PVTZ-RI
    Molecular point group: c1

    Geometry (in Angstrom), charge = -1, multiplicity = 1:

       Center              X                  Y                   Z               Mass
    ------------   -----------------  -----------------  -----------------  -----------------
         O            0.960766258377    -0.971771556673     0.847399376435    15.994914619570
         O            1.657992258377     0.629357443327    -0.607347623565    15.994914619570
         C           -0.695046741623     0.212604443327    -0.420271623565    12.000000000000
         C           -1.241631741623     1.280758443327     0.530635376435    12.000000000000
         C           -1.567884741623    -1.036914556673    -0.395264623565    12.000000000000
         C            0.869261358377    -0.101047956673    -0.013001723565    12.000000000000
         H           -0.690558741623     0.628957443327    -1.435752623565     1.007825032230
         H           -0.626575741623     2.185556443327     0.490732376435     1.007825032230
         H           -2.272957741623     1.556796443327     0.281354376435     1.007825032230
         H           -1.229157741623     0.904202443327     1.559069376435     1.007825032230
         H           -1.175157741623    -1.808183556673    -1.066100623565     1.007825032230
         H           -2.594615741623    -0.808659556673    -0.705437623565     1.007825032230
         H           -1.594486741623    -1.456000556673     0.613414376435     1.007825032230

  Basis Set: AUG-CC-PVTZ
    Blend: AUG-CC-PVTZ
  Basis Set: (AUG-CC-PVTZ AUX)
    Blend: AUG-CC-PVTZ-JKFIT
	 Reference Energy          =    -305.4215321728162280 [Eh]
	 Singles Energy            =      -0.0000000000000000 [Eh]
	 Same-Spin Energy          =      -0.3087826893114747 [Eh]
	 Opposite-Spin Energy      =      -0.9836861230844113 [Eh]
	 Correlation Energy        =      -1.2924688123958861 [Eh]
	 Total Energy              =    -306.7140009852121239 [Eh]

	 ================> DF-SCS-MP2 Energies <==================
	-----------------------------------------------------------
	 SCS Same-Spin Scale       =       0.3333333333333333 [-]
	 SCS Opposite-Spin Scale   =       1.2000000000000000 [-]
	 SCS Same-Spin Energy      =      -0.1029275631038249 [Eh]
	 SCS Opposite-Spin Energy  =      -1.1804233477012935 [Eh]
	 SCS Correlation Energy    =      -1.2833509108051184 [Eh]
	 SCS Total Energy          =    -306.7048830836213256 [Eh]
	-----------------------------------------------------------

  Dipole Moment: [D]
     X:    -4.9561      Y:     0.6605      Z:    -0.5714     Total:     5.0324

*** Psi4 exiting successfully. Buy a developer a beer!
