                               Psi4 1.3.2 release

  ==> Input File <==

--------------------------------------------------------------------------
#psi4
#
memory 32 gb

molecule  {
-1 1
  O        1.0802400    -0.9868790     0.8533170
  O        1.7614812     0.6249962    -0.6123787
  C       -0.5670760     0.2168746    -0.4311150
  C       -1.1221580     1.2656510     0.5365530
  C       -1.4484110    -1.0520220    -0.3893470
  C        0.8937330    -0.0971070    -0.0318180
  H       -0.5710850     0.6138500    -1.4298350
  H       -0.5071020     2.1704490     0.4966500
  H       -2.1534840     1.5416890     0.2872720
  H       -1.1096840     0.8890950     1.5649870
  H       -1.0556840    -1.8232910    -1.0601830
  H       -2.4751420    -0.8237670    -0.6995200
  H       -1.4750130    -1.4711080     0.6193320
units angstrom
no_reorient  #important for SAPT in psi4, default
symmetry c1  #important for SAPT in psi4, default
}

set PROPERTIES_ORIGIN ["COM"]
properties('MP2/aug-cc-pvtz', properties = ['dipole'])
--------------------------------------------------------------------------

    Molecular point group: c1
  Charge       = -1
  Multiplicity = 1
  Basis Set: AUG-CC-PVTZ
    Blend: AUG-CC-PVTZ
  Basis Set: (AUG-CC-PVTZ AUX)
    Blend: AUG-CC-PVTZ-JKFIT

    Orbital Energies [Eh]
    ---------------------

    Doubly Occupied:

       1A    -20.292988     2A    -20.290695     3A    -11.134755
       4A    -11.073388     5A    -11.067319     6A    -11.063152
       7A     -1.159258     8A     -1.059638     9A     -0.906859
      10A     -0.781665    11A     -0.674816    12A     -0.524928
      13A     -0.464453    14A     -0.448088    15A     -0.420620
      16A     -0.393132    17A     -0.390665    18A     -0.368727
      19A     -0.348368    20A     -0.321654    21A     -0.308482
      22A     -0.207477    23A     -0.194046    24A     -0.191024

  @DF-RHF Final Energy:  -305.42257975670333

   => Energetics <=

    Nuclear Repulsion Energy =            236.1801900400714658
    One-Electron Energy =                -895.0331495293885382
    Two-Electron Energy =                 353.4303797326137442
    Total Energy =                       -305.4225797567033283
  Basis Set: (AUG-CC-PVTZ AUX)
    Blend: AUG-CC-PVTZ-RI
    Molecular point group: c1

    Geometry (in Angstrom), charge = -1, multiplicity = 1:

       Center              X                  Y                   Z               Mass
    ------------   -----------------  -----------------  -----------------  -----------------
         O            0.975629175144    -0.979043650737     0.855131760605    15.994914619570
         O            1.656870375144     0.632831549263    -0.610563939395    15.994914619570
         C           -0.671686824856     0.224709949263    -0.429300239395    12.000000000000
         C           -1.226768824856     1.273486349263     0.538367760605    12.000000000000
         C           -1.553021824856    -1.044186650737    -0.387532239395    12.000000000000
         C            0.789122175144    -0.089271650737    -0.030003239395    12.000000000000
         H           -0.675695824856     0.621685349263    -1.428020239395     1.007825032230
         H           -0.611712824856     2.178284349263     0.498464760605     1.007825032230
         H           -2.258094824856     1.549524349263     0.289086760605     1.007825032230
         H           -1.214294824856     0.896930349263     1.566801760605     1.007825032230
         H           -1.160294824856    -1.815455650737    -1.058368239395     1.007825032230
         H           -2.579752824856    -0.815931650737    -0.697705239395     1.007825032230
         H           -1.579623824856    -1.463272650737     0.621146760605     1.007825032230

  Basis Set: AUG-CC-PVTZ
    Blend: AUG-CC-PVTZ
  Basis Set: (AUG-CC-PVTZ AUX)
    Blend: AUG-CC-PVTZ-JKFIT
	 Reference Energy          =    -305.4225797567033283 [Eh]
	 Singles Energy            =      -0.0000000000000000 [Eh]
	 Same-Spin Energy          =      -0.3098031662613768 [Eh]
	 Opposite-Spin Energy      =      -0.9865106529715730 [Eh]
	 Correlation Energy        =      -1.2963138192329497 [Eh]
	 Total Energy              =    -306.7188935759363062 [Eh]

	 ================> DF-SCS-MP2 Energies <==================
	-----------------------------------------------------------
	 SCS Same-Spin Scale       =       0.3333333333333333 [-]
	 SCS Opposite-Spin Scale   =       1.2000000000000000 [-]
	 SCS Same-Spin Energy      =      -0.1032677220871256 [Eh]
	 SCS Opposite-Spin Energy  =      -1.1838127835658876 [Eh]
	 SCS Correlation Energy    =      -1.2870805056530132 [Eh]
	 SCS Total Energy          =    -306.7096602623563513 [Eh]
	-----------------------------------------------------------

  Dipole Moment: [D]
     X:    -5.6563      Y:     0.7985      Z:    -0.6905     Total:     5.7539

*** Psi4 exiting successfully. Buy a developer a beer!
