                               Psi4 1.3.2 release

  ==> Input File <==

--------------------------------------------------------------------------
#psi4
#
memory 32 gb

molecule  {
-1 1
  O        1.0365309    -0.9939497     0.8543112
  O        1.7454069     0.6339874    -0.6247962
  C       -0.5755730     0.1974970    -0.4143540
  C       -1.1221580     1.2656510     0.5365530
  C       -1.4484110    -1.0520220    -0.3893470
  C        0.8937330    -0.0971070    -0.0318180
  H       -0.5710850     0.6138500    -1.4298350
  H       -0.5071020     2.1704490     0.4966500
  H       -2.1534840     1.5416890     0.2872720
  H       -1.1096840     0.8890950     1.5649870
  H       -1.0556840    -1.8232910    -1.0601830
  H       -2.4751420    -0.8237670    -0.6995200
  H       -1.4750130    -1.4711080     0.6193320
units angstrom
no_reorient  #important for SAPT in psi4, default
symmetry c1  #important for SAPT in psi4, default
}

set PROPERTIES_ORIGIN ["COM"]
properties('MP2/aug-cc-pvtz', properties = ['dipole'])
--------------------------------------------------------------------------

    Molecular point group: c1
  Charge       = -1
  Multiplicity = 1
  Basis Set: AUG-CC-PVTZ
    Blend: AUG-CC-PVTZ
  Basis Set: (AUG-CC-PVTZ AUX)
    Blend: AUG-CC-PVTZ-JKFIT

    Orbital Energies [Eh]
    ---------------------

    Doubly Occupied:

       1A    -20.295070     2A    -20.294534     3A    -11.136382
       4A    -11.071676     5A    -11.064882     6A    -11.060143
       7A     -1.160053     8A     -1.065232     9A     -0.906305
      10A     -0.781697    11A     -0.670853    12A     -0.521425
      13A     -0.465465    14A     -0.448872    15A     -0.420743
      16A     -0.393889    17A     -0.390485    18A     -0.368497
      19A     -0.347981    20A     -0.319125    21A     -0.306918
      22A     -0.212085    23A     -0.194943    24A     -0.191285

  @DF-RHF Final Energy:  -305.42228589915015

   => Energetics <=

    Nuclear Repulsion Energy =            236.6741329008054322
    One-Electron Energy =                -896.0157600240531792
    Two-Electron Energy =                 353.9193412240975363
    Total Energy =                       -305.4222858991501539
  Basis Set: (AUG-CC-PVTZ AUX)
    Blend: AUG-CC-PVTZ-RI
    Molecular point group: c1

    Geometry (in Angstrom), charge = -1, multiplicity = 1:

       Center              X                  Y                   Z               Mass
    ------------   -----------------  -----------------  -----------------  -----------------
         O            0.944076996129    -0.983795850151     0.855914376074    15.994914619570
         O            1.652952996129     0.644141249849    -0.623193023926    15.994914619570
         C           -0.668026903871     0.207650849849    -0.412750823926    12.000000000000
         C           -1.214611903871     1.275804849849     0.538156176074    12.000000000000
         C           -1.540864903871    -1.041868150151    -0.387743823926    12.000000000000
         C            0.801279096129    -0.086953150151    -0.030214823926    12.000000000000
         H           -0.663538903871     0.624003849849    -1.428231823926     1.007825032230
         H           -0.599555903871     2.180602849849     0.498253176074     1.007825032230
         H           -2.245937903871     1.551842849849     0.288875176074     1.007825032230
         H           -1.202137903871     0.899248849849     1.566590176074     1.007825032230
         H           -1.148137903871    -1.813137150151    -1.058579823926     1.007825032230
         H           -2.567595903871    -0.813613150151    -0.697916823926     1.007825032230
         H           -1.567466903871    -1.460954150151     0.620935176074     1.007825032230

  Basis Set: AUG-CC-PVTZ
    Blend: AUG-CC-PVTZ
  Basis Set: (AUG-CC-PVTZ AUX)
    Blend: AUG-CC-PVTZ-JKFIT
	 Reference Energy          =    -305.4222858991501539 [Eh]
	 Singles Energy            =      -0.0000000000000000 [Eh]
	 Same-Spin Energy          =      -0.3101116791889897 [Eh]
	 Opposite-Spin Energy      =      -0.9869004145823623 [Eh]
	 Correlation Energy        =      -1.2970120937713521 [Eh]
	 Total Energy              =    -306.7192979929214971 [Eh]

	 ================> DF-SCS-MP2 Energies <==================
	-----------------------------------------------------------
	 SCS Same-Spin Scale       =       0.3333333333333333 [-]
	 SCS Opposite-Spin Scale   =       1.2000000000000000 [-]
	 SCS Same-Spin Energy      =      -0.1033705597296632 [Eh]
	 SCS Opposite-Spin Energy  =      -1.1842804974988348 [Eh]
	 SCS Correlation Energy    =      -1.2876510572284980 [Eh]
	 SCS Total Energy          =    -306.7099369563786695 [Eh]
	-----------------------------------------------------------

  Dipole Moment: [D]
     X:    -5.4895      Y:     0.7521      Z:    -0.6412     Total:     5.5778

*** Psi4 exiting successfully. Buy a developer a beer!
