                               Psi4 1.3.2 release

  ==> Input File <==

--------------------------------------------------------------------------
#psi4
#
memory 32 gb

molecule  {
-1 1
  O        1.0802400    -0.9868790     0.8533170
  O        1.7774660     0.6142500    -0.6014300
  C       -0.5755730     0.1974970    -0.4143540
  C       -1.1221580     1.2656510     0.5365530
  C       -1.4484110    -1.0520220    -0.3893470
  C        0.7987309    -0.0780586    -0.0565519
  H       -0.5710850     0.6138500    -1.4298350
  H       -0.5071020     2.1704490     0.4966500
  H       -2.1534840     1.5416890     0.2872720
  H       -1.1096840     0.8890950     1.5649870
  H       -1.0556840    -1.8232910    -1.0601830
  H       -2.4751420    -0.8237670    -0.6995200
  H       -1.4750130    -1.4711080     0.6193320
units angstrom
no_reorient  #important for SAPT in psi4, default
symmetry c1  #important for SAPT in psi4, default
}

set PROPERTIES_ORIGIN ["COM"]
properties('MP2/aug-cc-pvtz', properties = ['dipole'])
--------------------------------------------------------------------------

    Molecular point group: c1
  Charge       = -1
  Multiplicity = 1
  Basis Set: AUG-CC-PVTZ
    Blend: AUG-CC-PVTZ
  Basis Set: (AUG-CC-PVTZ AUX)
    Blend: AUG-CC-PVTZ-JKFIT

    Orbital Energies [Eh]
    ---------------------

    Doubly Occupied:

       1A    -20.288124     2A    -20.287755     3A    -11.138078
       4A    -11.081354     5A    -11.074103     6A    -11.071897
       7A     -1.133949     8A     -1.025428     9A     -0.925974
      10A     -0.791494    11A     -0.701659    12A     -0.534523
      13A     -0.473782    14A     -0.443214    15A     -0.430623
      16A     -0.399198    17A     -0.381328    18A     -0.365681
      19A     -0.350338    20A     -0.317886    21A     -0.293841
      22A     -0.211450    23A     -0.189706    24A     -0.176626

  @DF-RHF Final Energy:  -305.40161276584092

   => Energetics <=

    Nuclear Repulsion Energy =            236.3783550815275305
    One-Electron Energy =                -895.3839101142034451
    Two-Electron Energy =                 353.6039422668350198
    Total Energy =                       -305.4016127658409232
  Basis Set: (AUG-CC-PVTZ AUX)
    Blend: AUG-CC-PVTZ-RI
    Molecular point group: c1

    Geometry (in Angstrom), charge = -1, multiplicity = 1:

       Center              X                  Y                   Z               Mass
    ------------   -----------------  -----------------  -----------------  -----------------
         O            0.986960304682    -0.977023595013     0.854219024863    15.994914619570
         O            1.684186304682     0.624105404987    -0.600527975137    15.994914619570
         C           -0.668852695318     0.207352404987    -0.413451975137    12.000000000000
         C           -1.215437695318     1.275506404987     0.537455024863    12.000000000000
         C           -1.541690695318    -1.042166595013    -0.388444975137    12.000000000000
         C            0.705451204682    -0.068203195013    -0.055649875137    12.000000000000
         H           -0.664364695318     0.623705404987    -1.428932975137     1.007825032230
         H           -0.600381695318     2.180304404987     0.497552024863     1.007825032230
         H           -2.246763695318     1.551544404987     0.288174024863     1.007825032230
         H           -1.202963695318     0.898950404987     1.565889024863     1.007825032230
         H           -1.148963695318    -1.813435595013    -1.059280975137     1.007825032230
         H           -2.568421695318    -0.813911595013    -0.698617975137     1.007825032230
         H           -1.568292695318    -1.461252595013     0.620234024863     1.007825032230

  Basis Set: AUG-CC-PVTZ
    Blend: AUG-CC-PVTZ
  Basis Set: (AUG-CC-PVTZ AUX)
    Blend: AUG-CC-PVTZ-JKFIT
	 Reference Energy          =    -305.4016127658409232 [Eh]
	 Singles Energy            =      -0.0000000000000000 [Eh]
	 Same-Spin Energy          =      -0.3123079917057130 [Eh]
	 Opposite-Spin Energy      =      -0.9918202098846187 [Eh]
	 Correlation Energy        =      -1.3041282015903317 [Eh]
	 Total Energy              =    -306.7057409674312680 [Eh]

	 ================> DF-SCS-MP2 Energies <==================
	-----------------------------------------------------------
	 SCS Same-Spin Scale       =       0.3333333333333333 [-]
	 SCS Opposite-Spin Scale   =       1.2000000000000000 [-]
	 SCS Same-Spin Energy      =      -0.1041026639019043 [Eh]
	 SCS Opposite-Spin Energy  =      -1.1901842518615424 [Eh]
	 SCS Correlation Energy    =      -1.2942869157634467 [Eh]
	 SCS Total Energy          =    -306.6958996816043737 [Eh]
	-----------------------------------------------------------

  Dipole Moment: [D]
     X:    -6.3223      Y:     0.8900      Z:    -0.7800     Total:     6.4321

*** Psi4 exiting successfully. Buy a developer a beer!
