                               Psi4 1.3.2 release

  ==> Input File <==

--------------------------------------------------------------------------
#psi4
#
memory 32 gb

molecule  {
-1 1
  O        1.1238811    -0.9802965     0.8496304
  O        1.7774660     0.6142500    -0.6014300
  C       -0.5580059     0.2344816    -0.4495364
  C       -1.1221580     1.2656510     0.5365530
  C       -1.4484110    -1.0520220    -0.3893470
  C        0.8937330    -0.0971070    -0.0318180
  H       -0.5710850     0.6138500    -1.4298350
  H       -0.5071020     2.1704490     0.4966500
  H       -2.1534840     1.5416890     0.2872720
  H       -1.1096840     0.8890950     1.5649870
  H       -1.0556840    -1.8232910    -1.0601830
  H       -2.4751420    -0.8237670    -0.6995200
  H       -1.4750130    -1.4711080     0.6193320
units angstrom
no_reorient  #important for SAPT in psi4, default
symmetry c1  #important for SAPT in psi4, default
}

set PROPERTIES_ORIGIN ["COM"]
properties('MP2/aug-cc-pvtz', properties = ['dipole'])
--------------------------------------------------------------------------

    Molecular point group: c1
  Charge       = -1
  Multiplicity = 1
  Basis Set: AUG-CC-PVTZ
    Blend: AUG-CC-PVTZ
  Basis Set: (AUG-CC-PVTZ AUX)
    Blend: AUG-CC-PVTZ-JKFIT

    Orbital Energies [Eh]
    ---------------------

    Doubly Occupied:

       1A    -20.290841     2A    -20.286789     3A    -11.133277
       4A    -11.075285     5A    -11.069685     6A    -11.066282
       7A     -1.158736     8A     -1.053888     9A     -0.907346
      10A     -0.781590    11A     -0.679049    12A     -0.528963
      13A     -0.463245    14A     -0.447278    15A     -0.420684
      16A     -0.394047    17A     -0.389420    18A     -0.368996
      19A     -0.349833    20A     -0.326182    21A     -0.306100
      22A     -0.203262    23A     -0.195292    24A     -0.187291

  @DF-RHF Final Energy:  -305.41967366585590

   => Energetics <=

    Nuclear Repulsion Energy =            235.7112410117089780
    One-Electron Energy =                -894.0951042412566494
    Two-Electron Energy =                 352.9641895636917184
    Total Energy =                       -305.4196736658558962
  Basis Set: (AUG-CC-PVTZ AUX)
    Blend: AUG-CC-PVTZ-RI
    Molecular point group: c1

    Geometry (in Angstrom), charge = -1, multiplicity = 1:

       Center              X                  Y                   Z               Mass
    ------------   -----------------  -----------------  -----------------  -----------------
         O            1.007063287863    -0.974123355706     0.852650291368    15.994914619570
         O            1.660648187863     0.620423144294    -0.598410108632    15.994914619570
         C           -0.674823712137     0.240654744294    -0.446516508632    12.000000000000
         C           -1.238975812137     1.271824144294     0.539572891368    12.000000000000
         C           -1.565228812137    -1.045848855706    -0.386327108632    12.000000000000
         C            0.776915187863    -0.090933855706    -0.028798108632    12.000000000000
         H           -0.687902812137     0.620023144294    -1.426815108632     1.007825032230
         H           -0.623919812137     2.176622144294     0.499669891368     1.007825032230
         H           -2.270301812137     1.547862144294     0.290291891368     1.007825032230
         H           -1.226501812137     0.895268144294     1.568006891368     1.007825032230
         H           -1.172501812137    -1.817117855706    -1.057163108632     1.007825032230
         H           -2.591959812137    -0.817593855706    -0.696500108632     1.007825032230
         H           -1.591830812137    -1.464934855706     0.622351891368     1.007825032230

  Basis Set: AUG-CC-PVTZ
    Blend: AUG-CC-PVTZ
  Basis Set: (AUG-CC-PVTZ AUX)
    Blend: AUG-CC-PVTZ-JKFIT
	 Reference Energy          =    -305.4196736658558962 [Eh]
	 Singles Energy            =      -0.0000000000000000 [Eh]
	 Same-Spin Energy          =      -0.3095984579199780 [Eh]
	 Opposite-Spin Energy      =      -0.9863396401752808 [Eh]
	 Correlation Energy        =      -1.2959380980952586 [Eh]
	 Total Energy              =    -306.7156117639511308 [Eh]

	 ================> DF-SCS-MP2 Energies <==================
	-----------------------------------------------------------
	 SCS Same-Spin Scale       =       0.3333333333333333 [-]
	 SCS Opposite-Spin Scale   =       1.2000000000000000 [-]
	 SCS Same-Spin Energy      =      -0.1031994859733260 [Eh]
	 SCS Opposite-Spin Energy  =      -1.1836075682103369 [Eh]
	 SCS Correlation Energy    =      -1.2868070541836629 [Eh]
	 SCS Total Energy          =    -306.7064807200395649 [Eh]
	-----------------------------------------------------------

  Dipole Moment: [D]
     X:    -5.8187      Y:     0.8431      Z:    -0.7330     Total:     5.9250

*** Psi4 exiting successfully. Buy a developer a beer!
