                               Psi4 1.3.2 release

  ==> Input File <==

--------------------------------------------------------------------------
#psi4
#
memory 32 gb

molecule  {
-1 1
  O        1.0802400    -0.9868790     0.8533170
  O        1.7774660     0.6142500    -0.6014300
  C       -0.5755730     0.1974970    -0.4143540
  C       -1.1456483     1.2645950     0.5238614
  C       -1.4484110    -1.0520220    -0.3893470
  C        0.8950606    -0.1152011    -0.0518046
  H       -0.5710850     0.6138500    -1.4298350
  H       -0.5071020     2.1704490     0.4966500
  H       -2.1534840     1.5416890     0.2872720
  H       -1.1096840     0.8890950     1.5649870
  H       -1.0556840    -1.8232910    -1.0601830
  H       -2.4751420    -0.8237670    -0.6995200
  H       -1.4750130    -1.4711080     0.6193320
units angstrom
no_reorient  #important for SAPT in psi4, default
symmetry c1  #important for SAPT in psi4, default
}

set PROPERTIES_ORIGIN ["COM"]
properties('MP2/aug-cc-pvtz', properties = ['dipole'])
--------------------------------------------------------------------------

    Molecular point group: c1
  Charge       = -1
  Multiplicity = 1
  Basis Set: AUG-CC-PVTZ
    Blend: AUG-CC-PVTZ
  Basis Set: (AUG-CC-PVTZ AUX)
    Blend: AUG-CC-PVTZ-JKFIT

    Orbital Energies [Eh]
    ---------------------

    Doubly Occupied:

       1A    -20.291468     2A    -20.291103     3A    -11.135004
       4A    -11.074201     5A    -11.067343     6A    -11.065327
       7A     -1.158852     8A     -1.057434     9A     -0.909955
      10A     -0.783728    11A     -0.674723    12A     -0.522202
      13A     -0.466215    14A     -0.448841    15A     -0.424313
      16A     -0.395173    17A     -0.387212    18A     -0.370996
      19A     -0.347724    20A     -0.318964    21A     -0.307176
      22A     -0.205574    23A     -0.196507    24A     -0.189700

  @DF-RHF Final Energy:  -305.42135753031977

   => Energetics <=

    Nuclear Repulsion Energy =            236.1027515712052889
    One-Electron Energy =                -894.8687452427392373
    Two-Electron Energy =                 353.3446361412141528
    Total Energy =                       -305.4213575303197672
  Basis Set: (AUG-CC-PVTZ AUX)
    Blend: AUG-CC-PVTZ-RI
    Molecular point group: c1

    Geometry (in Angstrom), charge = -1, multiplicity = 1:

       Center              X                  Y                   Z               Mass
    ------------   -----------------  -----------------  -----------------  -----------------
         O            0.976918639201    -0.971757536275     0.855314228874    15.994914619570
         O            1.674144639201     0.629371463725    -0.599432771126    15.994914619570
         C           -0.678894360799     0.212618463725    -0.412356771126    12.000000000000
         C           -1.248969660799     1.279716463725     0.525858628874    12.000000000000
         C           -1.551732360799    -1.036900536275    -0.387349771126    12.000000000000
         C            0.791739239201    -0.100079636275    -0.049807371126    12.000000000000
         H           -0.674406360799     0.628971463725    -1.427837771126     1.007825032230
         H           -0.610423360799     2.185570463725     0.498647228874     1.007825032230
         H           -2.256805360799     1.556810463725     0.289269228874     1.007825032230
         H           -1.213005360799     0.904216463725     1.566984228874     1.007825032230
         H           -1.159005360799    -1.808169536275    -1.058185771126     1.007825032230
         H           -2.578463360799    -0.808645536275    -0.697522771126     1.007825032230
         H           -1.578334360799    -1.455986536275     0.621329228874     1.007825032230

  Basis Set: AUG-CC-PVTZ
    Blend: AUG-CC-PVTZ
  Basis Set: (AUG-CC-PVTZ AUX)
    Blend: AUG-CC-PVTZ-JKFIT
	 Reference Energy          =    -305.4213575303197672 [Eh]
	 Singles Energy            =      -0.0000000000000000 [Eh]
	 Same-Spin Energy          =      -0.3099761242974301 [Eh]
	 Opposite-Spin Energy      =      -0.9868279430695155 [Eh]
	 Correlation Energy        =      -1.2968040673669456 [Eh]
	 Total Energy              =    -306.7181615976867306 [Eh]

	 ================> DF-SCS-MP2 Energies <==================
	-----------------------------------------------------------
	 SCS Same-Spin Scale       =       0.3333333333333333 [-]
	 SCS Opposite-Spin Scale   =       1.2000000000000000 [-]
	 SCS Same-Spin Energy      =      -0.1033253747658100 [Eh]
	 SCS Opposite-Spin Energy  =      -1.1841935316834185 [Eh]
	 SCS Correlation Energy    =      -1.2875189064492285 [Eh]
	 SCS Total Energy          =    -306.7088764367690032 [Eh]
	-----------------------------------------------------------

  Dipole Moment: [D]
     X:    -5.7455      Y:     0.7906      Z:    -0.7165     Total:     5.8438

*** Psi4 exiting successfully. Buy a developer a beer!
