                               Psi4 1.3.2 release

  ==> Input File <==

--------------------------------------------------------------------------
#psi4
#
memory 32 gb

molecule  {
-1 1
  O        1.0143690    -0.9947181     0.8568239
  O        1.7774660     0.6142500    -0.6014300
  C       -0.5985611     0.1413614    -0.3607200
  C       -1.1221580     1.2656510     0.5365530
  C       -1.4484110    -1.0520220    -0.3893470
  C        0.8937330    -0.0971070    -0.0318180
  H       -0.5710850     0.6138500    -1.4298350
  H       -0.5071020     2.1704490     0.4966500
  H       -2.1534840     1.5416890     0.2872720
  H       -1.1096840     0.8890950     1.5649870
  H       -1.0556840    -1.8232910    -1.0601830
  H       -2.4751420    -0.8237670    -0.6995200
  H       -1.4750130    -1.4711080     0.6193320
units angstrom
no_reorient  #important for SAPT in psi4, default
symmetry c1  #important for SAPT in psi4, default
}

set PROPERTIES_ORIGIN ["COM"]
properties('MP2/aug-cc-pvtz', properties = ['dipole'])
--------------------------------------------------------------------------

    Molecular point group: c1
  Charge       = -1
  Multiplicity = 1
  Basis Set: AUG-CC-PVTZ
    Blend: AUG-CC-PVTZ
  Basis Set: (AUG-CC-PVTZ AUX)
    Blend: AUG-CC-PVTZ-JKFIT

    Orbital Energies [Eh]
    ---------------------

    Doubly Occupied:

       1A    -20.296749     2A    -20.292261     3A    -11.136919
       4A    -11.072986     5A    -11.065348     6A    -11.064482
       7A     -1.160782     8A     -1.064439     9A     -0.914559
      10A     -0.788229    11A     -0.667195    12A     -0.516311
      13A     -0.471585    14A     -0.451739    15A     -0.425453
      16A     -0.394181    17A     -0.390215    18A     -0.372521
      19A     -0.351489    20A     -0.325682    21A     -0.288805
      22A     -0.211028    23A     -0.194341    24A     -0.191562

  @DF-RHF Final Energy:  -305.41340071307036

   => Energetics <=

    Nuclear Repulsion Energy =            237.1284936317417475
    One-Electron Energy =                -896.8660664765454840
    Two-Electron Energy =                 354.3241721317333486
    Total Energy =                       -305.4134007130703594
  Basis Set: (AUG-CC-PVTZ AUX)
    Blend: AUG-CC-PVTZ-RI
    Molecular point group: c1

    Geometry (in Angstrom), charge = -1, multiplicity = 1:

       Center              X                  Y                   Z               Mass
    ------------   -----------------  -----------------  -----------------  -----------------
         O            0.923265579962    -0.973057325324     0.846277686661    15.994914619570
         O            1.686362579962     0.635910774676    -0.611976213339    15.994914619570
         C           -0.689664520038     0.163022174676    -0.371266213339    12.000000000000
         C           -1.213261420038     1.287311774676     0.526006786661    12.000000000000
         C           -1.539514420038    -1.030361225324    -0.399893213339    12.000000000000
         C            0.802629579962    -0.075446225324    -0.042364213339    12.000000000000
         H           -0.662188420038     0.635510774676    -1.440381213339     1.007825032230
         H           -0.598205420038     2.192109774676     0.486103786661     1.007825032230
         H           -2.244587420038     1.563349774676     0.276725786661     1.007825032230
         H           -1.200787420038     0.910755774676     1.554440786661     1.007825032230
         H           -1.146787420038    -1.801630225324    -1.070729213339     1.007825032230
         H           -2.566245420038    -0.802106225324    -0.710066213339     1.007825032230
         H           -1.566116420038    -1.449447225324     0.608785786661     1.007825032230

  Basis Set: AUG-CC-PVTZ
    Blend: AUG-CC-PVTZ
  Basis Set: (AUG-CC-PVTZ AUX)
    Blend: AUG-CC-PVTZ-JKFIT
	 Reference Energy          =    -305.4134007130703594 [Eh]
	 Singles Energy            =      -0.0000000000000000 [Eh]
	 Same-Spin Energy          =      -0.3107645445352110 [Eh]
	 Opposite-Spin Energy      =      -0.9878971211087209 [Eh]
	 Correlation Energy        =      -1.2986616656439318 [Eh]
	 Total Energy              =    -306.7120623787142790 [Eh]

	 ================> DF-SCS-MP2 Energies <==================
	-----------------------------------------------------------
	 SCS Same-Spin Scale       =       0.3333333333333333 [-]
	 SCS Opposite-Spin Scale   =       1.2000000000000000 [-]
	 SCS Same-Spin Energy      =      -0.1035881815117370 [Eh]
	 SCS Opposite-Spin Energy  =      -1.1854765453304650 [Eh]
	 SCS Correlation Energy    =      -1.2890647268422020 [Eh]
	 SCS Total Energy          =    -306.7024654399125438 [Eh]
	-----------------------------------------------------------

  Dipole Moment: [D]
     X:    -5.5416      Y:     0.6956      Z:    -0.6035     Total:     5.6176

*** Psi4 exiting successfully. Buy a developer a beer!
