                               Psi4 1.3.2 release

  ==> Input File <==

--------------------------------------------------------------------------
#psi4
#
memory 32 gb

molecule  {
-1 1
  O        1.0802400    -0.9868790     0.8533170
  O        1.7774660     0.6142500    -0.6014300
  C       -0.5755730     0.1974970    -0.4143540
  C       -1.1221580     1.2656510     0.5365530
  C       -1.4484110    -1.0520220    -0.3893470
  C        0.9231311    -0.2373572     0.1077013
  H       -0.5710850     0.6138500    -1.4298350
  H       -0.5071020     2.1704490     0.4966500
  H       -2.1534840     1.5416890     0.2872720
  H       -1.1096840     0.8890950     1.5649870
  H       -1.0556840    -1.8232910    -1.0601830
  H       -2.4751420    -0.8237670    -0.6995200
  H       -1.4750130    -1.4711080     0.6193320
units angstrom
no_reorient  #important for SAPT in psi4, default
symmetry c1  #important for SAPT in psi4, default
}

set PROPERTIES_ORIGIN ["COM"]
properties('MP2/aug-cc-pvtz', properties = ['dipole'])
--------------------------------------------------------------------------

    Molecular point group: c1
  Charge       = -1
  Multiplicity = 1
  Basis Set: AUG-CC-PVTZ
    Blend: AUG-CC-PVTZ
  Basis Set: (AUG-CC-PVTZ AUX)
    Blend: AUG-CC-PVTZ-JKFIT

    Orbital Energies [Eh]
    ---------------------

    Doubly Occupied:

       1A    -20.338963     2A    -20.255486     3A    -11.128210
       4A    -11.067072     5A    -11.064660     6A    -11.053551
       7A     -1.293345     8A     -1.007738     9A     -0.898151
      10A     -0.779482    11A     -0.648375    12A     -0.535126
      13A     -0.496207    14A     -0.453933    15A     -0.433649
      16A     -0.409880    17A     -0.394875    18A     -0.380958
      19A     -0.378159    20A     -0.321106    21A     -0.317026
      22A     -0.198049    23A     -0.177268    24A     -0.151400

  @DF-RHF Final Energy:  -305.35590597110513

   => Energetics <=

    Nuclear Repulsion Energy =            237.0269082512888019
    One-Electron Energy =                -896.4002877570234205
    Two-Electron Energy =                 354.0174735346295165
    Total Energy =                       -305.3559059711051304
  Basis Set: (AUG-CC-PVTZ AUX)
    Blend: AUG-CC-PVTZ-RI
    Molecular point group: c1

    Geometry (in Angstrom), charge = -1, multiplicity = 1:

       Center              X                  Y                   Z               Mass
    ------------   -----------------  -----------------  -----------------  -----------------
         O            0.969810449052    -0.955062633599     0.831575020537    15.994914619570
         O            1.667036449052     0.646066366401    -0.623171979463    15.994914619570
         C           -0.686002550948     0.229313366401    -0.436095979463    12.000000000000
         C           -1.232587550948     1.297467366401     0.514811020537    12.000000000000
         C           -1.558840550948    -1.020205633599    -0.411088979463    12.000000000000
         C            0.812701549052    -0.205540833599     0.085959320537    12.000000000000
         H           -0.681514550948     0.645666366401    -1.451576979463     1.007825032230
         H           -0.617531550948     2.202265366401     0.474908020537     1.007825032230
         H           -2.263913550948     1.573505366401     0.265530020537     1.007825032230
         H           -1.220113550948     0.920911366401     1.543245020537     1.007825032230
         H           -1.166113550948    -1.791474633599    -1.081924979463     1.007825032230
         H           -2.585571550948    -0.791950633599    -0.721261979463     1.007825032230
         H           -1.585442550948    -1.439291633599     0.597590020537     1.007825032230

  Basis Set: AUG-CC-PVTZ
    Blend: AUG-CC-PVTZ
  Basis Set: (AUG-CC-PVTZ AUX)
    Blend: AUG-CC-PVTZ-JKFIT
	 Reference Energy          =    -305.3559059711051304 [Eh]
	 Singles Energy            =      -0.0000000000000000 [Eh]
	 Same-Spin Energy          =      -0.3086922172072625 [Eh]
	 Opposite-Spin Energy      =      -0.9838379702509126 [Eh]
	 Correlation Energy        =      -1.2925301874581752 [Eh]
	 Total Energy              =    -306.6484361585632996 [Eh]

	 ================> DF-SCS-MP2 Energies <==================
	-----------------------------------------------------------
	 SCS Same-Spin Scale       =       0.3333333333333333 [-]
	 SCS Opposite-Spin Scale   =       1.2000000000000000 [-]
	 SCS Same-Spin Energy      =      -0.1028974057357542 [Eh]
	 SCS Opposite-Spin Energy  =      -1.1806055643010951 [Eh]
	 SCS Correlation Energy    =      -1.2835029700368492 [Eh]
	 SCS Total Energy          =    -306.6394089411419941 [Eh]
	-----------------------------------------------------------

  Dipole Moment: [D]
     X:    -5.7521      Y:    -0.7089      Z:     0.6787     Total:     5.8352

*** Psi4 exiting successfully. Buy a developer a beer!
