                               Psi4 1.3.2 release

  ==> Input File <==

--------------------------------------------------------------------------
#psi4
#
memory 32 gb

molecule  {
-1 1
  O        1.0802400    -0.9868790     0.8533170
  O        1.7774660     0.6142500    -0.6014300
  C       -0.5755730     0.1974970    -0.4143540
  C       -1.1221580     1.2656510     0.5365530
  C       -1.4484110    -1.0520220    -0.3893470
  C        0.9084321    -0.1672321     0.0379416
  H       -0.5710850     0.6138500    -1.4298350
  H       -0.5071020     2.1704490     0.4966500
  H       -2.1534840     1.5416890     0.2872720
  H       -1.1096840     0.8890950     1.5649870
  H       -1.0556840    -1.8232910    -1.0601830
  H       -2.4751420    -0.8237670    -0.6995200
  H       -1.4750130    -1.4711080     0.6193320
units angstrom
no_reorient  #important for SAPT in psi4, default
symmetry c1  #important for SAPT in psi4, default
}

set PROPERTIES_ORIGIN ["COM"]
properties('MP2/aug-cc-pvtz', properties = ['dipole'])
--------------------------------------------------------------------------

    Molecular point group: c1
  Charge       = -1
  Multiplicity = 1
  Basis Set: AUG-CC-PVTZ
    Blend: AUG-CC-PVTZ
  Basis Set: (AUG-CC-PVTZ AUX)
    Blend: AUG-CC-PVTZ-JKFIT

    Orbital Energies [Eh]
    ---------------------

    Doubly Occupied:

       1A    -20.314543     2A    -20.272161     3A    -11.132200
       4A    -11.070723     5A    -11.066312     6A    -11.060143
       7A     -1.207510     8A     -1.043587     9A     -0.904360
      10A     -0.782085    11A     -0.660462    12A     -0.524620
      13A     -0.471013    14A     -0.454974    15A     -0.421458
      16A     -0.394662    17A     -0.392236    18A     -0.373835
      19A     -0.359187    20A     -0.322090    21A     -0.316157
      22A     -0.209035    23A     -0.188644    24A     -0.176824

  @DF-RHF Final Energy:  -305.41122582912965

   => Energetics <=

    Nuclear Repulsion Energy =            236.4817409281446885
    One-Electron Energy =                -895.5482905674936092
    Two-Electron Energy =                 353.6553238102193291
    Total Energy =                       -305.4112258291296484
  Basis Set: (AUG-CC-PVTZ AUX)
    Blend: AUG-CC-PVTZ-RI
    Molecular point group: c1

    Geometry (in Angstrom), charge = -1, multiplicity = 1:

       Center              X                  Y                   Z               Mass
    ------------   -----------------  -----------------  -----------------  -----------------
         O            0.971836858398    -0.964730104721     0.841192117486    15.994914619570
         O            1.669062858398     0.636398895279    -0.613554882514    15.994914619570
         C           -0.683976141602     0.219645895279    -0.426478882514    12.000000000000
         C           -1.230561141602     1.287799895279     0.524428117486    12.000000000000
         C           -1.556814141602    -1.029873104721    -0.401471882514    12.000000000000
         C            0.800028958398    -0.145083204721     0.025816717486    12.000000000000
         H           -0.679488141602     0.635998895279    -1.441959882514     1.007825032230
         H           -0.615505141602     2.192597895279     0.484525117486     1.007825032230
         H           -2.261887141602     1.563837895279     0.275147117486     1.007825032230
         H           -1.218087141602     0.911243895279     1.552862117486     1.007825032230
         H           -1.164087141602    -1.801142104721    -1.072307882514     1.007825032230
         H           -2.583545141602    -0.801618104721    -0.711644882514     1.007825032230
         H           -1.583416141602    -1.448959104721     0.607207117486     1.007825032230

  Basis Set: AUG-CC-PVTZ
    Blend: AUG-CC-PVTZ
  Basis Set: (AUG-CC-PVTZ AUX)
    Blend: AUG-CC-PVTZ-JKFIT
	 Reference Energy          =    -305.4112258291296484 [Eh]
	 Singles Energy            =      -0.0000000000000000 [Eh]
	 Same-Spin Energy          =      -0.3091975542715423 [Eh]
	 Opposite-Spin Energy      =      -0.9849634285642399 [Eh]
	 Correlation Energy        =      -1.2941609828357823 [Eh]
	 Total Energy              =    -306.7053868119654112 [Eh]

	 ================> DF-SCS-MP2 Energies <==================
	-----------------------------------------------------------
	 SCS Same-Spin Scale       =       0.3333333333333333 [-]
	 SCS Opposite-Spin Scale   =       1.2000000000000000 [-]
	 SCS Same-Spin Energy      =      -0.1030658514238474 [Eh]
	 SCS Opposite-Spin Energy  =      -1.1819561142770878 [Eh]
	 SCS Correlation Energy    =      -1.2850219657009352 [Eh]
	 SCS Total Energy          =    -306.6962477948305832 [Eh]
	-----------------------------------------------------------

  Dipole Moment: [D]
     X:    -5.7391      Y:     0.0652      Z:    -0.0315     Total:     5.7396

*** Psi4 exiting successfully. Buy a developer a beer!
