                               Psi4 1.3.2 release

  ==> Input File <==

--------------------------------------------------------------------------
#psi4
#
memory 32 gb

molecule  {
-1 1
  O        1.0802400    -0.9868790     0.8533170
  O        1.7853578     0.6087954    -0.5958904
  C       -0.5796538     0.1877742    -0.4059295
  C       -1.1221580     1.2656510     0.5365530
  C       -1.4484110    -1.0520220    -0.3893470
  C        0.8937330    -0.0971070    -0.0318180
  H       -0.5710850     0.6138500    -1.4298350
  H       -0.5071020     2.1704490     0.4966500
  H       -2.1534840     1.5416890     0.2872720
  H       -1.1096840     0.8890950     1.5649870
  H       -1.0556840    -1.8232910    -1.0601830
  H       -2.4751420    -0.8237670    -0.6995200
  H       -1.4750130    -1.4711080     0.6193320
units angstrom
no_reorient  #important for SAPT in psi4, default
symmetry c1  #important for SAPT in psi4, default
}

set PROPERTIES_ORIGIN ["COM"]
properties('MP2/aug-cc-pvtz', properties = ['dipole'])
--------------------------------------------------------------------------

    Molecular point group: c1
  Charge       = -1
  Multiplicity = 1
  Basis Set: AUG-CC-PVTZ
    Blend: AUG-CC-PVTZ
  Basis Set: (AUG-CC-PVTZ AUX)
    Blend: AUG-CC-PVTZ-JKFIT

    Orbital Energies [Eh]
    ---------------------

    Doubly Occupied:

       1A    -20.290623     2A    -20.290360     3A    -11.134196
       4A    -11.074365     5A    -11.068007     6A    -11.066109
       7A     -1.159141     8A     -1.056933     9A     -0.911426
      10A     -0.785489    11A     -0.673381    12A     -0.521730
      13A     -0.468063    14A     -0.449272    15A     -0.422921
      16A     -0.394152    17A     -0.388828    18A     -0.370370
      19A     -0.348945    20A     -0.321727    21A     -0.306560
      22A     -0.204554    23A     -0.196076    24A     -0.189363

  @DF-RHF Final Energy:  -305.42255348312432

   => Energetics <=

    Nuclear Repulsion Energy =            236.2915290854457169
    One-Electron Energy =                -895.2429846503268891
    Two-Electron Energy =                 353.5289020817568257
    Total Energy =                       -305.4225534831243181
  Basis Set: (AUG-CC-PVTZ AUX)
    Blend: AUG-CC-PVTZ-RI
    Molecular point group: c1

    Geometry (in Angstrom), charge = -1, multiplicity = 1:

       Center              X                  Y                   Z               Mass
    ------------   -----------------  -----------------  -----------------  -----------------
         O            0.972975701332    -0.972054875080     0.848629864776    15.994914619570
         O            1.678093501332     0.623619524920    -0.600577535224    15.994914619570
         C           -0.686918098668     0.202598324920    -0.410616635224    12.000000000000
         C           -1.229422298668     1.280475124920     0.531865864776    12.000000000000
         C           -1.555675298668    -1.037197875080    -0.394034135224    12.000000000000
         C            0.786468701332    -0.082282875080    -0.036505135224    12.000000000000
         H           -0.678349298668     0.628674124920    -1.434522135224     1.007825032230
         H           -0.614366298668     2.185273124920     0.491962864776     1.007825032230
         H           -2.260748298668     1.556513124920     0.282584864776     1.007825032230
         H           -1.216948298668     0.903919124920     1.560299864776     1.007825032230
         H           -1.162948298668    -1.808466875080    -1.064870135224     1.007825032230
         H           -2.582406298668    -0.808942875080    -0.704207135224     1.007825032230
         H           -1.582277298668    -1.456283875080     0.614644864776     1.007825032230

  Basis Set: AUG-CC-PVTZ
    Blend: AUG-CC-PVTZ
  Basis Set: (AUG-CC-PVTZ AUX)
    Blend: AUG-CC-PVTZ-JKFIT
	 Reference Energy          =    -305.4225534831243181 [Eh]
	 Singles Energy            =      -0.0000000000000000 [Eh]
	 Same-Spin Energy          =      -0.3099486749897009 [Eh]
	 Opposite-Spin Energy      =      -0.9866529983946799 [Eh]
	 Correlation Energy        =      -1.2966016733843808 [Eh]
	 Total Energy              =    -306.7191551565086911 [Eh]

	 ================> DF-SCS-MP2 Energies <==================
	-----------------------------------------------------------
	 SCS Same-Spin Scale       =       0.3333333333333333 [-]
	 SCS Opposite-Spin Scale   =       1.2000000000000000 [-]
	 SCS Same-Spin Energy      =      -0.1033162249965670 [Eh]
	 SCS Opposite-Spin Energy  =      -1.1839835980736158 [Eh]
	 SCS Correlation Energy    =      -1.2872998230701826 [Eh]
	 SCS Total Energy          =    -306.7098533061944750 [Eh]
	-----------------------------------------------------------

  Dipole Moment: [D]
     X:    -5.7494      Y:     0.7826      Z:    -0.6928     Total:     5.8437

*** Psi4 exiting successfully. Buy a developer a beer!
