                               Psi4 1.3.2 release

  ==> Input File <==

--------------------------------------------------------------------------
#psi4
#
memory 32 gb

molecule  {
-1 1
  O        1.0802400    -0.9868790     0.8533170
  O        1.7774660     0.6142500    -0.6014300
  C       -0.5755730     0.1974970    -0.4143540
  C       -1.0746851     1.2667866     0.5610634
  C       -1.4484110    -1.0520220    -0.3893470
  C        0.8897356    -0.0606551     0.0077995
  H       -0.5710850     0.6138500    -1.4298350
  H       -0.5071020     2.1704490     0.4966500
  H       -2.1534840     1.5416890     0.2872720
  H       -1.1096840     0.8890950     1.5649870
  H       -1.0556840    -1.8232910    -1.0601830
  H       -2.4751420    -0.8237670    -0.6995200
  H       -1.4750130    -1.4711080     0.6193320
units angstrom
no_reorient  #important for SAPT in psi4, default
symmetry c1  #important for SAPT in psi4, default
}

set PROPERTIES_ORIGIN ["COM"]
properties('MP2/aug-cc-pvtz', properties = ['dipole'])
--------------------------------------------------------------------------

    Molecular point group: c1
  Charge       = -1
  Multiplicity = 1
  Basis Set: AUG-CC-PVTZ
    Blend: AUG-CC-PVTZ
  Basis Set: (AUG-CC-PVTZ AUX)
    Blend: AUG-CC-PVTZ-JKFIT

    Orbital Energies [Eh]
    ---------------------

    Doubly Occupied:

       1A    -20.291185     2A    -20.290165     3A    -11.134088
       4A    -11.074643     5A    -11.068875     6A    -11.065264
       7A     -1.158883     8A     -1.057336     9A     -0.910282
      10A     -0.785917    11A     -0.672792    12A     -0.523896
      13A     -0.470813    14A     -0.448352    15A     -0.421569
      16A     -0.394471    17A     -0.388322    18A     -0.365617
      19A     -0.349224    20A     -0.324168    21A     -0.309207
      22A     -0.205269    23A     -0.193144    24A     -0.189824

  @DF-RHF Final Energy:  -305.41858354683535

   => Energetics <=

    Nuclear Repulsion Energy =            236.5046083614863903
    One-Electron Energy =                -895.6597752156845900
    Two-Electron Energy =                 353.7365833073628778
    Total Energy =                       -305.4185835468353503
  Basis Set: (AUG-CC-PVTZ AUX)
    Blend: AUG-CC-PVTZ-RI
    Molecular point group: c1

    Geometry (in Angstrom), charge = -1, multiplicity = 1:

       Center              X                  Y                   Z               Mass
    ------------   -----------------  -----------------  -----------------  -----------------
         O            0.967869733702    -0.979579401905     0.841968505642    15.994914619570
         O            1.665095733702     0.621549598095    -0.612778494358    15.994914619570
         C           -0.687943266298     0.204796598095    -0.425702494358    12.000000000000
         C           -1.187055366298     1.274086198095     0.549714905642    12.000000000000
         C           -1.560781266298    -1.044722401905    -0.400695494358    12.000000000000
         C            0.777365333702    -0.053355501905    -0.003548994358    12.000000000000
         H           -0.683455266298     0.621149598095    -1.441183494358     1.007825032230
         H           -0.619472266298     2.177748598095     0.485301505642     1.007825032230
         H           -2.265854266298     1.548988598095     0.275923505642     1.007825032230
         H           -1.222054266298     0.896394598095     1.553638505642     1.007825032230
         H           -1.168054266298    -1.815991401905    -1.071531494358     1.007825032230
         H           -2.587512266298    -0.816467401905    -0.710868494358     1.007825032230
         H           -1.587383266298    -1.463808401905     0.607983505642     1.007825032230

  Basis Set: AUG-CC-PVTZ
    Blend: AUG-CC-PVTZ
  Basis Set: (AUG-CC-PVTZ AUX)
    Blend: AUG-CC-PVTZ-JKFIT
	 Reference Energy          =    -305.4185835468353503 [Eh]
	 Singles Energy            =      -0.0000000000000000 [Eh]
	 Same-Spin Energy          =      -0.3100340785402967 [Eh]
	 Opposite-Spin Energy      =      -0.9868387285106255 [Eh]
	 Correlation Energy        =      -1.2968728070509221 [Eh]
	 Total Energy              =    -306.7154563538862817 [Eh]

	 ================> DF-SCS-MP2 Energies <==================
	-----------------------------------------------------------
	 SCS Same-Spin Scale       =       0.3333333333333333 [-]
	 SCS Opposite-Spin Scale   =       1.2000000000000000 [-]
	 SCS Same-Spin Energy      =      -0.1033446928467656 [Eh]
	 SCS Opposite-Spin Energy  =      -1.1842064742127505 [Eh]
	 SCS Correlation Energy    =      -1.2875511670595161 [Eh]
	 SCS Total Energy          =    -306.7061347138948690 [Eh]
	-----------------------------------------------------------

  Dipole Moment: [D]
     X:    -5.6560      Y:     0.7712      Z:    -0.6487     Total:     5.7450

*** Psi4 exiting successfully. Buy a developer a beer!
