                               Psi4 1.3.2 release

  ==> Input File <==

--------------------------------------------------------------------------
#psi4
#
memory 32 gb

molecule  {
-1 1
  O        1.0802400    -0.9868790     0.8533170
  O        1.7774660     0.6142500    -0.6014300
  C       -0.5755730     0.1974970    -0.4143540
  C       -1.1278474     1.2985490     0.4948268
  C       -1.4484110    -1.0520220    -0.3893470
  C        0.8937330    -0.0971070    -0.0318180
  H       -0.5854270     0.6464815    -1.4157967
  H       -0.5071020     2.1704490     0.4966500
  H       -2.1534840     1.5416890     0.2872720
  H       -1.1096840     0.8890950     1.5649870
  H       -1.0556840    -1.8232910    -1.0601830
  H       -2.4751420    -0.8237670    -0.6995200
  H       -1.4750130    -1.4711080     0.6193320
units angstrom
no_reorient  #important for SAPT in psi4, default
symmetry c1  #important for SAPT in psi4, default
}

set PROPERTIES_ORIGIN ["COM"]
properties('MP2/aug-cc-pvtz', properties = ['dipole'])
--------------------------------------------------------------------------

    Molecular point group: c1
  Charge       = -1
  Multiplicity = 1
  Basis Set: AUG-CC-PVTZ
    Blend: AUG-CC-PVTZ
  Basis Set: (AUG-CC-PVTZ AUX)
    Blend: AUG-CC-PVTZ-JKFIT

    Orbital Energies [Eh]
    ---------------------

    Doubly Occupied:

       1A    -20.291609     2A    -20.290772     3A    -11.134990
       4A    -11.074096     5A    -11.068642     6A    -11.065369
       7A     -1.159324     8A     -1.058020     9A     -0.909924
      10A     -0.785246    11A     -0.673508    12A     -0.523203
      13A     -0.466113    14A     -0.452759    15A     -0.426021
      16A     -0.394020    17A     -0.381398    18A     -0.371618
      19A     -0.351144    20A     -0.322208    21A     -0.302273
      22A     -0.205819    23A     -0.196449    24A     -0.189956

  @DF-RHF Final Energy:  -305.41963275615495

   => Energetics <=

    Nuclear Repulsion Energy =            236.0855010441893285
    One-Electron Energy =                -894.8213033340242646
    Two-Electron Energy =                 353.3161695336800108
    Total Energy =                       -305.4196327561549538
  Basis Set: (AUG-CC-PVTZ AUX)
    Blend: AUG-CC-PVTZ-RI
    Molecular point group: c1

    Geometry (in Angstrom), charge = -1, multiplicity = 1:

       Center              X                  Y                   Z               Mass
    ------------   -----------------  -----------------  -----------------  -----------------
         O            0.974813679629    -0.979310721755     0.856399050276    15.994914619570
         O            1.672039679629     0.621818278245    -0.598347949724    15.994914619570
         C           -0.680999320371     0.205065278245    -0.411271949724    12.000000000000
         C           -1.233273720371     1.306117278245     0.497908850276    12.000000000000
         C           -1.553837320371    -1.044453721755    -0.386264949724    12.000000000000
         C            0.788306679629    -0.089538721755    -0.028735949724    12.000000000000
         H           -0.690853320371     0.654049778245    -1.412714649724     1.007825032230
         H           -0.612528320371     2.178017278245     0.499732050276     1.007825032230
         H           -2.258910320371     1.549257278245     0.290354050276     1.007825032230
         H           -1.215110320371     0.896663278245     1.568069050276     1.007825032230
         H           -1.161110320371    -1.815722721755    -1.057100949724     1.007825032230
         H           -2.580568320371    -0.816198721755    -0.696437949724     1.007825032230
         H           -1.580439320371    -1.463539721755     0.622414050276     1.007825032230

  Basis Set: AUG-CC-PVTZ
    Blend: AUG-CC-PVTZ
  Basis Set: (AUG-CC-PVTZ AUX)
    Blend: AUG-CC-PVTZ-JKFIT
	 Reference Energy          =    -305.4196327561549538 [Eh]
	 Singles Energy            =      -0.0000000000000000 [Eh]
	 Same-Spin Energy          =      -0.3099610972440189 [Eh]
	 Opposite-Spin Energy      =      -0.9867544168820168 [Eh]
	 Correlation Energy        =      -1.2967155141260358 [Eh]
	 Total Energy              =    -306.7163482702810029 [Eh]

	 ================> DF-SCS-MP2 Energies <==================
	-----------------------------------------------------------
	 SCS Same-Spin Scale       =       0.3333333333333333 [-]
	 SCS Opposite-Spin Scale   =       1.2000000000000000 [-]
	 SCS Same-Spin Energy      =      -0.1033203657480063 [Eh]
	 SCS Opposite-Spin Energy  =      -1.1841053002584201 [Eh]
	 SCS Correlation Energy    =      -1.2874256660064263 [Eh]
	 SCS Total Energy          =    -306.7070584221613672 [Eh]
	-----------------------------------------------------------

  Dipole Moment: [D]
     X:    -5.7340      Y:     0.8163      Z:    -0.7504     Total:     5.8402

*** Psi4 exiting successfully. Buy a developer a beer!
