                               Psi4 1.3.2 release

  ==> Input File <==

--------------------------------------------------------------------------
#psi4
#
memory 32 gb

molecule  {
-1 1
  O        1.0802400    -0.9868790     0.8533170
  O        1.7774660     0.6142500    -0.6014300
  C       -0.5755730     0.1974970    -0.4143540
  C       -1.0507170     1.2668659     0.5728748
  C       -1.4484110    -1.0520220    -0.3893470
  C        0.8870671    -0.0423085     0.0274184
  H       -0.5710850     0.6138500    -1.4298350
  H       -0.5071020     2.1704490     0.4966500
  H       -2.1534840     1.5416890     0.2872720
  H       -1.1096840     0.8890950     1.5649870
  H       -1.0556840    -1.8232910    -1.0601830
  H       -2.4751420    -0.8237670    -0.6995200
  H       -1.4750130    -1.4711080     0.6193320
units angstrom
no_reorient  #important for SAPT in psi4, default
symmetry c1  #important for SAPT in psi4, default
}

set PROPERTIES_ORIGIN ["COM"]
properties('MP2/aug-cc-pvtz', properties = ['dipole'])
--------------------------------------------------------------------------

    Molecular point group: c1
  Charge       = -1
  Multiplicity = 1
  Basis Set: AUG-CC-PVTZ
    Blend: AUG-CC-PVTZ
  Basis Set: (AUG-CC-PVTZ AUX)
    Blend: AUG-CC-PVTZ-JKFIT

    Orbital Energies [Eh]
    ---------------------

    Doubly Occupied:

       1A    -20.291395     2A    -20.290169     3A    -11.134493
       4A    -11.075491     5A    -11.069512     6A    -11.065706
       7A     -1.158330     8A     -1.056495     9A     -0.910788
      10A     -0.787093    11A     -0.672639    12A     -0.524621
      13A     -0.473809    14A     -0.447897    15A     -0.422868
      16A     -0.395567    17A     -0.386656    18A     -0.363176
      19A     -0.348760    20A     -0.325267    21A     -0.308790
      22A     -0.205114    23A     -0.191845    24A     -0.189503

  @DF-RHF Final Energy:  -305.41262657703646

   => Energetics <=

    Nuclear Repulsion Energy =            236.6071248195200099
    One-Electron Energy =                -895.8475326297661923
    Two-Electron Energy =                 353.8277812332097483
    Total Energy =                       -305.4126265770364625
  Basis Set: (AUG-CC-PVTZ AUX)
    Blend: AUG-CC-PVTZ-RI
    Molecular point group: c1

    Geometry (in Angstrom), charge = -1, multiplicity = 1:

       Center              X                  Y                   Z               Mass
    ------------   -----------------  -----------------  -----------------  -----------------
         O            0.964933363302    -0.982119603005     0.837635513353    15.994914619570
         O            1.662159363302     0.619009396995    -0.617111486647    15.994914619570
         C           -0.690879636698     0.202256396995    -0.430035486647    12.000000000000
         C           -1.166023636698     1.271625296995     0.557193313353    12.000000000000
         C           -1.563717636698    -1.047262603005    -0.405028486647    12.000000000000
         C            0.771760463302    -0.037549103005     0.011736913353    12.000000000000
         H           -0.686391636698     0.618609396995    -1.445516486647     1.007825032230
         H           -0.622408636698     2.175208396995     0.480968513353     1.007825032230
         H           -2.268790636698     1.546448396995     0.271590513353     1.007825032230
         H           -1.224990636698     0.893854396995     1.549305513353     1.007825032230
         H           -1.170990636698    -1.818531603005    -1.075864486647     1.007825032230
         H           -2.590448636698    -0.819007603005    -0.715201486647     1.007825032230
         H           -1.590319636698    -1.466348603005     0.603650513353     1.007825032230

  Basis Set: AUG-CC-PVTZ
    Blend: AUG-CC-PVTZ
  Basis Set: (AUG-CC-PVTZ AUX)
    Blend: AUG-CC-PVTZ-JKFIT
	 Reference Energy          =    -305.4126265770364625 [Eh]
	 Singles Energy            =      -0.0000000000000000 [Eh]
	 Same-Spin Energy          =      -0.3102767018283598 [Eh]
	 Opposite-Spin Energy      =      -0.9873593269420644 [Eh]
	 Correlation Energy        =      -1.2976360287704241 [Eh]
	 Total Energy              =    -306.7102626058068608 [Eh]

	 ================> DF-SCS-MP2 Energies <==================
	-----------------------------------------------------------
	 SCS Same-Spin Scale       =       0.3333333333333333 [-]
	 SCS Opposite-Spin Scale   =       1.2000000000000000 [-]
	 SCS Same-Spin Energy      =      -0.1034255672761199 [Eh]
	 SCS Opposite-Spin Energy  =      -1.1848311923304773 [Eh]
	 SCS Correlation Energy    =      -1.2882567596065972 [Eh]
	 SCS Total Energy          =    -306.7008833366430736 [Eh]
	-----------------------------------------------------------

  Dipole Moment: [D]
     X:    -5.6180      Y:     0.7573      Z:    -0.6291     Total:     5.7036

*** Psi4 exiting successfully. Buy a developer a beer!
