                               Psi4 1.3.2 release

  ==> Input File <==

--------------------------------------------------------------------------
#psi4
#
memory 32 gb

molecule  {
-1 1
  O        1.0911338    -0.9849416     0.8528999
  O        1.7853140     0.6091793    -0.5954789
  C       -0.5755730     0.1974970    -0.4143540
  C       -1.1221580     1.2656510     0.5365530
  C       -1.4484110    -1.0520220    -0.3893470
  C        0.8937330    -0.0971070    -0.0318180
  H       -0.5710850     0.6138500    -1.4298350
  H       -0.5071020     2.1704490     0.4966500
  H       -2.1534840     1.5416890     0.2872720
  H       -1.1096840     0.8890950     1.5649870
  H       -1.0556840    -1.8232910    -1.0601830
  H       -2.4751420    -0.8237670    -0.6995200
  H       -1.4750130    -1.4711080     0.6193320
units angstrom
no_reorient  #important for SAPT in psi4, default
symmetry c1  #important for SAPT in psi4, default
}

set PROPERTIES_ORIGIN ["COM"]
properties('MP2/aug-cc-pvtz', properties = ['dipole'])
--------------------------------------------------------------------------

    Molecular point group: c1
  Charge       = -1
  Multiplicity = 1
  Basis Set: AUG-CC-PVTZ
    Blend: AUG-CC-PVTZ
  Basis Set: (AUG-CC-PVTZ AUX)
    Blend: AUG-CC-PVTZ-JKFIT

    Orbital Energies [Eh]
    ---------------------

    Doubly Occupied:

       1A    -20.290227     2A    -20.289628     3A    -11.133850
       4A    -11.074586     5A    -11.068503     6A    -11.066280
       7A     -1.158973     8A     -1.055879     9A     -0.910748
      10A     -0.784837    11A     -0.674565    12A     -0.523042
      13A     -0.467213    14A     -0.448853    15A     -0.422474
      16A     -0.394190    17A     -0.388745    18A     -0.370057
      19A     -0.348695    20A     -0.321505    21A     -0.308532
      22A     -0.203732    23A     -0.196401    24A     -0.188661

  @DF-RHF Final Energy:  -305.42286812579368

   => Energetics <=

    Nuclear Repulsion Energy =            236.1556666992688633
    One-Electron Energy =                -894.9767144991312762
    Two-Electron Energy =                 353.3981796740687287
    Total Energy =                       -305.4228681257936842
  Basis Set: (AUG-CC-PVTZ AUX)
    Blend: AUG-CC-PVTZ-RI
    Molecular point group: c1

    Geometry (in Angstrom), charge = -1, multiplicity = 1:

       Center              X                  Y                   Z               Mass
    ------------   -----------------  -----------------  -----------------  -----------------
         O            0.981313174895    -0.971884415102     0.849375198360    15.994914619570
         O            1.675493374895     0.622236484898    -0.599003601640    15.994914619570
         C           -0.685393625105     0.210554184898    -0.417878701640    12.000000000000
         C           -1.231978625105     1.278708184898     0.533028298360    12.000000000000
         C           -1.558231625105    -1.038964815102    -0.392871701640    12.000000000000
         C            0.783912374895    -0.084049815102    -0.035342701640    12.000000000000
         H           -0.680905625105     0.626907184898    -1.433359701640     1.007825032230
         H           -0.616922625105     2.183506184898     0.493125298360     1.007825032230
         H           -2.263304625105     1.554746184898     0.283747298360     1.007825032230
         H           -1.219504625105     0.902152184898     1.561462298360     1.007825032230
         H           -1.165504625105    -1.810233815102    -1.063707701640     1.007825032230
         H           -2.584962625105    -0.810709815102    -0.703044701640     1.007825032230
         H           -1.584833625105    -1.458050815102     0.615807298360     1.007825032230

  Basis Set: AUG-CC-PVTZ
    Blend: AUG-CC-PVTZ
  Basis Set: (AUG-CC-PVTZ AUX)
    Blend: AUG-CC-PVTZ-JKFIT
	 Reference Energy          =    -305.4228681257936842 [Eh]
	 Singles Energy            =      -0.0000000000000000 [Eh]
	 Same-Spin Energy          =      -0.3098446477336291 [Eh]
	 Opposite-Spin Energy      =      -0.9865208511463224 [Eh]
	 Correlation Energy        =      -1.2963654988799513 [Eh]
	 Total Energy              =    -306.7192336246736204 [Eh]

	 ================> DF-SCS-MP2 Energies <==================
	-----------------------------------------------------------
	 SCS Same-Spin Scale       =       0.3333333333333333 [-]
	 SCS Opposite-Spin Scale   =       1.2000000000000000 [-]
	 SCS Same-Spin Energy      =      -0.1032815492445430 [Eh]
	 SCS Opposite-Spin Energy  =      -1.1838250213755868 [Eh]
	 SCS Correlation Energy    =      -1.2871065706201299 [Eh]
	 SCS Total Energy          =    -306.7099746964138376 [Eh]
	-----------------------------------------------------------

  Dipole Moment: [D]
     X:    -5.7762      Y:     0.7965      Z:    -0.7053     Total:     5.8734

*** Psi4 exiting successfully. Buy a developer a beer!
