                               Psi4 1.3.2 release

  ==> Input File <==

--------------------------------------------------------------------------
#psi4
#
memory 32 gb

molecule  {
-1 1
  O        1.0802400    -0.9868790     0.8533170
  O        1.7774660     0.6142500    -0.6014300
  C       -0.5755730     0.1974970    -0.4143540
  C       -1.1158027     1.2314516     0.5771206
  C       -1.4484110    -1.0520220    -0.3893470
  C        0.8937330    -0.0971070    -0.0318180
  H       -0.5567485     0.5807112    -1.4426361
  H       -0.5071020     2.1704490     0.4966500
  H       -2.1534840     1.5416890     0.2872720
  H       -1.1096840     0.8890950     1.5649870
  H       -1.0556840    -1.8232910    -1.0601830
  H       -2.4751420    -0.8237670    -0.6995200
  H       -1.4750130    -1.4711080     0.6193320
units angstrom
no_reorient  #important for SAPT in psi4, default
symmetry c1  #important for SAPT in psi4, default
}

set PROPERTIES_ORIGIN ["COM"]
properties('MP2/aug-cc-pvtz', properties = ['dipole'])
--------------------------------------------------------------------------

    Molecular point group: c1
  Charge       = -1
  Multiplicity = 1
  Basis Set: AUG-CC-PVTZ
    Blend: AUG-CC-PVTZ
  Basis Set: (AUG-CC-PVTZ AUX)
    Blend: AUG-CC-PVTZ-JKFIT

    Orbital Energies [Eh]
    ---------------------

    Doubly Occupied:

       1A    -20.290956     2A    -20.290635     3A    -11.133886
       4A    -11.075105     5A    -11.067094     6A    -11.065267
       7A     -1.159116     8A     -1.057734     9A     -0.910367
      10A     -0.783916    11A     -0.674977    12A     -0.523213
      13A     -0.467243    14A     -0.446391    15A     -0.421553
      16A     -0.401381    17A     -0.388878    18A     -0.367766
      19A     -0.345798    20A     -0.320032    21A     -0.309849
      22A     -0.205303    23A     -0.194534    24A     -0.189991

  @DF-RHF Final Energy:  -305.41953992762780

   => Energetics <=

    Nuclear Repulsion Energy =            236.4343634610310971
    One-Electron Energy =                -895.5258378089791904
    Two-Electron Energy =                 353.6719344203202695
    Total Energy =                       -305.4195399276277954
  Basis Set: (AUG-CC-PVTZ AUX)
    Blend: AUG-CC-PVTZ-RI
    Molecular point group: c1

    Geometry (in Angstrom), charge = -1, multiplicity = 1:

       Center              X                  Y                   Z               Mass
    ------------   -----------------  -----------------  -----------------  -----------------
         O            0.972821145901    -0.969299144816     0.845364751404    15.994914619570
         O            1.670047145901     0.631829855184    -0.609382248596    15.994914619570
         C           -0.682991854099     0.215076855184    -0.422306248596    12.000000000000
         C           -1.223221554099     1.249031455184     0.569168351404    12.000000000000
         C           -1.555829854099    -1.034442144816    -0.397299248596    12.000000000000
         C            0.786314145901    -0.079527144816    -0.039770248596    12.000000000000
         H           -0.664167354099     0.598291055184    -1.450588348596     1.007825032230
         H           -0.614520854099     2.188028855184     0.488697751404     1.007825032230
         H           -2.260902854099     1.559268855184     0.279319751404     1.007825032230
         H           -1.217102854099     0.906674855184     1.557034751404     1.007825032230
         H           -1.163102854099    -1.805711144816    -1.068135248596     1.007825032230
         H           -2.582560854099    -0.806187144816    -0.707472248596     1.007825032230
         H           -1.582431854099    -1.453528144816     0.611379751404     1.007825032230

  Basis Set: AUG-CC-PVTZ
    Blend: AUG-CC-PVTZ
  Basis Set: (AUG-CC-PVTZ AUX)
    Blend: AUG-CC-PVTZ-JKFIT
	 Reference Energy          =    -305.4195399276277954 [Eh]
	 Singles Energy            =      -0.0000000000000000 [Eh]
	 Same-Spin Energy          =      -0.3099473352514108 [Eh]
	 Opposite-Spin Energy      =      -0.9867459723307196 [Eh]
	 Correlation Energy        =      -1.2966933075821303 [Eh]
	 Total Energy              =    -306.7162332352099270 [Eh]

	 ================> DF-SCS-MP2 Energies <==================
	-----------------------------------------------------------
	 SCS Same-Spin Scale       =       0.3333333333333333 [-]
	 SCS Opposite-Spin Scale   =       1.2000000000000000 [-]
	 SCS Same-Spin Energy      =      -0.1033157784171369 [Eh]
	 SCS Opposite-Spin Energy  =      -1.1840951667968636 [Eh]
	 SCS Correlation Energy    =      -1.2874109452140006 [Eh]
	 SCS Total Energy          =    -306.7069508728417873 [Eh]
	-----------------------------------------------------------

  Dipole Moment: [D]
     X:    -5.6965      Y:     0.7516      Z:    -0.6480     Total:     5.7822

*** Psi4 exiting successfully. Buy a developer a beer!
