                               Psi4 1.3.2 release

  ==> Input File <==

--------------------------------------------------------------------------
#psi4
#
memory 32 gb

molecule  {
-1 1
  O        1.0802400    -0.9868790     0.8533170
  O        1.7774660     0.6142500    -0.6014300
  C       -0.5755730     0.1974970    -0.4143540
  C       -1.0985012     1.2663816     0.5489549
  C       -1.4484110    -1.0520220    -0.3893470
  C        0.8919578    -0.0789232    -0.0119480
  H       -0.5710850     0.6138500    -1.4298350
  H       -0.5071020     2.1704490     0.4966500
  H       -2.1534840     1.5416890     0.2872720
  H       -1.1096840     0.8890950     1.5649870
  H       -1.0556840    -1.8232910    -1.0601830
  H       -2.4751420    -0.8237670    -0.6995200
  H       -1.4750130    -1.4711080     0.6193320
units angstrom
no_reorient  #important for SAPT in psi4, default
symmetry c1  #important for SAPT in psi4, default
}

set PROPERTIES_ORIGIN ["COM"]
properties('MP2/aug-cc-pvtz', properties = ['dipole'])
--------------------------------------------------------------------------

    Molecular point group: c1
  Charge       = -1
  Multiplicity = 1
  Basis Set: AUG-CC-PVTZ
    Blend: AUG-CC-PVTZ
  Basis Set: (AUG-CC-PVTZ AUX)
    Blend: AUG-CC-PVTZ-JKFIT

    Orbital Energies [Eh]
    ---------------------

    Doubly Occupied:

       1A    -20.291128     2A    -20.290321     3A    -11.134043
       4A    -11.074153     5A    -11.068298     6A    -11.065051
       7A     -1.159157     8A     -1.057776     9A     -0.909977
      10A     -0.784952    11A     -0.673184    12A     -0.523264
      13A     -0.468438    14A     -0.448708    15A     -0.421215
      16A     -0.393369    17A     -0.389876    18A     -0.367953
      19A     -0.349077    20A     -0.322773    21A     -0.308970
      22A     -0.205398    23A     -0.194352    24A     -0.189962

  @DF-RHF Final Energy:  -305.42209609846032

   => Energetics <=

    Nuclear Repulsion Energy =            236.3863535954022268
    One-Electron Energy =                -895.4341089333577202
    Two-Electron Energy =                 353.6256592394952349
    Total Energy =                       -305.4220960984603153
  Basis Set: (AUG-CC-PVTZ AUX)
    Blend: AUG-CC-PVTZ-RI
    Molecular point group: c1

    Geometry (in Angstrom), charge = -1, multiplicity = 1:

       Center              X                  Y                   Z               Mass
    ------------   -----------------  -----------------  -----------------  -----------------
         O            0.970846676404    -0.977005121726     0.846360185085    15.994914619570
         O            1.668072676404     0.624123878274    -0.608386814915    15.994914619570
         C           -0.684966323596     0.207370878274    -0.421310814915    12.000000000000
         C           -1.207894523596     1.276255478274     0.541998085085    12.000000000000
         C           -1.557804323596    -1.042148121726    -0.396303814915    12.000000000000
         C            0.782564476404    -0.069049321726    -0.018904814915    12.000000000000
         H           -0.680478323596     0.623723878274    -1.436791814915     1.007825032230
         H           -0.616495323596     2.180322878274     0.489693185085     1.007825032230
         H           -2.262877323596     1.551562878274     0.280315185085     1.007825032230
         H           -1.219077323596     0.898968878274     1.558030185085     1.007825032230
         H           -1.165077323596    -1.813417121726    -1.067139814915     1.007825032230
         H           -2.584535323596    -0.813893121726    -0.706476814915     1.007825032230
         H           -1.584406323596    -1.461234121726     0.612375185085     1.007825032230

  Basis Set: AUG-CC-PVTZ
    Blend: AUG-CC-PVTZ
  Basis Set: (AUG-CC-PVTZ AUX)
    Blend: AUG-CC-PVTZ-JKFIT
	 Reference Energy          =    -305.4220960984603153 [Eh]
	 Singles Energy            =      -0.0000000000000000 [Eh]
	 Same-Spin Energy          =      -0.3099040256535349 [Eh]
	 Opposite-Spin Energy      =      -0.9865767479756500 [Eh]
	 Correlation Energy        =      -1.2964807736291848 [Eh]
	 Total Energy              =    -306.7185768720894998 [Eh]

	 ================> DF-SCS-MP2 Energies <==================
	-----------------------------------------------------------
	 SCS Same-Spin Scale       =       0.3333333333333333 [-]
	 SCS Opposite-Spin Scale   =       1.2000000000000000 [-]
	 SCS Same-Spin Energy      =      -0.1033013418845116 [Eh]
	 SCS Opposite-Spin Energy  =      -1.1838920975707798 [Eh]
	 SCS Correlation Energy    =      -1.2871934394552915 [Eh]
	 SCS Total Energy          =    -306.7092895379155948 [Eh]
	-----------------------------------------------------------

  Dipole Moment: [D]
     X:    -5.6897      Y:     0.7813      Z:    -0.6699     Total:     5.7820

*** Psi4 exiting successfully. Buy a developer a beer!
