                               Psi4 1.3.2 release

  ==> Input File <==

--------------------------------------------------------------------------
#psi4
#
memory 32 gb

molecule  {
-1 1
  O        1.0802400    -0.9868790     0.8533170
  O        1.7774660     0.6142500    -0.6014300
  C       -0.5755730     0.1974970    -0.4143540
  C       -1.1221580     1.2656510     0.5365530
  C       -1.4484110    -1.0520220    -0.3893470
  C        0.8790339    -0.0269819    -0.1015776
  H       -0.5710850     0.6138500    -1.4298350
  H       -0.5071020     2.1704490     0.4966500
  H       -2.1534840     1.5416890     0.2872720
  H       -1.1096840     0.8890950     1.5649870
  H       -1.0556840    -1.8232910    -1.0601830
  H       -2.4751420    -0.8237670    -0.6995200
  H       -1.4750130    -1.4711080     0.6193320
units angstrom
no_reorient  #important for SAPT in psi4, default
symmetry c1  #important for SAPT in psi4, default
}

set PROPERTIES_ORIGIN ["COM"]
properties('MP2/aug-cc-pvtz', properties = ['dipole'])
--------------------------------------------------------------------------

    Molecular point group: c1
  Charge       = -1
  Multiplicity = 1
  Basis Set: AUG-CC-PVTZ
    Blend: AUG-CC-PVTZ
  Basis Set: (AUG-CC-PVTZ AUX)
    Blend: AUG-CC-PVTZ-JKFIT

    Orbital Energies [Eh]
    ---------------------

    Doubly Occupied:

       1A    -20.309712     2A    -20.269181     3A    -11.134598
       4A    -11.077148     5A    -11.069561     6A    -11.068935
       7A     -1.176457     8A     -1.022185     9A     -0.914172
      10A     -0.786106    11A     -0.687987    12A     -0.523974
      13A     -0.472064    14A     -0.452157    15A     -0.425373
      16A     -0.394546    17A     -0.385735    18A     -0.374113
      19A     -0.351527    20A     -0.320039    21A     -0.307633
      22A     -0.203078    23A     -0.186853    24A     -0.177711

  @DF-RHF Final Energy:  -305.40670461433240

   => Energetics <=

    Nuclear Repulsion Energy =            236.2415944441413274
    One-Electron Energy =                -895.1149044842701414
    Two-Electron Energy =                 353.4666054257963879
    Total Energy =                       -305.4067046143323978
  Basis Set: (AUG-CC-PVTZ AUX)
    Blend: AUG-CC-PVTZ-RI
    Molecular point group: c1

    Geometry (in Angstrom), charge = -1, multiplicity = 1:

       Center              X                  Y                   Z               Mass
    ------------   -----------------  -----------------  -----------------  -----------------
         O            0.975889704661    -0.984065046965     0.860426283811    15.994914619570
         O            1.673115704661     0.617063953035    -0.594320716189    15.994914619570
         C           -0.679923295339     0.200310953035    -0.407244716189    12.000000000000
         C           -1.226508295339     1.268464953035     0.543662283811    12.000000000000
         C           -1.552761295339    -1.049208046965    -0.382237716189    12.000000000000
         C            0.774683604661    -0.024167946965    -0.094468316189    12.000000000000
         H           -0.675435295339     0.616663953035    -1.422725716189     1.007825032230
         H           -0.611452295339     2.173262953035     0.503759283811     1.007825032230
         H           -2.257834295339     1.544502953035     0.294381283811     1.007825032230
         H           -1.214034295339     0.891908953035     1.572096283811     1.007825032230
         H           -1.160034295339    -1.820477046965    -1.053073716189     1.007825032230
         H           -2.579492295339    -0.820953046965    -0.692410716189     1.007825032230
         H           -1.579363295339    -1.468294046965     0.626441283811     1.007825032230

  Basis Set: AUG-CC-PVTZ
    Blend: AUG-CC-PVTZ
  Basis Set: (AUG-CC-PVTZ AUX)
    Blend: AUG-CC-PVTZ-JKFIT
	 Reference Energy          =    -305.4067046143323978 [Eh]
	 Singles Energy            =      -0.0000000000000000 [Eh]
	 Same-Spin Energy          =      -0.3107146972968485 [Eh]
	 Opposite-Spin Energy      =      -0.9886102506132173 [Eh]
	 Correlation Energy        =      -1.2993249479100659 [Eh]
	 Total Energy              =    -306.7060295622424633 [Eh]

	 ================> DF-SCS-MP2 Energies <==================
	-----------------------------------------------------------
	 SCS Same-Spin Scale       =       0.3333333333333333 [-]
	 SCS Opposite-Spin Scale   =       1.2000000000000000 [-]
	 SCS Same-Spin Energy      =      -0.1035715657656162 [Eh]
	 SCS Opposite-Spin Energy  =      -1.1863323007358606 [Eh]
	 SCS Correlation Energy    =      -1.2899038665014768 [Eh]
	 SCS Total Energy          =    -306.6966084808339019 [Eh]
	-----------------------------------------------------------

  Dipole Moment: [D]
     X:    -5.7079      Y:     1.4787      Z:    -1.3208     Total:     6.0425

*** Psi4 exiting successfully. Buy a developer a beer!
