                               Psi4 1.3.2 release

  ==> Input File <==

--------------------------------------------------------------------------
#psi4
#
memory 32 gb

molecule  {
-1 1
  O        1.0802400    -0.9868790     0.8533170
  O        1.7774660     0.6142500    -0.6014300
  C       -0.5755730     0.1974970    -0.4143540
  C       -1.1221580     1.2656510     0.5365530
  C       -1.4484110    -1.0520220    -0.3893470
  C        1.0837371    -0.1352039     0.0176499
  H       -0.5710850     0.6138500    -1.4298350
  H       -0.5071020     2.1704490     0.4966500
  H       -2.1534840     1.5416890     0.2872720
  H       -1.1096840     0.8890950     1.5649870
  H       -1.0556840    -1.8232910    -1.0601830
  H       -2.4751420    -0.8237670    -0.6995200
  H       -1.4750130    -1.4711080     0.6193320
units angstrom
no_reorient  #important for SAPT in psi4, default
symmetry c1  #important for SAPT in psi4, default
}

set PROPERTIES_ORIGIN ["COM"]
properties('MP2/aug-cc-pvtz', properties = ['dipole'])
--------------------------------------------------------------------------

    Molecular point group: c1
  Charge       = -1
  Multiplicity = 1
  Basis Set: AUG-CC-PVTZ
    Blend: AUG-CC-PVTZ
  Basis Set: (AUG-CC-PVTZ AUX)
    Blend: AUG-CC-PVTZ-JKFIT

    Orbital Energies [Eh]
    ---------------------

    Doubly Occupied:

       1A    -20.309236     2A    -20.308264     3A    -11.142603
       4A    -11.058055     5A    -11.052646     6A    -11.034497
       7A     -1.212476     8A     -1.130929     9A     -0.880650
      10A     -0.767257    11A     -0.628746    12A     -0.511398
      13A     -0.466598    14A     -0.444074    15A     -0.431009
      16A     -0.411996    17A     -0.383861    18A     -0.375177
      19A     -0.369537    20A     -0.309964    21A     -0.302556
      22A     -0.240731    23A     -0.224986    24A     -0.141136

  @DF-RHF Final Energy:  -305.40259042661012

   => Energetics <=

    Nuclear Repulsion Energy =            236.0271852997366864
    One-Electron Energy =                -894.5827889902357128
    Two-Electron Energy =                 353.1530132638889654
    Total Energy =                       -305.4025904266101179
  Basis Set: (AUG-CC-PVTZ AUX)
    Blend: AUG-CC-PVTZ-RI
    Molecular point group: c1

    Geometry (in Angstrom), charge = -1, multiplicity = 1:

       Center              X                  Y                   Z               Mass
    ------------   -----------------  -----------------  -----------------  -----------------
         O            0.947669249010    -0.969145523716     0.843989538435    15.994914619570
         O            1.644895249010     0.631983476284    -0.610757461565    15.994914619570
         C           -0.708143750990     0.215230476284    -0.423681461565    12.000000000000
         C           -1.254728750990     1.283384476284     0.527225538435    12.000000000000
         C           -1.580981750990    -1.034288523716    -0.398674461565    12.000000000000
         C            0.951166349010    -0.117470423716     0.008322438435    12.000000000000
         H           -0.703655750990     0.631583476284    -1.439162461565     1.007825032230
         H           -0.639672750990     2.188182476284     0.487322538435     1.007825032230
         H           -2.286054750990     1.559422476284     0.277944538435     1.007825032230
         H           -1.242254750990     0.906828476284     1.555659538435     1.007825032230
         H           -1.188254750990    -1.805557523716    -1.069510461565     1.007825032230
         H           -2.607712750990    -0.806033523716    -0.708847461565     1.007825032230
         H           -1.607583750990    -1.453374523716     0.610004538435     1.007825032230

  Basis Set: AUG-CC-PVTZ
    Blend: AUG-CC-PVTZ
  Basis Set: (AUG-CC-PVTZ AUX)
    Blend: AUG-CC-PVTZ-JKFIT
	 Reference Energy          =    -305.4025904266101179 [Eh]
	 Singles Energy            =      -0.0000000000000000 [Eh]
	 Same-Spin Energy          =      -0.3088989262135249 [Eh]
	 Opposite-Spin Energy      =      -0.9829500440299762 [Eh]
	 Correlation Energy        =      -1.2918489702435010 [Eh]
	 Total Energy              =    -306.6944393968536247 [Eh]

	 ================> DF-SCS-MP2 Energies <==================
	-----------------------------------------------------------
	 SCS Same-Spin Scale       =       0.3333333333333333 [-]
	 SCS Opposite-Spin Scale   =       1.2000000000000000 [-]
	 SCS Same-Spin Energy      =      -0.1029663087378416 [Eh]
	 SCS Opposite-Spin Energy  =      -1.1795400528359714 [Eh]
	 SCS Correlation Energy    =      -1.2825063615738130 [Eh]
	 SCS Total Energy          =    -306.6850967881839551 [Eh]
	-----------------------------------------------------------

  Dipole Moment: [D]
     X:    -3.9825      Y:     0.5013      Z:    -0.4107     Total:     4.0348

*** Psi4 exiting successfully. Buy a developer a beer!
