                               Psi4 1.3.2 release

  ==> Input File <==

--------------------------------------------------------------------------
#psi4
#
memory 32 gb

molecule  {
-1 1
  O        1.0802400    -0.9868790     0.8533170
  O        1.7774660     0.6142500    -0.6014300
  C       -0.5755730     0.1974970    -0.4143540
  C       -1.1221580     1.2656510     0.5365530
  C       -1.4484110    -1.0520220    -0.3893470
  C        1.0329653     0.0149674    -0.1215605
  H       -0.5710850     0.6138500    -1.4298350
  H       -0.5071020     2.1704490     0.4966500
  H       -2.1534840     1.5416890     0.2872720
  H       -1.1096840     0.8890950     1.5649870
  H       -1.0556840    -1.8232910    -1.0601830
  H       -2.4751420    -0.8237670    -0.6995200
  H       -1.4750130    -1.4711080     0.6193320
units angstrom
no_reorient  #important for SAPT in psi4, default
symmetry c1  #important for SAPT in psi4, default
}

set PROPERTIES_ORIGIN ["COM"]
properties('MP2/aug-cc-pvtz', properties = ['dipole'])
--------------------------------------------------------------------------

    Molecular point group: c1
  Charge       = -1
  Multiplicity = 1
  Basis Set: AUG-CC-PVTZ
    Blend: AUG-CC-PVTZ
  Basis Set: (AUG-CC-PVTZ AUX)
    Blend: AUG-CC-PVTZ-JKFIT

    Orbital Energies [Eh]
    ---------------------

    Doubly Occupied:

       1A    -20.338402     2A    -20.256186     3A    -11.128781
       4A    -11.066689     5A    -11.058053     6A    -11.054515
       7A     -1.291676     8A     -1.010601     9A     -0.892187
      10A     -0.774069    11A     -0.655805    12A     -0.527814
      13A     -0.479154    14A     -0.457366    15A     -0.430784
      16A     -0.419018    17A     -0.385477    18A     -0.380494
      19A     -0.377528    20A     -0.318599    21A     -0.309397
      22A     -0.198060    23A     -0.179026    24A     -0.152404

  @DF-RHF Final Energy:  -305.35636416654773

   => Energetics <=

    Nuclear Repulsion Energy =            236.4904005018922533
    One-Electron Energy =                -895.4093579010473150
    Two-Electron Energy =                 353.5625932326072984
    Total Energy =                       -305.3563641665477348
  Basis Set: (AUG-CC-PVTZ AUX)
    Blend: AUG-CC-PVTZ-RI
    Molecular point group: c1

    Geometry (in Angstrom), charge = -1, multiplicity = 1:

       Center              X                  Y                   Z               Mass
    ------------   -----------------  -----------------  -----------------  -----------------
         O            0.954668667340    -0.989848192320     0.863181133483    15.994914619570
         O            1.651894667340     0.611280807680    -0.591565866517    15.994914619570
         C           -0.701144332660     0.194527807680    -0.404489866517    12.000000000000
         C           -1.247729332660     1.262681807680     0.546417133483    12.000000000000
         C           -1.573982332660    -1.054991192320    -0.379482866517    12.000000000000
         C            0.907393967340     0.011998207680    -0.111696366517    12.000000000000
         H           -0.696656332660     0.610880807680    -1.419970866517     1.007825032230
         H           -0.632673332660     2.167479807680     0.506514133483     1.007825032230
         H           -2.279055332660     1.538719807680     0.297136133483     1.007825032230
         H           -1.235255332660     0.886125807680     1.574851133483     1.007825032230
         H           -1.181255332660    -1.826260192320    -1.050318866517     1.007825032230
         H           -2.600713332660    -0.826736192320    -0.689655866517     1.007825032230
         H           -1.600584332660    -1.474077192320     0.629196133483     1.007825032230

  Basis Set: AUG-CC-PVTZ
    Blend: AUG-CC-PVTZ
  Basis Set: (AUG-CC-PVTZ AUX)
    Blend: AUG-CC-PVTZ-JKFIT
	 Reference Energy          =    -305.3563641665477348 [Eh]
	 Singles Energy            =      -0.0000000000000000 [Eh]
	 Same-Spin Energy          =      -0.3085928705327571 [Eh]
	 Opposite-Spin Energy      =      -0.9838421399875071 [Eh]
	 Correlation Energy        =      -1.2924350105202642 [Eh]
	 Total Energy              =    -306.6487991770679855 [Eh]

	 ================> DF-SCS-MP2 Energies <==================
	-----------------------------------------------------------
	 SCS Same-Spin Scale       =       0.3333333333333333 [-]
	 SCS Opposite-Spin Scale   =       1.2000000000000000 [-]
	 SCS Same-Spin Energy      =      -0.1028642901775857 [Eh]
	 SCS Opposite-Spin Energy  =      -1.1806105679850085 [Eh]
	 SCS Correlation Energy    =      -1.2834748581625943 [Eh]
	 SCS Total Energy          =    -306.6398390247103407 [Eh]
	-----------------------------------------------------------

  Dipole Moment: [D]
     X:    -4.4034      Y:     2.0763      Z:    -1.8526     Total:     5.2089

*** Psi4 exiting successfully. Buy a developer a beer!
