                               Psi4 1.3.2 release

  ==> Input File <==

--------------------------------------------------------------------------
#psi4
#
memory 32 gb

molecule  {
-1 1
  O        1.0802400    -0.9868790     0.8533170
  O        1.7931816     0.6032871    -0.5903078
  C       -0.5836224     0.1780296    -0.3974765
  C       -1.1221580     1.2656510     0.5365530
  C       -1.4484110    -1.0520220    -0.3893470
  C        0.8937330    -0.0971070    -0.0318180
  H       -0.5710850     0.6138500    -1.4298350
  H       -0.5071020     2.1704490     0.4966500
  H       -2.1534840     1.5416890     0.2872720
  H       -1.1096840     0.8890950     1.5649870
  H       -1.0556840    -1.8232910    -1.0601830
  H       -2.4751420    -0.8237670    -0.6995200
  H       -1.4750130    -1.4711080     0.6193320
units angstrom
no_reorient  #important for SAPT in psi4, default
symmetry c1  #important for SAPT in psi4, default
}

set PROPERTIES_ORIGIN ["COM"]
properties('MP2/aug-cc-pvtz', properties = ['dipole'])
--------------------------------------------------------------------------

    Molecular point group: c1
  Charge       = -1
  Multiplicity = 1
  Basis Set: AUG-CC-PVTZ
    Blend: AUG-CC-PVTZ
  Basis Set: (AUG-CC-PVTZ AUX)
    Blend: AUG-CC-PVTZ-JKFIT

    Orbital Energies [Eh]
    ---------------------

    Doubly Occupied:

       1A    -20.290619     2A    -20.289514     3A    -11.134072
       4A    -11.074749     5A    -11.068252     6A    -11.067164
       7A     -1.159166     8A     -1.056079     9A     -0.913016
      10A     -0.786760    11A     -0.672969    12A     -0.520853
      13A     -0.469297    14A     -0.449633    15A     -0.423779
      16A     -0.394540    17A     -0.388222    18A     -0.371024
      19A     -0.349544    20A     -0.322675    21A     -0.304224
      22A     -0.203658    23A     -0.196577    24A     -0.188814

  @DF-RHF Final Energy:  -305.42156420482854

   => Energetics <=

    Nuclear Repulsion Energy =            236.3326947552407091
    One-Electron Energy =                -895.3181175778599936
    Two-Electron Energy =                 353.5638586177907428
    Total Energy =                       -305.4215642048285417
  Basis Set: (AUG-CC-PVTZ AUX)
    Blend: AUG-CC-PVTZ-RI
    Molecular point group: c1

    Geometry (in Angstrom), charge = -1, multiplicity = 1:

       Center              X                  Y                   Z               Mass
    ------------   -----------------  -----------------  -----------------  -----------------
         O            0.972085148569    -0.969699301298     0.846438698402    15.994914619570
         O            1.685026748569     0.620466798702    -0.597186101598    15.994914619570
         C           -0.691777251431     0.195209298702    -0.404354801598    12.000000000000
         C           -1.230312851431     1.282830698702     0.529674698402    12.000000000000
         C           -1.556565851431    -1.034842301298    -0.396225301598    12.000000000000
         C            0.785578148569    -0.079927301298    -0.038696301598    12.000000000000
         H           -0.679239851431     0.631029698702    -1.436713301598     1.007825032230
         H           -0.615256851431     2.187628698702     0.489771698402     1.007825032230
         H           -2.261638851431     1.558868698702     0.280393698402     1.007825032230
         H           -1.217838851431     0.906274698702     1.558108698402     1.007825032230
         H           -1.163838851431    -1.806111301298    -1.067061301598     1.007825032230
         H           -2.583296851431    -0.806587301298    -0.706398301598     1.007825032230
         H           -1.583167851431    -1.453928301298     0.612453698402     1.007825032230

  Basis Set: AUG-CC-PVTZ
    Blend: AUG-CC-PVTZ
  Basis Set: (AUG-CC-PVTZ AUX)
    Blend: AUG-CC-PVTZ-JKFIT
	 Reference Energy          =    -305.4215642048285417 [Eh]
	 Singles Energy            =      -0.0000000000000000 [Eh]
	 Same-Spin Energy          =      -0.3100271603692910 [Eh]
	 Opposite-Spin Energy      =      -0.9867658489245202 [Eh]
	 Correlation Energy        =      -1.2967930092938111 [Eh]
	 Total Energy              =    -306.7183572141223635 [Eh]

	 ================> DF-SCS-MP2 Energies <==================
	-----------------------------------------------------------
	 SCS Same-Spin Scale       =       0.3333333333333333 [-]
	 SCS Opposite-Spin Scale   =       1.2000000000000000 [-]
	 SCS Same-Spin Energy      =      -0.1033423867897637 [Eh]
	 SCS Opposite-Spin Energy  =      -1.1841190187094242 [Eh]
	 SCS Correlation Energy    =      -1.2874614054991877 [Eh]
	 SCS Total Energy          =    -306.7090256103277284 [Eh]
	-----------------------------------------------------------

  Dipole Moment: [D]
     X:    -5.7783      Y:     0.7777      Z:    -0.6925     Total:     5.8713

*** Psi4 exiting successfully. Buy a developer a beer!
