                               Psi4 1.3.2 release

  ==> Input File <==

--------------------------------------------------------------------------
#psi4
#
memory 32 gb

molecule  {
-1 1
  O        1.0802400    -0.9868790     0.8533170
  O        1.7774660     0.6142500    -0.6014300
  C       -0.5755730     0.1974970    -0.4143540
  C       -1.1236431     1.2739991     0.5262281
  C       -1.4484110    -1.0520220    -0.3893470
  C        0.8937330    -0.0971070    -0.0318180
  H       -0.5746707     0.6220570    -1.4264408
  H       -0.5071020     2.1704490     0.4966500
  H       -2.1534840     1.5416890     0.2872720
  H       -1.1096840     0.8890950     1.5649870
  H       -1.0556840    -1.8232910    -1.0601830
  H       -2.4751420    -0.8237670    -0.6995200
  H       -1.4750130    -1.4711080     0.6193320
units angstrom
no_reorient  #important for SAPT in psi4, default
symmetry c1  #important for SAPT in psi4, default
}

set PROPERTIES_ORIGIN ["COM"]
properties('MP2/aug-cc-pvtz', properties = ['dipole'])
--------------------------------------------------------------------------

    Molecular point group: c1
  Charge       = -1
  Multiplicity = 1
  Basis Set: AUG-CC-PVTZ
    Blend: AUG-CC-PVTZ
  Basis Set: (AUG-CC-PVTZ AUX)
    Blend: AUG-CC-PVTZ-JKFIT

    Orbital Energies [Eh]
    ---------------------

    Doubly Occupied:

       1A    -20.291308     2A    -20.290656     3A    -11.134495
       4A    -11.073918     5A    -11.067985     6A    -11.065101
       7A     -1.159179     8A     -1.057850     9A     -0.909831
      10A     -0.784411    11A     -0.673674    12A     -0.522731
      13A     -0.466675    14A     -0.449739    15A     -0.422934
      16A     -0.393187    17A     -0.387993    18A     -0.370260
      19A     -0.349175    20A     -0.321365    21A     -0.307149
      22A     -0.205569    23A     -0.195712    24A     -0.189919

  @DF-RHF Final Energy:  -305.42281328742058

   => Energetics <=

    Nuclear Repulsion Energy =            236.2093388088178472
    One-Electron Energy =                -895.0826703866474645
    Two-Electron Energy =                 353.4505182904090361
    Total Energy =                       -305.4228132874205812
  Basis Set: (AUG-CC-PVTZ AUX)
    Blend: AUG-CC-PVTZ-RI
    Molecular point group: c1

    Geometry (in Angstrom), charge = -1, multiplicity = 1:

       Center              X                  Y                   Z               Mass
    ------------   -----------------  -----------------  -----------------  -----------------
         O            0.974109534107    -0.975643470643     0.852193296090    15.994914619570
         O            1.671335534107     0.625485529357    -0.602553703910    15.994914619570
         C           -0.681703465893     0.208732529357    -0.415477703910    12.000000000000
         C           -1.229773565893     1.285234629357     0.525104396090    12.000000000000
         C           -1.554541465893    -1.040786470643    -0.390470703910    12.000000000000
         C            0.787602534107    -0.085871470643    -0.032941703910    12.000000000000
         H           -0.680801165893     0.633292529357    -1.427564503910     1.007825032230
         H           -0.613232465893     2.181684529357     0.495526296090     1.007825032230
         H           -2.259614465893     1.552924529357     0.286148296090     1.007825032230
         H           -1.215814465893     0.900330529357     1.563863296090     1.007825032230
         H           -1.161814465893    -1.812055470643    -1.061306703910     1.007825032230
         H           -2.581272465893    -0.812531470643    -0.700643703910     1.007825032230
         H           -1.581143465893    -1.459872470643     0.618208296090     1.007825032230

  Basis Set: AUG-CC-PVTZ
    Blend: AUG-CC-PVTZ
  Basis Set: (AUG-CC-PVTZ AUX)
    Blend: AUG-CC-PVTZ-JKFIT
	 Reference Energy          =    -305.4228132874205812 [Eh]
	 Singles Energy            =      -0.0000000000000000 [Eh]
	 Same-Spin Energy          =      -0.3098911921870554 [Eh]
	 Opposite-Spin Energy      =      -0.9865853152869788 [Eh]
	 Correlation Energy        =      -1.2964765074740341 [Eh]
	 Total Energy              =    -306.7192897948946211 [Eh]

	 ================> DF-SCS-MP2 Energies <==================
	-----------------------------------------------------------
	 SCS Same-Spin Scale       =       0.3333333333333333 [-]
	 SCS Opposite-Spin Scale   =       1.2000000000000000 [-]
	 SCS Same-Spin Energy      =      -0.1032970640623518 [Eh]
	 SCS Opposite-Spin Energy  =      -1.1839023783443745 [Eh]
	 SCS Correlation Energy    =      -1.2871994424067263 [Eh]
	 SCS Total Energy          =    -306.7100127298273264 [Eh]
	-----------------------------------------------------------

  Dipole Moment: [D]
     X:    -5.7239      Y:     0.7956      Z:    -0.7058     Total:     5.8219

*** Psi4 exiting successfully. Buy a developer a beer!
