                               Psi4 1.4a3.dev225

  ==> Input File <==

--------------------------------------------------------------------------
#psi4
#
memory 32 gb

molecule  {
-1 1
  O       -1.0485690    -0.0000230     1.2804550
  O       -1.8085780     0.0000120    -0.8608380
  C        0.5680610     0.0000050    -0.4771230
  C        1.2889140    -1.2559050     0.0104430
  C        1.2889010     1.2559130     0.0104710
  C       -0.9014023    -0.0000047     0.0691360
  H        0.5489340     0.0000180    -1.5740110
  H        0.7977980    -2.1625660    -0.3602090
  H        2.3325250    -1.2756680    -0.3244140
  H        1.2723070    -1.2837030     1.1032290
  H        0.7977740     2.1625770    -0.3601580
  H        2.3325120     1.2756960    -0.3243870
  H        1.2722960     1.2836850     1.1032580
units angstrom
no_reorient  #important for SAPT in psi4, default
symmetry c1  #important for SAPT in psi4, default
}

set PROPERTIES_ORIGIN ["COM"]
properties('MP2/aug-cc-pvtz', properties = ['dipole'])
--------------------------------------------------------------------------

    Molecular point group: c1
  Charge       = -1
  Multiplicity = 1
  Basis Set: AUG-CC-PVTZ
    Blend: AUG-CC-PVTZ
  Basis Set: (AUG-CC-PVTZ AUX)
    Blend: AUG-CC-PVTZ-JKFIT

    Orbital Energies [Eh]
    ---------------------

    Doubly Occupied:

       1A    -20.301593     2A    -20.282615     3A    -11.133342
       4A    -11.070457     5A    -11.070443     6A    -11.062472
       7A     -1.175102     8A     -1.056603     9A     -0.908122
      10A     -0.784079    11A     -0.667176    12A     -0.523429
      13A     -0.467919    14A     -0.451136    15A     -0.420825
      16A     -0.393777    17A     -0.393576    18A     -0.372092
      19A     -0.352014    20A     -0.319088    21A     -0.313843
      22A     -0.209351    23A     -0.191148    24A     -0.187485

  @DF-RHF Final Energy:  -305.42137792422000

   => Energetics <=

    Nuclear Repulsion Energy =            236.4414196213362231
    One-Electron Energy =                -895.5102185474046337
    Two-Electron Energy =                 353.6474210018484428
    Total Energy =                       -305.4213779242199962
  Basis Set: (AUG-CC-PVTZ AUX)
    Blend: AUG-CC-PVTZ-RI
    Molecular point group: c1

    Geometry (in Angstrom), charge = -1, multiplicity = 1:

       Center              X                  Y                   Z               Mass
    ------------   -----------------  -----------------  -----------------  -----------------
         O           -0.941281529581    -0.000022574484     1.265239749642    15.994914619570
         O           -1.701290529581     0.000012425516    -0.876053250358    15.994914619570
         C            0.675348470419     0.000005425516    -0.492338250358    12.000000000000
         C            1.396201470419    -1.255904574484    -0.004772250358    12.000000000000
         C            1.396188470419     1.255913425516    -0.004744250358    12.000000000000
         C           -0.794114829581    -0.000004274484     0.053920749642    12.000000000000
         H            0.656221470419     0.000018425516    -1.589226250358     1.007825032230
         H            0.905085470419    -2.162565574484    -0.375424250358     1.007825032230
         H            2.439812470419    -1.275667574484    -0.339629250358     1.007825032230
         H            1.379594470419    -1.283702574484     1.088013749642     1.007825032230
         H            0.905061470419     2.162577425516    -0.375373250358     1.007825032230
         H            2.439799470419     1.275696425516    -0.339602250358     1.007825032230
         H            1.379583470419     1.283685425516     1.088042749642     1.007825032230

  Basis Set: AUG-CC-PVTZ
    Blend: AUG-CC-PVTZ
  Basis Set: (AUG-CC-PVTZ AUX)
    Blend: AUG-CC-PVTZ-JKFIT
	 Reference Energy          =    -305.4213779242199962 [Eh]
	 Singles Energy            =      -0.0000000000000000 [Eh]
	 Same-Spin Energy          =      -0.3096421979912019 [Eh]
	 Opposite-Spin Energy      =      -0.9858640704758520 [Eh]
	 Correlation Energy        =      -1.2955062684670540 [Eh]
	 Total Energy              =    -306.7168841926870755 [Eh]

	 ================> DF-SCS-MP2 Energies <==================
	-----------------------------------------------------------
	 SCS Same-Spin Scale       =       0.3333333333333333 [-]
	 SCS Opposite-Spin Scale   =       1.2000000000000000 [-]
	 SCS Same-Spin Energy      =      -0.1032140659970673 [Eh]
	 SCS Opposite-Spin Energy  =      -1.1830368845710224 [Eh]
	 SCS Correlation Energy    =      -1.2862509505680897 [Eh]
	 SCS Total Energy          =    -306.7076288747880994 [Eh]
	-----------------------------------------------------------

  Dipole Moment: [D]
     X:     5.7512      Y:     0.0000      Z:    -0.5386     Total:     5.7764

*** Psi4 exiting successfully. Buy a developer a beer!
