                               Psi4 1.3.2 release

  ==> Input File <==

--------------------------------------------------------------------------
#psi4
#
memory 32 gb

molecule  {
-1 1
  O        1.1453610    -0.9742433     0.8498045
  O        1.8235240     0.5830267    -0.5650886
  C       -0.5755730     0.1974970    -0.4143540
  C       -1.1221580     1.2656510     0.5365530
  C       -1.4484110    -1.0520220    -0.3893470
  C        0.8937330    -0.0971070    -0.0318180
  H       -0.5710850     0.6138500    -1.4298350
  H       -0.5071020     2.1704490     0.4966500
  H       -2.1534840     1.5416890     0.2872720
  H       -1.1096840     0.8890950     1.5649870
  H       -1.0556840    -1.8232910    -1.0601830
  H       -2.4751420    -0.8237670    -0.6995200
  H       -1.4750130    -1.4711080     0.6193320
units angstrom
no_reorient  #important for SAPT in psi4, default
symmetry c1  #important for SAPT in psi4, default
}

set PROPERTIES_ORIGIN ["COM"]
properties('MP2/aug-cc-pvtz', properties = ['dipole'])
--------------------------------------------------------------------------

    Molecular point group: c1
  Charge       = -1
  Multiplicity = 1
  Basis Set: AUG-CC-PVTZ
    Blend: AUG-CC-PVTZ
  Basis Set: (AUG-CC-PVTZ AUX)
    Blend: AUG-CC-PVTZ-JKFIT

    Orbital Energies [Eh]
    ---------------------

    Doubly Occupied:

       1A    -20.285047     2A    -20.284397     3A    -11.131402
       4A    -11.077422     5A    -11.072457     6A    -11.071743
       7A     -1.158441     8A     -1.045746     9A     -0.915060
      10A     -0.787894    11A     -0.678236    12A     -0.524842
      13A     -0.469245    14A     -0.448338    15A     -0.424415
      16A     -0.396616    17A     -0.385048    18A     -0.371075
      19A     -0.349653    20A     -0.323613    21A     -0.309636
      22A     -0.201362    23A     -0.193472    24A     -0.182029

  @DF-RHF Final Energy:  -305.41954779086927

   => Energetics <=

    Nuclear Repulsion Energy =            235.7256918528982226
    One-Electron Energy =                -894.1161000400996954
    Two-Electron Energy =                 352.9708603963322275
    Total Energy =                       -305.4195477908692737
  Basis Set: (AUG-CC-PVTZ AUX)
    Blend: AUG-CC-PVTZ-RI
    Molecular point group: c1

    Geometry (in Angstrom), charge = -1, multiplicity = 1:

       Center              X                  Y                   Z               Mass
    ------------   -----------------  -----------------  -----------------  -----------------
         O            1.018554541818    -0.958346304289     0.841264213560    15.994914619570
         O            1.696717541818     0.598923695711    -0.573628886440    15.994914619570
         C           -0.702379458182     0.213393995711    -0.422894286440    12.000000000000
         C           -1.248964458182     1.281547995711     0.528012713560    12.000000000000
         C           -1.575217458182    -1.036125004289    -0.397887286440    12.000000000000
         C            0.766926541818    -0.081210004289    -0.040358286440    12.000000000000
         H           -0.697891458182     0.629746995711    -1.438375286440     1.007825032230
         H           -0.633908458182     2.186345995711     0.488109713560     1.007825032230
         H           -2.280290458182     1.557585995711     0.278731713560     1.007825032230
         H           -1.236490458182     0.904991995711     1.556446713560     1.007825032230
         H           -1.182490458182    -1.807394004289    -1.068723286440     1.007825032230
         H           -2.601948458182    -0.807870004289    -0.708060286440     1.007825032230
         H           -1.601819458182    -1.455211004289     0.610791713560     1.007825032230

  Basis Set: AUG-CC-PVTZ
    Blend: AUG-CC-PVTZ
  Basis Set: (AUG-CC-PVTZ AUX)
    Blend: AUG-CC-PVTZ-JKFIT
	 Reference Energy          =    -305.4195477908692737 [Eh]
	 Singles Energy            =      -0.0000000000000000 [Eh]
	 Same-Spin Energy          =      -0.3097426215703228 [Eh]
	 Opposite-Spin Energy      =      -0.9864494575178552 [Eh]
	 Correlation Energy        =      -1.2961920790881780 [Eh]
	 Total Energy              =    -306.7157398699574742 [Eh]

	 ================> DF-SCS-MP2 Energies <==================
	-----------------------------------------------------------
	 SCS Same-Spin Scale       =       0.3333333333333333 [-]
	 SCS Opposite-Spin Scale   =       1.2000000000000000 [-]
	 SCS Same-Spin Energy      =      -0.1032475405234409 [Eh]
	 SCS Opposite-Spin Energy  =      -1.1837393490214261 [Eh]
	 SCS Correlation Energy    =      -1.2869868895448671 [Eh]
	 SCS Total Energy          =    -306.7065346804141655 [Eh]
	-----------------------------------------------------------

  Dipole Moment: [D]
     X:    -6.0545      Y:     0.8400      Z:    -0.7673     Total:     6.1604

*** Psi4 exiting successfully. Buy a developer a beer!
