                               Psi4 1.3.2 release

  ==> Input File <==

--------------------------------------------------------------------------
#psi4
#
memory 32 gb

molecule  {
0 1
  C       -0.0001220    -0.6981010     1.1356930
  C       -0.0001220     0.6980960     1.1356820
  N       -0.0001290     1.4176070     0.0000000
  C       -0.0001220     0.6980960    -1.1356820
  C       -0.0001220    -0.6981010    -1.1356930
  N        0.0001330    -1.4176010     0.0000000
  H       -0.2491650    -1.2583369     2.0686519
  H        0.0006130     1.2582660     2.0685540
  H        0.0006130     1.2582660    -2.0685540
  H        0.0008350    -1.2582580    -2.0685610
units angstrom
no_reorient  #important for SAPT in psi4, default
symmetry c1  #important for SAPT in psi4, default
}

set PROPERTIES_ORIGIN ["COM"]
properties('MP2/aug-cc-pvtz', properties = ['dipole'])
--------------------------------------------------------------------------

    Molecular point group: c1
  Charge       = 0
  Multiplicity = 1
  Basis Set: AUG-CC-PVTZ
    Blend: AUG-CC-PVTZ
  Basis Set: (AUG-CC-PVTZ AUX)
    Blend: AUG-CC-PVTZ-JKFIT

    Orbital Energies [Eh]
    ---------------------

    Doubly Occupied:

       1A    -15.598996     2A    -15.598842     3A    -11.290976
       4A    -11.289309     5A    -11.288597     6A    -11.288083
       7A     -1.304352     8A     -1.217501     9A     -1.052650
      10A     -0.903125    11A     -0.886014    12A     -0.724458
      13A     -0.703007    14A     -0.675055    15A     -0.609263
      16A     -0.573927    17A     -0.546968    18A     -0.502495
      19A     -0.435513    20A     -0.416360    21A     -0.359528

  @DF-RHF Final Energy:  -262.76436325067732

   => Energetics <=

    Nuclear Repulsion Energy =            207.7794429028664354
    One-Electron Energy =                -766.5575737269850833
    Two-Electron Energy =                 296.0137675734413278
    Total Energy =                       -262.7643632506773201
  Basis Set: (AUG-CC-PVTZ AUX)
    Blend: AUG-CC-PVTZ-RI
    Molecular point group: c1

    Geometry (in Angstrom), charge = 0, multiplicity = 1:

       Center              X                  Y                   Z               Mass
    ------------   -----------------  -----------------  -----------------  -----------------
         C            0.003061979380    -0.698099758409     1.135691855395    12.000000000000
         C            0.003061979380     0.698097241591     1.135680855395    12.000000000000
         N            0.003054979380     1.417608241591    -0.000001144605    14.003074004430
         C            0.003061979380     0.698097241591    -1.135683144605    12.000000000000
         C            0.003061979380    -0.698099758409    -1.135694144605    12.000000000000
         N            0.003316979380    -1.417599758409    -0.000001144605    14.003074004430
         H           -0.245981020620    -1.258335658409     2.068650755395     1.007825032230
         H            0.003796979380     1.258267241591     2.068552855395     1.007825032230
         H            0.003796979380     1.258267241591    -2.068555144605     1.007825032230
         H            0.004018979380    -1.258256758409    -2.068562144605     1.007825032230

  Basis Set: AUG-CC-PVTZ
    Blend: AUG-CC-PVTZ
  Basis Set: (AUG-CC-PVTZ AUX)
    Blend: AUG-CC-PVTZ-JKFIT
	 Reference Energy          =    -262.7643632506773201 [Eh]
	 Singles Energy            =      -0.0000000000000000 [Eh]
	 Same-Spin Energy          =      -0.2835600881226893 [Eh]
	 Opposite-Spin Energy      =      -0.8606676699241087 [Eh]
	 Correlation Energy        =      -1.1442277580467981 [Eh]
	 Total Energy              =    -263.9085910087241018 [Eh]

	 ================> DF-SCS-MP2 Energies <==================
	-----------------------------------------------------------
	 SCS Same-Spin Scale       =       0.3333333333333333 [-]
	 SCS Opposite-Spin Scale   =       1.2000000000000000 [-]
	 SCS Same-Spin Energy      =      -0.0945200293742298 [Eh]
	 SCS Opposite-Spin Energy  =      -1.0328012039089305 [Eh]
	 SCS Correlation Energy    =      -1.1273212332831601 [Eh]
	 SCS Total Energy          =    -263.8916844839604892 [Eh]
	-----------------------------------------------------------

  Dipole Moment: [D]
     X:    -0.1211      Y:     0.0200      Z:    -0.0421     Total:     0.1298

*** Psi4 exiting successfully. Buy a developer a beer!
