                               Psi4 1.3.2 release

  ==> Input File <==

--------------------------------------------------------------------------
#psi4
#
memory 32 gb

molecule  {
0 1
  C       -0.0001220    -0.6981010     1.1356930
  C       -0.0001220     0.6980960     1.1356820
  N       -0.0001290     1.4176070     0.0000000
  C       -0.0001220     0.6980960    -1.1356820
  C       -0.0001220    -0.6981010    -1.1356930
  N        0.0001330    -1.4176010     0.0000000
  H       -0.0491650    -1.2582738     2.0685792
  H        0.0006130     1.2582660     2.0685540
  H        0.0006130     1.2582660    -2.0685540
  H        0.0008350    -1.2582580    -2.0685610
units angstrom
no_reorient  #important for SAPT in psi4, default
symmetry c1  #important for SAPT in psi4, default
}

set PROPERTIES_ORIGIN ["COM"]
properties('MP2/aug-cc-pvtz', properties = ['dipole'])
--------------------------------------------------------------------------

    Molecular point group: c1
  Charge       = 0
  Multiplicity = 1
  Basis Set: AUG-CC-PVTZ
    Blend: AUG-CC-PVTZ
  Basis Set: (AUG-CC-PVTZ AUX)
    Blend: AUG-CC-PVTZ-JKFIT

    Orbital Energies [Eh]
    ---------------------

    Doubly Occupied:

       1A    -15.598603     2A    -15.598586     3A    -11.288949
       4A    -11.288888     5A    -11.287727     6A    -11.287684
       7A     -1.304050     8A     -1.217238     9A     -1.053022
      10A     -0.903388    11A     -0.886914    12A     -0.725965
      13A     -0.702740    14A     -0.677684    15A     -0.610574
      16A     -0.573224    17A     -0.550121    18A     -0.502239
      19A     -0.435151    20A     -0.416401    21A     -0.360088

  @DF-RHF Final Energy:  -262.76858244501648

   => Energetics <=

    Nuclear Repulsion Energy =            207.8806232759251600
    One-Electron Energy =                -766.7599389486448445
    Two-Electron Energy =                 296.1107332277032356
    Total Energy =                       -262.7685824450164773
  Basis Set: (AUG-CC-PVTZ AUX)
    Blend: AUG-CC-PVTZ-RI
    Molecular point group: c1

    Geometry (in Angstrom), charge = 0, multiplicity = 1:

       Center              X                  Y                   Z               Mass
    ------------   -----------------  -----------------  -----------------  -----------------
         C            0.000543595659    -0.698100552959     1.135692770827    12.000000000000
         C            0.000543595659     0.698096447041     1.135681770827    12.000000000000
         N            0.000536595659     1.417607447041    -0.000000229173    14.003074004430
         C            0.000543595659     0.698096447041    -1.135682229173    12.000000000000
         C            0.000543595659    -0.698100552959    -1.135693229173    12.000000000000
         N            0.000798595659    -1.417600552959    -0.000000229173    14.003074004430
         H           -0.048499404341    -1.258273352959     2.068578970827     1.007825032230
         H            0.001278595659     1.258266447041     2.068553770827     1.007825032230
         H            0.001278595659     1.258266447041    -2.068554229173     1.007825032230
         H            0.001500595659    -1.258257552959    -2.068561229173     1.007825032230

  Basis Set: AUG-CC-PVTZ
    Blend: AUG-CC-PVTZ
  Basis Set: (AUG-CC-PVTZ AUX)
    Blend: AUG-CC-PVTZ-JKFIT
	 Reference Energy          =    -262.7685824450164773 [Eh]
	 Singles Energy            =      -0.0000000000000000 [Eh]
	 Same-Spin Energy          =      -0.2833388794984798 [Eh]
	 Opposite-Spin Energy      =      -0.8601718670547061 [Eh]
	 Correlation Energy        =      -1.1435107465531860 [Eh]
	 Total Energy              =    -263.9120931915696815 [Eh]

	 ================> DF-SCS-MP2 Energies <==================
	-----------------------------------------------------------
	 SCS Same-Spin Scale       =       0.3333333333333333 [-]
	 SCS Opposite-Spin Scale   =       1.2000000000000000 [-]
	 SCS Same-Spin Energy      =      -0.0944462931661599 [Eh]
	 SCS Opposite-Spin Energy  =      -1.0322062404656471 [Eh]
	 SCS Correlation Energy    =      -1.1266525336318072 [Eh]
	 SCS Total Energy          =    -263.8952349786482614 [Eh]
	-----------------------------------------------------------

  Dipole Moment: [D]
     X:    -0.0235      Y:     0.0008      Z:    -0.0017     Total:     0.0236

*** Psi4 exiting successfully. Buy a developer a beer!
