                               Psi4 1.3.2 release

  ==> Input File <==

--------------------------------------------------------------------------
#psi4
#
memory 32 gb

molecule  {
0 1
  C       -0.0001220    -0.6981010     1.1356930
  C       -0.0001220     0.6980960     1.1356820
  N       -0.0001290     1.4176070     0.0000000
  C       -0.0001220     0.6980960    -1.1356820
  C       -0.0001220    -0.6981010    -1.1356930
  N        0.0001330    -1.4176010     0.0000000
  H       -0.0991650    -1.2582896     2.0685974
  H        0.0006130     1.2582660     2.0685540
  H        0.0006130     1.2582660    -2.0685540
  H        0.0008350    -1.2582580    -2.0685610
units angstrom
no_reorient  #important for SAPT in psi4, default
symmetry c1  #important for SAPT in psi4, default
}

set PROPERTIES_ORIGIN ["COM"]
properties('MP2/aug-cc-pvtz', properties = ['dipole'])
--------------------------------------------------------------------------

    Molecular point group: c1
  Charge       = 0
  Multiplicity = 1
  Basis Set: AUG-CC-PVTZ
    Blend: AUG-CC-PVTZ
  Basis Set: (AUG-CC-PVTZ AUX)
    Blend: AUG-CC-PVTZ-JKFIT

    Orbital Energies [Eh]
    ---------------------

    Doubly Occupied:

       1A    -15.598649     2A    -15.598620     3A    -11.289148
       4A    -11.288944     5A    -11.287889     6A    -11.287734
       7A     -1.304087     8A     -1.217270     9A     -1.052970
      10A     -0.903347    11A     -0.886797    12A     -0.725753
      13A     -0.702773    14A     -0.677349    15A     -0.610413
      16A     -0.573318    17A     -0.549727    18A     -0.502271
      19A     -0.435196    20A     -0.416396    21A     -0.360015

  @DF-RHF Final Energy:  -262.76809056347929

   => Energetics <=

    Nuclear Repulsion Energy =            207.8676798675812165
    One-Electron Energy =                -766.7342114539158047
    Two-Electron Energy =                 296.0984410228552406
    Total Energy =                       -262.7680905634792907
  Basis Set: (AUG-CC-PVTZ AUX)
    Blend: AUG-CC-PVTZ-RI
    Molecular point group: c1

    Geometry (in Angstrom), charge = 0, multiplicity = 1:

       Center              X                  Y                   Z               Mass
    ------------   -----------------  -----------------  -----------------  -----------------
         C            0.001173191589    -0.698100354007     1.135692541654    12.000000000000
         C            0.001173191589     0.698096645993     1.135681541654    12.000000000000
         N            0.001166191589     1.417607645993    -0.000000458346    14.003074004430
         C            0.001173191589     0.698096645993    -1.135682458346    12.000000000000
         C            0.001173191589    -0.698100354007    -1.135693458346    12.000000000000
         N            0.001428191589    -1.417600354007    -0.000000458346    14.003074004430
         H           -0.097869808411    -1.258288954007     2.068596941654     1.007825032230
         H            0.001908191589     1.258266645993     2.068553541654     1.007825032230
         H            0.001908191589     1.258266645993    -2.068554458346     1.007825032230
         H            0.002130191589    -1.258257354007    -2.068561458346     1.007825032230

  Basis Set: AUG-CC-PVTZ
    Blend: AUG-CC-PVTZ
  Basis Set: (AUG-CC-PVTZ AUX)
    Blend: AUG-CC-PVTZ-JKFIT
	 Reference Energy          =    -262.7680905634792907 [Eh]
	 Singles Energy            =      -0.0000000000000000 [Eh]
	 Same-Spin Energy          =      -0.2833666894566430 [Eh]
	 Opposite-Spin Energy      =      -0.8602272452688687 [Eh]
	 Correlation Energy        =      -1.1435939347255117 [Eh]
	 Total Energy              =    -263.9116844982048065 [Eh]

	 ================> DF-SCS-MP2 Energies <==================
	-----------------------------------------------------------
	 SCS Same-Spin Scale       =       0.3333333333333333 [-]
	 SCS Opposite-Spin Scale   =       1.2000000000000000 [-]
	 SCS Same-Spin Energy      =      -0.0944555631522143 [Eh]
	 SCS Opposite-Spin Energy  =      -1.0322726943226423 [Eh]
	 SCS Correlation Energy    =      -1.1267282574748567 [Eh]
	 SCS Total Energy          =    -263.8948188209541286 [Eh]
	-----------------------------------------------------------

  Dipole Moment: [D]
     X:    -0.0483      Y:     0.0032      Z:    -0.0067     Total:     0.0488

*** Psi4 exiting successfully. Buy a developer a beer!
