                               Psi4 1.3.2 release

  ==> Input File <==

--------------------------------------------------------------------------
#psi4
#
memory 32 gb

molecule  {
0 1
  C       -0.0001220    -0.6981010     1.1356930
  C       -0.0001220     0.6980960     1.1356820
  N       -0.0001290     1.4176070     0.0000000
  C       -0.0001220     0.6980960    -1.1356820
  C       -0.0001220    -0.6981010    -1.1356930
  N        0.0001330    -1.4176010     0.0000000
  H       -0.1491650    -1.2583054     2.0686156
  H        0.0006130     1.2582660     2.0685540
  H        0.0006130     1.2582660    -2.0685540
  H        0.0008350    -1.2582580    -2.0685610
units angstrom
no_reorient  #important for SAPT in psi4, default
symmetry c1  #important for SAPT in psi4, default
}

set PROPERTIES_ORIGIN ["COM"]
properties('MP2/aug-cc-pvtz', properties = ['dipole'])
--------------------------------------------------------------------------

    Molecular point group: c1
  Charge       = 0
  Multiplicity = 1
  Basis Set: AUG-CC-PVTZ
    Blend: AUG-CC-PVTZ
  Basis Set: (AUG-CC-PVTZ AUX)
    Blend: AUG-CC-PVTZ-JKFIT

    Orbital Energies [Eh]
    ---------------------

    Doubly Occupied:

       1A    -15.598729     2A    -15.598673     3A    -11.289535
       4A    -11.289031     5A    -11.288110     6A    -11.287818
       7A     -1.304149     8A     -1.217324     9A     -1.052888
      10A     -0.903284    11A     -0.886605    12A     -0.725415
      13A     -0.702827    14A     -0.676794    15A     -0.610142
      16A     -0.573469    17A     -0.549069    18A     -0.502324
      19A     -0.435272    20A     -0.416388    21A     -0.359895

  @DF-RHF Final Energy:  -262.76724520957555

   => Energetics <=

    Nuclear Repulsion Energy =            207.8462845092386431
    One-Electron Energy =                -766.6915763750276938
    Two-Electron Energy =                 296.0780466562134734
    Total Energy =                       -262.7672452095755489
  Basis Set: (AUG-CC-PVTZ AUX)
    Blend: AUG-CC-PVTZ-RI
    Molecular point group: c1

    Geometry (in Angstrom), charge = 0, multiplicity = 1:

       Center              X                  Y                   Z               Mass
    ------------   -----------------  -----------------  -----------------  -----------------
         C            0.001802787519    -0.698100155055     1.135692312481    12.000000000000
         C            0.001802787519     0.698096844945     1.135681312481    12.000000000000
         N            0.001795787519     1.417607844945    -0.000000687519    14.003074004430
         C            0.001802787519     0.698096844945    -1.135682687519    12.000000000000
         C            0.001802787519    -0.698100155055    -1.135693687519    12.000000000000
         N            0.002057787519    -1.417600155055    -0.000000687519    14.003074004430
         H           -0.147240212481    -1.258304555055     2.068614912481     1.007825032230
         H            0.002537787519     1.258266844945     2.068553312481     1.007825032230
         H            0.002537787519     1.258266844945    -2.068554687519     1.007825032230
         H            0.002759787519    -1.258257155055    -2.068561687519     1.007825032230

  Basis Set: AUG-CC-PVTZ
    Blend: AUG-CC-PVTZ
  Basis Set: (AUG-CC-PVTZ AUX)
    Blend: AUG-CC-PVTZ-JKFIT
	 Reference Energy          =    -262.7672452095755489 [Eh]
	 Singles Energy            =      -0.0000000000000000 [Eh]
	 Same-Spin Energy          =      -0.2834130810922330 [Eh]
	 Opposite-Spin Energy      =      -0.8603254213506005 [Eh]
	 Correlation Energy        =      -1.1437385024428335 [Eh]
	 Total Energy              =    -263.9109837120183784 [Eh]

	 ================> DF-SCS-MP2 Energies <==================
	-----------------------------------------------------------
	 SCS Same-Spin Scale       =       0.3333333333333333 [-]
	 SCS Opposite-Spin Scale   =       1.2000000000000000 [-]
	 SCS Same-Spin Energy      =      -0.0944710270307443 [Eh]
	 SCS Opposite-Spin Energy  =      -1.0323905056207205 [Eh]
	 SCS Correlation Energy    =      -1.1268615326514648 [Eh]
	 SCS Total Energy          =    -263.8941067422269953 [Eh]
	-----------------------------------------------------------

  Dipole Moment: [D]
     X:    -0.0728      Y:     0.0072      Z:    -0.0152     Total:     0.0748

*** Psi4 exiting successfully. Buy a developer a beer!
