                               Psi4 1.3.2 release

  ==> Input File <==

--------------------------------------------------------------------------
#psi4
#
memory 32 gb

molecule  {
0 1
  C       -0.0001220    -0.6981010     1.1356930
  C       -0.0001220     0.6980960     1.1356820
  N       -0.0001290     1.4176070     0.0000000
  C       -0.0001220     0.6980960    -1.1356820
  C       -0.0001220    -0.6981010    -1.1356930
  N        0.0001330    -1.4176010     0.0000000
  H        0.0008350    -1.2582580     2.0685610
  H        0.0006130     1.2582660     2.0685540
  H        0.0006130     1.2582660    -2.0685540
  H        0.0008350    -1.2582580    -2.0685610
units angstrom
no_reorient  #important for SAPT in psi4, default
symmetry c1  #important for SAPT in psi4, default
}

set PROPERTIES_ORIGIN ["COM"]
properties('MP2/aug-cc-pvtz', properties = ['dipole'])
--------------------------------------------------------------------------

    Molecular point group: c1
  Charge       = 0
  Multiplicity = 1
  Basis Set: AUG-CC-PVTZ
    Blend: AUG-CC-PVTZ
  Basis Set: (AUG-CC-PVTZ AUX)
    Blend: AUG-CC-PVTZ-JKFIT

    Orbital Energies [Eh]
    ---------------------

    Doubly Occupied:

       1A    -15.598590     2A    -15.598574     3A    -11.288899
       4A    -11.288859     5A    -11.287672     6A    -11.287663
       7A     -1.304038     8A     -1.217228     9A     -1.053039
      10A     -0.903403    11A     -0.886953    12A     -0.726037
      13A     -0.702730    14A     -0.677794    15A     -0.610626
      16A     -0.573193    17A     -0.550252    18A     -0.502229
      19A     -0.435136    20A     -0.416402    21A     -0.360113

  @DF-RHF Final Energy:  -262.76874088955168

   => Energetics <=

    Nuclear Repulsion Energy =            207.8849286818994813
    One-Electron Energy =                -766.7684821974219176
    Two-Electron Energy =                 296.1148126259707283
    Total Energy =                       -262.7687408895516796
  Basis Set: (AUG-CC-PVTZ AUX)
    Blend: AUG-CC-PVTZ-RI
    Molecular point group: c1

    Geometry (in Angstrom), charge = 0, multiplicity = 1:

       Center              X                  Y                   Z               Mass
    ------------   -----------------  -----------------  -----------------  -----------------
         C           -0.000086000271    -0.698100751912     1.135693000000    12.000000000000
         C           -0.000086000271     0.698096248088     1.135682000000    12.000000000000
         N           -0.000093000271     1.417607248088     0.000000000000    14.003074004430
         C           -0.000086000271     0.698096248088    -1.135682000000    12.000000000000
         C           -0.000086000271    -0.698100751912    -1.135693000000    12.000000000000
         N            0.000168999729    -1.417600751912     0.000000000000    14.003074004430
         H            0.000870999729    -1.258257751912     2.068561000000     1.007825032230
         H            0.000648999729     1.258266248088     2.068554000000     1.007825032230
         H            0.000648999729     1.258266248088    -2.068554000000     1.007825032230
         H            0.000870999729    -1.258257751912    -2.068561000000     1.007825032230

  Basis Set: AUG-CC-PVTZ
    Blend: AUG-CC-PVTZ
  Basis Set: (AUG-CC-PVTZ AUX)
    Blend: AUG-CC-PVTZ-JKFIT
	 Reference Energy          =    -262.7687408895516796 [Eh]
	 Singles Energy            =      -0.0000000000000000 [Eh]
	 Same-Spin Energy          =      -0.2833297747112161 [Eh]
	 Opposite-Spin Energy      =      -0.8601544142146804 [Eh]
	 Correlation Energy        =      -1.1434841889258964 [Eh]
	 Total Energy              =    -263.9122250784776043 [Eh]

	 ================> DF-SCS-MP2 Energies <==================
	-----------------------------------------------------------
	 SCS Same-Spin Scale       =       0.3333333333333333 [-]
	 SCS Opposite-Spin Scale   =       1.2000000000000000 [-]
	 SCS Same-Spin Energy      =      -0.0944432582370720 [Eh]
	 SCS Opposite-Spin Energy  =      -1.0321852970576164 [Eh]
	 SCS Correlation Energy    =      -1.1266285552946884 [Eh]
	 SCS Total Energy          =    -263.8953694448463807 [Eh]
	-----------------------------------------------------------

  Dipole Moment: [D]
     X:     0.0013      Y:    -0.0000      Z:    -0.0000     Total:     0.0013

*** Psi4 exiting successfully. Buy a developer a beer!
