                               Psi4 1.3.2 release

  ==> Input File <==

--------------------------------------------------------------------------
#psi4
#
memory 32 gb

molecule  {
0 1
  C       -0.0001220    -0.6981010     1.1356930
  C       -0.0001220     0.6980960     1.1356820
  N       -0.0001290     1.4176070     0.0000000
  C       -0.0001220     0.6980960    -1.1356820
  C       -0.0001220    -0.6981010    -1.1356930
  N        0.0001330    -1.4176010     0.0000000
  H       -0.2991650    -1.2583527     2.0686701
  H        0.0006130     1.2582660     2.0685540
  H        0.0006130     1.2582660    -2.0685540
  H        0.0008350    -1.2582580    -2.0685610
units angstrom
no_reorient  #important for SAPT in psi4, default
symmetry c1  #important for SAPT in psi4, default
}

set PROPERTIES_ORIGIN ["COM"]
properties('MP2/aug-cc-pvtz', properties = ['dipole'])
--------------------------------------------------------------------------

    Molecular point group: c1
  Charge       = 0
  Multiplicity = 1
  Basis Set: AUG-CC-PVTZ
    Blend: AUG-CC-PVTZ
  Basis Set: (AUG-CC-PVTZ AUX)
    Blend: AUG-CC-PVTZ-JKFIT

    Orbital Energies [Eh]
    ---------------------

    Doubly Occupied:

       1A    -15.599183     2A    -15.598960     3A    -11.292015
       4A    -11.289504     5A    -11.288860     6A    -11.288262
       7A     -1.304493     8A     -1.217626     9A     -1.052505
      10A     -0.903048    11A     -0.885630    12A     -0.723900
      13A     -0.703132    14A     -0.673901    15A     -0.608652
      16A     -0.574222    17A     -0.545526    18A     -0.502613
      19A     -0.435678    20A     -0.416338    21A     -0.359288

  @DF-RHF Final Energy:  -262.76224705237718

   => Energetics <=

    Nuclear Repulsion Energy =            207.7348828350385475
    One-Electron Energy =                -766.4675889362629277
    Two-Electron Energy =                 295.9704590488472036
    Total Energy =                       -262.7622470523771767
  Basis Set: (AUG-CC-PVTZ AUX)
    Blend: AUG-CC-PVTZ-RI
    Molecular point group: c1

    Geometry (in Angstrom), charge = 0, multiplicity = 1:

       Center              X                  Y                   Z               Mass
    ------------   -----------------  -----------------  -----------------  -----------------
         C            0.003691575310    -0.698099559457     1.135691626222    12.000000000000
         C            0.003691575310     0.698097440543     1.135680626222    12.000000000000
         N            0.003684575310     1.417608440543    -0.000001373778    14.003074004430
         C            0.003691575310     0.698097440543    -1.135683373778    12.000000000000
         C            0.003691575310    -0.698099559457    -1.135694373778    12.000000000000
         N            0.003946575310    -1.417599559457    -0.000001373778    14.003074004430
         H           -0.295351424690    -1.258351259457     2.068668726222     1.007825032230
         H            0.004426575310     1.258267440543     2.068552626222     1.007825032230
         H            0.004426575310     1.258267440543    -2.068555373778     1.007825032230
         H            0.004648575310    -1.258256559457    -2.068562373778     1.007825032230

  Basis Set: AUG-CC-PVTZ
    Blend: AUG-CC-PVTZ
  Basis Set: (AUG-CC-PVTZ AUX)
    Blend: AUG-CC-PVTZ-JKFIT
	 Reference Energy          =    -262.7622470523771767 [Eh]
	 Singles Energy            =      -0.0000000000000000 [Eh]
	 Same-Spin Energy          =      -0.2836594414644872 [Eh]
	 Opposite-Spin Energy      =      -0.8609163064600830 [Eh]
	 Correlation Energy        =      -1.1445757479245702 [Eh]
	 Total Energy              =    -263.9068228003017680 [Eh]

	 ================> DF-SCS-MP2 Energies <==================
	-----------------------------------------------------------
	 SCS Same-Spin Scale       =       0.3333333333333333 [-]
	 SCS Opposite-Spin Scale   =       1.2000000000000000 [-]
	 SCS Same-Spin Energy      =      -0.0945531471548291 [Eh]
	 SCS Opposite-Spin Energy  =      -1.0330995677520995 [Eh]
	 SCS Correlation Energy    =      -1.1276527149069286 [Eh]
	 SCS Total Energy          =    -263.8898997672840778 [Eh]
	-----------------------------------------------------------

  Dipole Moment: [D]
     X:    -0.1447      Y:     0.0287      Z:    -0.0604     Total:     0.1594

*** Psi4 exiting successfully. Buy a developer a beer!
