                               Psi4 1.3.2 release

  ==> Input File <==

--------------------------------------------------------------------------
#psi4
#
memory 32 gb

molecule  {
0 1
  C       -0.0001220    -0.6981010     1.1356930
  C       -0.0001220     0.6980960     1.1356820
  N       -0.0001290     1.4176070     0.0000000
  C       -0.0001220     0.6980960    -1.1356820
  C       -0.0001220    -0.6981010    -1.1356930
  N        0.0001330    -1.4176010     0.0000000
  H       -0.1991650    -1.2583212     2.0686337
  H        0.0006130     1.2582660     2.0685540
  H        0.0006130     1.2582660    -2.0685540
  H        0.0008350    -1.2582580    -2.0685610
units angstrom
no_reorient  #important for SAPT in psi4, default
symmetry c1  #important for SAPT in psi4, default
}

set PROPERTIES_ORIGIN ["COM"]
properties('MP2/aug-cc-pvtz', properties = ['dipole'])
--------------------------------------------------------------------------

    Molecular point group: c1
  Charge       = 0
  Multiplicity = 1
  Basis Set: AUG-CC-PVTZ
    Blend: AUG-CC-PVTZ
  Basis Set: (AUG-CC-PVTZ AUX)
    Blend: AUG-CC-PVTZ-JKFIT

    Orbital Energies [Eh]
    ---------------------

    Doubly Occupied:

       1A    -15.598845     2A    -15.598747     3A    -11.290143
       4A    -11.289152     5A    -11.288350     6A    -11.287934
       7A     -1.304238     8A     -1.217401     9A     -1.052779
      10A     -0.903206    11A     -0.886342    12A     -0.724974
      13A     -0.702905    14A     -0.676025    15A     -0.609760
      16A     -0.573675    17A     -0.548149    18A     -0.502398
      19A     -0.435377    20A     -0.416376    21A     -0.359732

  @DF-RHF Final Energy:  -262.76601551350274

   => Energetics <=

    Nuclear Repulsion Energy =            207.8167384611483612
    One-Electron Energy =                -766.6324905689855314
    Two-Electron Energy =                 296.0497365943344334
    Total Energy =                       -262.7660155135027367
  Basis Set: (AUG-CC-PVTZ AUX)
    Blend: AUG-CC-PVTZ-RI
    Molecular point group: c1

    Geometry (in Angstrom), charge = 0, multiplicity = 1:

       Center              X                  Y                   Z               Mass
    ------------   -----------------  -----------------  -----------------  -----------------
         C            0.002432383449    -0.698099956102     1.135692084568    12.000000000000
         C            0.002432383449     0.698097043898     1.135681084568    12.000000000000
         N            0.002425383449     1.417608043898    -0.000000915432    14.003074004430
         C            0.002432383449     0.698097043898    -1.135682915432    12.000000000000
         C            0.002432383449    -0.698099956102    -1.135693915432    12.000000000000
         N            0.002687383449    -1.417599956102    -0.000000915432    14.003074004430
         H           -0.196610616551    -1.258320156102     2.068632784568     1.007825032230
         H            0.003167383449     1.258267043898     2.068553084568     1.007825032230
         H            0.003167383449     1.258267043898    -2.068554915432     1.007825032230
         H            0.003389383449    -1.258256956102    -2.068561915432     1.007825032230

  Basis Set: AUG-CC-PVTZ
    Blend: AUG-CC-PVTZ
  Basis Set: (AUG-CC-PVTZ AUX)
    Blend: AUG-CC-PVTZ-JKFIT
	 Reference Energy          =    -262.7660155135027367 [Eh]
	 Singles Energy            =      -0.0000000000000000 [Eh]
	 Same-Spin Energy          =      -0.2834777280046371 [Eh]
	 Opposite-Spin Energy      =      -0.8604711803772876 [Eh]
	 Correlation Energy        =      -1.1439489083819248 [Eh]
	 Total Energy              =    -263.9099644218846379 [Eh]

	 ================> DF-SCS-MP2 Energies <==================
	-----------------------------------------------------------
	 SCS Same-Spin Scale       =       0.3333333333333333 [-]
	 SCS Opposite-Spin Scale   =       1.2000000000000000 [-]
	 SCS Same-Spin Energy      =      -0.0944925760015457 [Eh]
	 SCS Opposite-Spin Energy  =      -1.0325654164527451 [Eh]
	 SCS Correlation Energy    =      -1.1270579924542907 [Eh]
	 SCS Total Energy          =    -263.8930735059570338 [Eh]
	-----------------------------------------------------------

  Dipole Moment: [D]
     X:    -0.0972      Y:     0.0128      Z:    -0.0270     Total:     0.1017

*** Psi4 exiting successfully. Buy a developer a beer!
