                               Psi4 1.3.2 release

  ==> Input File <==

--------------------------------------------------------------------------
#psi4
#
memory 32 gb

molecule  {
0 1
  O       -1.3942470    -0.6912850     0.0000710
  C        0.5551450     0.7377530     0.0000990
  C        1.4188320    -0.5145600    -0.0000660
  C       -0.9211660     0.4378280    -0.0001010
  H        0.7619420     1.3719750     0.8733060
  H        0.7621780     1.3724340    -0.8727060
  H        1.2112930    -1.1257500    -0.8806530
  H        1.2110310    -1.1261570     0.8801730
  H        2.4796340    -0.2528610     0.0001440
  H       -1.5890067     1.3245701     0.2495840
units angstrom
no_reorient  #important for SAPT in psi4, default
symmetry c1  #important for SAPT in psi4, default
}

set PROPERTIES_ORIGIN ["COM"]
properties('MP2/aug-cc-pvtz', properties = ['dipole'])
--------------------------------------------------------------------------

    Molecular point group: c1
  Charge       = 0
  Multiplicity = 1
  Basis Set: AUG-CC-PVTZ
    Blend: AUG-CC-PVTZ
  Basis Set: (AUG-CC-PVTZ AUX)
    Blend: AUG-CC-PVTZ-JKFIT

    Orbital Energies [Eh]
    ---------------------

    Doubly Occupied:

       1A    -20.560405     2A    -11.338874     3A    -11.248462
       4A    -11.223072     5A     -1.384789     6A     -1.062808
       7A     -0.909805     8A     -0.769963     9A     -0.677587
      10A     -0.634749    11A     -0.625537    12A     -0.541250
      13A     -0.525874    14A     -0.519478    15A     -0.490539
      16A     -0.422675

  @DF-RHF Final Energy:  -192.01972307643672

   => Energetics <=

    Nuclear Repulsion Energy =            118.2219716639177136
    One-Electron Energy =                -494.6116578275941151
    Two-Electron Energy =                 184.3699630872396824
    Total Energy =                       -192.0197230764367191
  Basis Set: (AUG-CC-PVTZ AUX)
    Blend: AUG-CC-PVTZ-RI
    Molecular point group: c1

    Geometry (in Angstrom), charge = 0, multiplicity = 1:

       Center              X                  Y                   Z               Mass
    ------------   -----------------  -----------------  -----------------  -----------------
         O           -1.311682316728    -0.664608712884    -0.004272807843    15.994914619570
         C            0.637709683272     0.764429287116    -0.004244807843    12.000000000000
         C            1.501396683272    -0.487883712884    -0.004409807843    12.000000000000
         C           -0.838601316728     0.464504287116    -0.004444807843    12.000000000000
         H            0.844506683272     1.398651287116     0.868962192157     1.007825032230
         H            0.844742683272     1.399110287116    -0.877049807843     1.007825032230
         H            1.293857683272    -1.099073712884    -0.884996807843     1.007825032230
         H            1.293595683272    -1.099480712884     0.875829192157     1.007825032230
         H            2.562198683272    -0.226184712884    -0.004199807843     1.007825032230
         H           -1.506442016728     1.351246387116     0.245240192157     1.007825032230

  Basis Set: AUG-CC-PVTZ
    Blend: AUG-CC-PVTZ
  Basis Set: (AUG-CC-PVTZ AUX)
    Blend: AUG-CC-PVTZ-JKFIT
	 Reference Energy          =    -192.0197230764367191 [Eh]
	 Singles Energy            =      -0.0000000000000000 [Eh]
	 Same-Spin Energy          =      -0.1871879600156468 [Eh]
	 Opposite-Spin Energy      =      -0.6397702122054076 [Eh]
	 Correlation Energy        =      -0.8269581722210544 [Eh]
	 Total Energy              =    -192.8466812486577737 [Eh]

	 ================> DF-SCS-MP2 Energies <==================
	-----------------------------------------------------------
	 SCS Same-Spin Scale       =       0.3333333333333333 [-]
	 SCS Opposite-Spin Scale   =       1.2000000000000000 [-]
	 SCS Same-Spin Energy      =      -0.0623959866718823 [Eh]
	 SCS Opposite-Spin Energy  =      -0.7677242546464892 [Eh]
	 SCS Correlation Energy    =      -0.8301202413183715 [Eh]
	 SCS Total Energy          =    -192.8498433177551021 [Eh]
	-----------------------------------------------------------

  Dipole Moment: [D]
     X:     1.5844      Y:     2.1515      Z:     0.0792     Total:     2.6731

*** Psi4 exiting successfully. Buy a developer a beer!
