                               Psi4 1.3.2 release

  ==> Input File <==

--------------------------------------------------------------------------
#psi4
#
memory 32 gb

molecule  {
0 1
  O       -1.3942470    -0.6912850     0.0000710
  C        0.5551450     0.7377530     0.0000990
  C        1.4188320    -0.5145600    -0.0000660
  C       -0.9211660     0.4378280    -0.0001010
  H        0.7619420     1.3719750     0.8733060
  H        0.7621780     1.3724340    -0.8727060
  H        1.2112930    -1.1257500    -0.8806530
  H        1.2110310    -1.1261570     0.8801730
  H        2.4796340    -0.2528610     0.0001440
  H       -1.5889978     1.3245589     0.1995840
units angstrom
no_reorient  #important for SAPT in psi4, default
symmetry c1  #important for SAPT in psi4, default
}

set PROPERTIES_ORIGIN ["COM"]
properties('MP2/aug-cc-pvtz', properties = ['dipole'])
--------------------------------------------------------------------------

    Molecular point group: c1
  Charge       = 0
  Multiplicity = 1
  Basis Set: AUG-CC-PVTZ
    Blend: AUG-CC-PVTZ
  Basis Set: (AUG-CC-PVTZ AUX)
    Blend: AUG-CC-PVTZ-JKFIT

    Orbital Energies [Eh]
    ---------------------

    Doubly Occupied:

       1A    -20.559919     2A    -11.337815     3A    -11.248210
       4A    -11.222899     5A     -1.384463     6A     -1.062704
       7A     -0.910195     8A     -0.771487     9A     -0.678284
      10A     -0.634579    11A     -0.625732    12A     -0.540839
      13A     -0.525628    14A     -0.519711    15A     -0.490353
      16A     -0.423274

  @DF-RHF Final Energy:  -192.02113975765354

   => Energetics <=

    Nuclear Repulsion Energy =            118.2569133694166226
    One-Electron Energy =                -494.6839226694737590
    Two-Electron Energy =                 184.4058695424035932
    Total Energy =                       -192.0211397576535433
  Basis Set: (AUG-CC-PVTZ AUX)
    Blend: AUG-CC-PVTZ-RI
    Molecular point group: c1

    Geometry (in Angstrom), charge = 0, multiplicity = 1:

       Center              X                  Y                   Z               Mass
    ------------   -----------------  -----------------  -----------------  -----------------
         O           -1.311682471266    -0.664608518410    -0.003404619824    15.994914619570
         C            0.637709528734     0.764429481590    -0.003376619824    12.000000000000
         C            1.501396528734    -0.487883518410    -0.003541619824    12.000000000000
         C           -0.838601471266     0.464504481590    -0.003576619824    12.000000000000
         H            0.844506528734     1.398651481590     0.869830380176     1.007825032230
         H            0.844742528734     1.399110481590    -0.876181619824     1.007825032230
         H            1.293857528734    -1.099073518410    -0.884128619824     1.007825032230
         H            1.293595528734    -1.099480518410     0.876697380176     1.007825032230
         H            2.562198528734    -0.226184518410    -0.003331619824     1.007825032230
         H           -1.506433271266     1.351235381590     0.196108380176     1.007825032230

  Basis Set: AUG-CC-PVTZ
    Blend: AUG-CC-PVTZ
  Basis Set: (AUG-CC-PVTZ AUX)
    Blend: AUG-CC-PVTZ-JKFIT
	 Reference Energy          =    -192.0211397576535433 [Eh]
	 Singles Energy            =      -0.0000000000000000 [Eh]
	 Same-Spin Energy          =      -0.1871152796993658 [Eh]
	 Opposite-Spin Energy      =      -0.6395814490435275 [Eh]
	 Correlation Energy        =      -0.8266967287428932 [Eh]
	 Total Energy              =    -192.8478364863964316 [Eh]

	 ================> DF-SCS-MP2 Energies <==================
	-----------------------------------------------------------
	 SCS Same-Spin Scale       =       0.3333333333333333 [-]
	 SCS Opposite-Spin Scale   =       1.2000000000000000 [-]
	 SCS Same-Spin Energy      =      -0.0623717598997886 [Eh]
	 SCS Opposite-Spin Energy  =      -0.7674977388522330 [Eh]
	 SCS Correlation Energy    =      -0.8298694987520217 [Eh]
	 SCS Total Energy          =    -192.8510092564055753 [Eh]
	-----------------------------------------------------------

  Dipole Moment: [D]
     X:     1.5730      Y:     2.1714      Z:     0.0651     Total:     2.6821

*** Psi4 exiting successfully. Buy a developer a beer!
