                               Psi4 1.3.2 release

  ==> Input File <==

--------------------------------------------------------------------------
#psi4
#
memory 32 gb

molecule  {
0 1
  O       -1.3942470    -0.6912850     0.0000710
  C        0.5551450     0.7377530     0.0000990
  C        1.4188320    -0.5145600    -0.0000660
  C       -0.9211660     0.4378280    -0.0001010
  H        0.7619420     1.3719750     0.8733060
  H        0.7621780     1.3724340    -0.8727060
  H        1.2112930    -1.1257500    -0.8806530
  H        1.2110310    -1.1261570     0.8801730
  H        2.4796340    -0.2528610     0.0001440
  H       -1.5889709     1.3245252     0.0495840
units angstrom
no_reorient  #important for SAPT in psi4, default
symmetry c1  #important for SAPT in psi4, default
}

set PROPERTIES_ORIGIN ["COM"]
properties('MP2/aug-cc-pvtz', properties = ['dipole'])
--------------------------------------------------------------------------

    Molecular point group: c1
  Charge       = 0
  Multiplicity = 1
  Basis Set: AUG-CC-PVTZ
    Blend: AUG-CC-PVTZ
  Basis Set: (AUG-CC-PVTZ AUX)
    Blend: AUG-CC-PVTZ-JKFIT

    Orbital Energies [Eh]
    ---------------------

    Doubly Occupied:

       1A    -20.559111     2A    -11.336024     3A    -11.247796
       4A    -11.222613     5A     -1.383922     6A     -1.062542
       7A     -0.910924     8A     -0.774207     9A     -0.679437
      10A     -0.634304    11A     -0.626046    12A     -0.540129
      13A     -0.525177    14A     -0.520181    15A     -0.490051
      16A     -0.424255

  @DF-RHF Final Energy:  -192.02334498367765

   => Energetics <=

    Nuclear Repulsion Energy =            118.3167936640004285
    One-Electron Energy =                -494.8068371185802334
    Two-Electron Energy =                 184.4666984709021449
    Total Energy =                       -192.0233449836776458
  Basis Set: (AUG-CC-PVTZ AUX)
    Blend: AUG-CC-PVTZ-RI
    Molecular point group: c1

    Geometry (in Angstrom), charge = 0, multiplicity = 1:

       Center              X                  Y                   Z               Mass
    ------------   -----------------  -----------------  -----------------  -----------------
         O           -1.311682938351    -0.664607933251    -0.000800055768    15.994914619570
         C            0.637709061649     0.764430066749    -0.000772055768    12.000000000000
         C            1.501396061649    -0.487882933251    -0.000937055768    12.000000000000
         C           -0.838601938351     0.464505066749    -0.000972055768    12.000000000000
         H            0.844506061649     1.398652066749     0.872434944232     1.007825032230
         H            0.844742061649     1.399111066749    -0.873577055768     1.007825032230
         H            1.293857061649    -1.099072933251    -0.881524055768     1.007825032230
         H            1.293595061649    -1.099479933251     0.879301944232     1.007825032230
         H            2.562198061649    -0.226183933251    -0.000727055768     1.007825032230
         H           -1.506406838351     1.351202266749     0.048712944232     1.007825032230

  Basis Set: AUG-CC-PVTZ
    Blend: AUG-CC-PVTZ
  Basis Set: (AUG-CC-PVTZ AUX)
    Blend: AUG-CC-PVTZ-JKFIT
	 Reference Energy          =    -192.0233449836776458 [Eh]
	 Singles Energy            =      -0.0000000000000000 [Eh]
	 Same-Spin Energy          =      -0.1869942324503466 [Eh]
	 Opposite-Spin Energy      =      -0.6392754048367095 [Eh]
	 Correlation Energy        =      -0.8262696372870562 [Eh]
	 Total Energy              =    -192.8496146209647009 [Eh]

	 ================> DF-SCS-MP2 Energies <==================
	-----------------------------------------------------------
	 SCS Same-Spin Scale       =       0.3333333333333333 [-]
	 SCS Opposite-Spin Scale   =       1.2000000000000000 [-]
	 SCS Same-Spin Energy      =      -0.0623314108167822 [Eh]
	 SCS Opposite-Spin Energy  =      -0.7671304858040514 [Eh]
	 SCS Correlation Energy    =      -0.8294618966208336 [Eh]
	 SCS Total Energy          =    -192.8528068802984876 [Eh]
	-----------------------------------------------------------

  Dipole Moment: [D]
     X:     1.5542      Y:     2.2046      Z:     0.0169     Total:     2.6974

*** Psi4 exiting successfully. Buy a developer a beer!
