                               Psi4 1.3.2 release

  ==> Input File <==

--------------------------------------------------------------------------
#psi4
#
memory 32 gb

molecule  {
0 1
  O       -1.3942470    -0.6912850     0.0000710
  C        0.5551450     0.7377530     0.0000990
  C        1.4188320    -0.5145600    -0.0000660
  C       -0.9211660     0.4378280    -0.0001010
  H        0.7619420     1.3719750     0.8733060
  H        0.7621780     1.3724340    -0.8727060
  H        1.2112930    -1.1257500    -0.8806530
  H        1.2110310    -1.1261570     0.8801730
  H        2.4796340    -0.2528610     0.0001440
  H       -1.5889888     1.3245476     0.1495840
units angstrom
no_reorient  #important for SAPT in psi4, default
symmetry c1  #important for SAPT in psi4, default
}

set PROPERTIES_ORIGIN ["COM"]
properties('MP2/aug-cc-pvtz', properties = ['dipole'])
--------------------------------------------------------------------------

    Molecular point group: c1
  Charge       = 0
  Multiplicity = 1
  Basis Set: AUG-CC-PVTZ
    Blend: AUG-CC-PVTZ
  Basis Set: (AUG-CC-PVTZ AUX)
    Blend: AUG-CC-PVTZ-JKFIT

    Orbital Energies [Eh]
    ---------------------

    Doubly Occupied:

       1A    -20.559541     2A    -11.336983     3A    -11.248016
       4A    -11.222765     5A     -1.384210     6A     -1.062626
       7A     -0.910522     8A     -0.772728     9A     -0.678824
      10A     -0.634450    11A     -0.625880    12A     -0.540512
      13A     -0.525425    14A     -0.519916    15A     -0.490211
      16A     -0.423735

  @DF-RHF Final Energy:  -192.02219473065244

   => Energetics <=

    Nuclear Repulsion Energy =            118.2845952296668912
    One-Electron Energy =                -494.7408897354339956
    Two-Electron Energy =                 184.4340997751146745
    Total Energy =                       -192.0221947306524442
  Basis Set: (AUG-CC-PVTZ AUX)
    Blend: AUG-CC-PVTZ-RI
    Molecular point group: c1

    Geometry (in Angstrom), charge = 0, multiplicity = 1:

       Center              X                  Y                   Z               Mass
    ------------   -----------------  -----------------  -----------------  -----------------
         O           -1.311682627540    -0.664608322199    -0.002536431806    15.994914619570
         C            0.637709372460     0.764429677801    -0.002508431806    12.000000000000
         C            1.501396372460    -0.487883322199    -0.002673431806    12.000000000000
         C           -0.838601627540     0.464504677801    -0.002708431806    12.000000000000
         H            0.844506372460     1.398651677801     0.870698568194     1.007825032230
         H            0.844742372460     1.399110677801    -0.875313431806     1.007825032230
         H            1.293857372460    -1.099073322199    -0.883260431806     1.007825032230
         H            1.293595372460    -1.099480322199     0.877565568194     1.007825032230
         H            2.562198372460    -0.226184322199    -0.002463431806     1.007825032230
         H           -1.506424427540     1.351224277801     0.146976568194     1.007825032230

  Basis Set: AUG-CC-PVTZ
    Blend: AUG-CC-PVTZ
  Basis Set: (AUG-CC-PVTZ AUX)
    Blend: AUG-CC-PVTZ-JKFIT
	 Reference Energy          =    -192.0221947306524442 [Eh]
	 Singles Energy            =      -0.0000000000000000 [Eh]
	 Same-Spin Energy          =      -0.1870587645388894 [Eh]
	 Opposite-Spin Energy      =      -0.6394371230397895 [Eh]
	 Correlation Energy        =      -0.8264958875786790 [Eh]
	 Total Energy              =    -192.8486906182311316 [Eh]

	 ================> DF-SCS-MP2 Energies <==================
	-----------------------------------------------------------
	 SCS Same-Spin Scale       =       0.3333333333333333 [-]
	 SCS Opposite-Spin Scale   =       1.2000000000000000 [-]
	 SCS Same-Spin Energy      =      -0.0623529215129631 [Eh]
	 SCS Opposite-Spin Energy  =      -0.7673245476477474 [Eh]
	 SCS Correlation Energy    =      -0.8296774691607105 [Eh]
	 SCS Total Energy          =    -192.8518721998131582 [Eh]
	-----------------------------------------------------------

  Dipole Moment: [D]
     X:     1.5642      Y:     2.1869      Z:     0.0498     Total:     2.6892

*** Psi4 exiting successfully. Buy a developer a beer!
