                               Psi4 1.3.2 release

  ==> Input File <==

--------------------------------------------------------------------------
#psi4
#
memory 32 gb

molecule  {
0 1
  O       -1.3942470    -0.6912850     0.0000710
  C        0.5551450     0.7377530     0.0000990
  C        1.4188320    -0.5145600    -0.0000660
  C       -0.9211660     0.4378280    -0.0001010
  H        0.7619420     1.3719750     0.8733060
  H        0.7621780     1.3724340    -0.8727060
  H        1.2112930    -1.1257500    -0.8806530
  H        1.2110310    -1.1261570     0.8801730
  H        2.4796340    -0.2528610     0.0001440
  H       -1.5890156     1.3245813     0.2995840
units angstrom
no_reorient  #important for SAPT in psi4, default
symmetry c1  #important for SAPT in psi4, default
}

set PROPERTIES_ORIGIN ["COM"]
properties('MP2/aug-cc-pvtz', properties = ['dipole'])
--------------------------------------------------------------------------

    Molecular point group: c1
  Charge       = 0
  Multiplicity = 1
  Basis Set: AUG-CC-PVTZ
    Blend: AUG-CC-PVTZ
  Basis Set: (AUG-CC-PVTZ AUX)
    Blend: AUG-CC-PVTZ-JKFIT

    Orbital Energies [Eh]
    ---------------------

    Doubly Occupied:

       1A    -20.561002     2A    -11.340153     3A    -11.248773
       4A    -11.223284     5A     -1.385191     6A     -1.062942
       7A     -0.909373     8A     -0.768206     9A     -0.676733
      10A     -0.634961    11A     -0.625292    12A     -0.541736
      13A     -0.526158    14A     -0.519232    15A     -0.490770
      16A     -0.421931

  @DF-RHF Final Energy:  -192.01790901213079

   => Energetics <=

    Nuclear Repulsion Energy =            118.1802158761725963
    One-Electron Energy =                -494.5247756259979042
    Two-Electron Energy =                 184.3266507376945071
    Total Energy =                       -192.0179090121307866
  Basis Set: (AUG-CC-PVTZ AUX)
    Blend: AUG-CC-PVTZ-RI
    Molecular point group: c1

    Geometry (in Angstrom), charge = 0, multiplicity = 1:

       Center              X                  Y                   Z               Mass
    ------------   -----------------  -----------------  -----------------  -----------------
         O           -1.311682162191    -0.664608907358    -0.005140995862    15.994914619570
         C            0.637709837809     0.764429092642    -0.005112995862    12.000000000000
         C            1.501396837809    -0.487883907358    -0.005277995862    12.000000000000
         C           -0.838601162191     0.464504092642    -0.005312995862    12.000000000000
         H            0.844506837809     1.398651092642     0.868094004138     1.007825032230
         H            0.844742837809     1.399110092642    -0.877917995862     1.007825032230
         H            1.293857837809    -1.099073907358    -0.885864995862     1.007825032230
         H            1.293595837809    -1.099480907358     0.874961004138     1.007825032230
         H            2.562198837809    -0.226184907358    -0.005067995862     1.007825032230
         H           -1.506450762191     1.351257392642     0.294372004138     1.007825032230

  Basis Set: AUG-CC-PVTZ
    Blend: AUG-CC-PVTZ
  Basis Set: (AUG-CC-PVTZ AUX)
    Blend: AUG-CC-PVTZ-JKFIT
	 Reference Energy          =    -192.0179090121307866 [Eh]
	 Singles Energy            =      -0.0000000000000000 [Eh]
	 Same-Spin Energy          =      -0.1872767599852105 [Eh]
	 Opposite-Spin Energy      =      -0.6400049783301551 [Eh]
	 Correlation Energy        =      -0.8272817383153656 [Eh]
	 Total Energy              =    -192.8451907504461644 [Eh]

	 ================> DF-SCS-MP2 Energies <==================
	-----------------------------------------------------------
	 SCS Same-Spin Scale       =       0.3333333333333333 [-]
	 SCS Opposite-Spin Scale   =       1.2000000000000000 [-]
	 SCS Same-Spin Energy      =      -0.0624255866617368 [Eh]
	 SCS Opposite-Spin Energy  =      -0.7680059739961861 [Eh]
	 SCS Correlation Energy    =      -0.8304315606579229 [Eh]
	 SCS Total Energy          =    -192.8483405727887146 [Eh]
	-----------------------------------------------------------

  Dipole Moment: [D]
     X:     1.5985      Y:     2.1271      Z:     0.0917     Total:     2.6624

*** Psi4 exiting successfully. Buy a developer a beer!
