                               Psi4 1.3.2 release

  ==> Input File <==

--------------------------------------------------------------------------
#psi4
#
memory 32 gb

molecule  {
0 1
  O       -1.3942470    -0.6912850     0.0000710
  C        0.5551450     0.7377530     0.0000990
  C        1.4188320    -0.5145600    -0.0000660
  C       -0.9211660     0.4378280    -0.0001010
  H        0.7619420     1.3719750     0.8733060
  H        0.7621780     1.3724340    -0.8727060
  H        1.2112930    -1.1257500    -0.8806530
  H        1.2110310    -1.1261570     0.8801730
  H        2.4796340    -0.2528610     0.0001440
  H       -1.5889620     1.3245140    -0.0004160
units angstrom
no_reorient  #important for SAPT in psi4, default
symmetry c1  #important for SAPT in psi4, default
}

set PROPERTIES_ORIGIN ["COM"]
properties('MP2/aug-cc-pvtz', properties = ['dipole'])
--------------------------------------------------------------------------

    Molecular point group: c1
  Charge       = 0
  Multiplicity = 1
  Basis Set: AUG-CC-PVTZ
    Blend: AUG-CC-PVTZ
  Basis Set: (AUG-CC-PVTZ AUX)
    Blend: AUG-CC-PVTZ-JKFIT

    Orbital Energies [Eh]
    ---------------------

    Doubly Occupied:

       1A    -20.559057     2A    -11.335904     3A    -11.247769
       4A    -11.222595     5A     -1.383887     6A     -1.062531
       7A     -0.910976     8A     -0.774397     9A     -0.679514
      10A     -0.634286    11A     -0.626066    12A     -0.540081
      13A     -0.525145    14A     -0.520216    15A     -0.490031
      16A     -0.424319

  @DF-RHF Final Energy:  -192.02348416461314

   => Energetics <=

    Nuclear Repulsion Energy =            118.3208636497854087
    One-Electron Energy =                -494.8151485775053402
    Two-Electron Energy =                 184.4708007631068085
    Total Energy =                       -192.0234841646131372
  Basis Set: (AUG-CC-PVTZ AUX)
    Blend: AUG-CC-PVTZ-RI
    Molecular point group: c1

    Geometry (in Angstrom), charge = 0, multiplicity = 1:

       Center              X                  Y                   Z               Mass
    ------------   -----------------  -----------------  -----------------  -----------------
         O           -1.311683092889    -0.664607738777     0.000068132250    15.994914619570
         C            0.637708907111     0.764430261223     0.000096132250    12.000000000000
         C            1.501395907111    -0.487882738777    -0.000068867750    12.000000000000
         C           -0.838602092889     0.464505261223    -0.000103867750    12.000000000000
         H            0.844505907111     1.398652261223     0.873303132250     1.007825032230
         H            0.844741907111     1.399111261223    -0.872708867750     1.007825032230
         H            1.293856907111    -1.099072738777    -0.880655867750     1.007825032230
         H            1.293594907111    -1.099479738777     0.880170132250     1.007825032230
         H            2.562197907111    -0.226183738777     0.000141132250     1.007825032230
         H           -1.506398092889     1.351191261223    -0.000418867750     1.007825032230

  Basis Set: AUG-CC-PVTZ
    Blend: AUG-CC-PVTZ
  Basis Set: (AUG-CC-PVTZ AUX)
    Blend: AUG-CC-PVTZ-JKFIT
	 Reference Energy          =    -192.0234841646131372 [Eh]
	 Singles Energy            =      -0.0000000000000000 [Eh]
	 Same-Spin Energy          =      -0.1869861774614526 [Eh]
	 Opposite-Spin Energy      =      -0.6392554697925316 [Eh]
	 Correlation Energy        =      -0.8262416472539842 [Eh]
	 Total Energy              =    -192.8497258118671311 [Eh]

	 ================> DF-SCS-MP2 Energies <==================
	-----------------------------------------------------------
	 SCS Same-Spin Scale       =       0.3333333333333333 [-]
	 SCS Opposite-Spin Scale   =       1.2000000000000000 [-]
	 SCS Same-Spin Energy      =      -0.0623287258204842 [Eh]
	 SCS Opposite-Spin Energy  =      -0.7671065637510378 [Eh]
	 SCS Correlation Energy    =      -0.8294352895715220 [Eh]
	 SCS Total Energy          =    -192.8529194541846721 [Eh]
	-----------------------------------------------------------

  Dipole Moment: [D]
     X:     1.5530      Y:     2.2068      Z:    -0.0002     Total:     2.6985

*** Psi4 exiting successfully. Buy a developer a beer!
