                               Psi4 1.3.2 release

  ==> Input File <==

--------------------------------------------------------------------------
#psi4
#
memory 32 gb

molecule  {
0 1
  O       -1.3942470    -0.6912850     0.0000710
  C        0.5551450     0.7377530     0.0000990
  C        1.4188320    -0.5145600    -0.0000660
  C       -0.9211660     0.4378280    -0.0001010
  H        0.7619420     1.3719750     0.8733060
  H        0.7621780     1.3724340    -0.8727060
  H        1.2112930    -1.1257500    -0.8806530
  H        1.2110310    -1.1261570     0.8801730
  H        2.4796340    -0.2528610     0.0001440
  H       -1.5889799     1.3245364     0.0995840
units angstrom
no_reorient  #important for SAPT in psi4, default
symmetry c1  #important for SAPT in psi4, default
}

set PROPERTIES_ORIGIN ["COM"]
properties('MP2/aug-cc-pvtz', properties = ['dipole'])
--------------------------------------------------------------------------

    Molecular point group: c1
  Charge       = 0
  Multiplicity = 1
  Basis Set: AUG-CC-PVTZ
    Blend: AUG-CC-PVTZ
  Basis Set: (AUG-CC-PVTZ AUX)
    Blend: AUG-CC-PVTZ-JKFIT

    Orbital Energies [Eh]
    ---------------------

    Doubly Occupied:

       1A    -20.559272     2A    -11.336385     3A    -11.247878
       4A    -11.222670     5A     -1.384030     6A     -1.062573
       7A     -0.910770     8A     -0.773645     9A     -0.679208
      10A     -0.634359    11A     -0.625984    12A     -0.540274
      13A     -0.525272    14A     -0.520077    15A     -0.490110
      16A     -0.424061

  @DF-RHF Final Energy:  -192.02292093441454

   => Energetics <=

    Nuclear Repulsion Energy =            118.3046470535904433
    One-Electron Energy =                -494.7819987917237654
    Two-Electron Energy =                 184.4544308037187932
    Total Energy =                       -192.0229209344145431
  Basis Set: (AUG-CC-PVTZ AUX)
    Blend: AUG-CC-PVTZ-RI
    Molecular point group: c1

    Geometry (in Angstrom), charge = 0, multiplicity = 1:

       Center              X                  Y                   Z               Mass
    ------------   -----------------  -----------------  -----------------  -----------------
         O           -1.311682782077    -0.664608127725    -0.001668243787    15.994914619570
         C            0.637709217923     0.764429872275    -0.001640243787    12.000000000000
         C            1.501396217923    -0.487883127725    -0.001805243787    12.000000000000
         C           -0.838601782077     0.464504872275    -0.001840243787    12.000000000000
         H            0.844506217923     1.398651872275     0.871566756213     1.007825032230
         H            0.844742217923     1.399110872275    -0.874445243787     1.007825032230
         H            1.293857217923    -1.099073127725    -0.882392243787     1.007825032230
         H            1.293595217923    -1.099480127725     0.878433756213     1.007825032230
         H            2.562198217923    -0.226184127725    -0.001595243787     1.007825032230
         H           -1.506415682077     1.351213272275     0.097844756213     1.007825032230

  Basis Set: AUG-CC-PVTZ
    Blend: AUG-CC-PVTZ
  Basis Set: (AUG-CC-PVTZ AUX)
    Blend: AUG-CC-PVTZ-JKFIT
	 Reference Energy          =    -192.0229209344145431 [Eh]
	 Singles Energy            =      -0.0000000000000000 [Eh]
	 Same-Spin Energy          =      -0.1870184212771664 [Eh]
	 Opposite-Spin Energy      =      -0.6393356035625173 [Eh]
	 Correlation Energy        =      -0.8263540248396837 [Eh]
	 Total Energy              =    -192.8492749592542168 [Eh]

	 ================> DF-SCS-MP2 Energies <==================
	-----------------------------------------------------------
	 SCS Same-Spin Scale       =       0.3333333333333333 [-]
	 SCS Opposite-Spin Scale   =       1.2000000000000000 [-]
	 SCS Same-Spin Energy      =      -0.0623394737590555 [Eh]
	 SCS Opposite-Spin Energy  =      -0.7672027242750207 [Eh]
	 SCS Correlation Energy    =      -0.8295421980340761 [Eh]
	 SCS Total Energy          =    -192.8524631324486052 [Eh]
	-----------------------------------------------------------

  Dipole Moment: [D]
     X:     1.5579      Y:     2.1980      Z:     0.0336     Total:     2.6943

*** Psi4 exiting successfully. Buy a developer a beer!
