                               Psi4 1.4a3.dev225

  ==> Input File <==

--------------------------------------------------------------------------
#psi4
#
memory 32 gb

molecule  {
0 1
  O        1.8881650     1.4432750    -0.0000100
  O       -3.1767040     0.9881070     0.0000170
  C       -0.5155700     0.0356770    -0.0000120
  C        0.8315198    -0.7151198     0.0000184
  C       -1.6970590    -0.9239890    -0.0000140
  C        2.0167370     0.2220750     0.0000010
  C        3.3799790    -0.4356510     0.0000020
  C       -3.0337740    -0.2274000    -0.0000030
  H       -0.5729570     0.6949060     0.8703990
  H       -0.5729310     0.6948780    -0.8704450
  H        0.8958950    -1.3682810    -0.8735520
  H        0.8958840    -1.3682250     0.8736320
  H       -1.6727150    -1.5924060     0.8735570
  H       -1.6727210    -1.5923950    -0.8735930
  H        3.4942430    -1.0743930    -0.8818600
  H        3.4942540    -1.0743610     0.8818860
  H        4.1535670     0.3330070    -0.0000160
  H       -3.9203830    -0.8957560    -0.0000150
units angstrom
no_reorient  #important for SAPT in psi4, default
symmetry c1  #important for SAPT in psi4, default
}

set PROPERTIES_ORIGIN ["COM"]
properties('MP2/aug-cc-pvtz', properties = ['dipole'])
--------------------------------------------------------------------------

    Molecular point group: c1
  Charge       = 0
  Multiplicity = 1
  Basis Set: AUG-CC-PVTZ
    Blend: AUG-CC-PVTZ
  Basis Set: (AUG-CC-PVTZ AUX)
    Blend: AUG-CC-PVTZ-JKFIT

    Orbital Energies [Eh]
    ---------------------

    Doubly Occupied:

       1A    -20.560480     2A    -20.549250     3A    -11.337974
       4A    -11.336918     5A    -11.250667     6A    -11.247264
       7A    -11.239762     8A    -11.231908     9A     -1.385260
      10A     -1.379649    11A     -1.096495    12A     -1.036827
      13A     -0.982076    14A     -0.873606    15A     -0.776668
      16A     -0.742980    17A     -0.675531    18A     -0.665692
      19A     -0.657386    20A     -0.625092    21A     -0.615566
      22A     -0.612115    23A     -0.571366    24A     -0.563499
      25A     -0.516412    26A     -0.508814    27A     -0.504737
      28A     -0.488199    29A     -0.486199    30A     -0.430959
      31A     -0.413150

  @DF-RHF Final Energy:  -382.89116898774404

   => Energetics <=

    Nuclear Repulsion Energy =            353.1428781328790478
    One-Electron Energy =               -1221.3430865538969101
    Two-Electron Energy =                 485.3090394332737674
    Total Energy =                       -382.8911689877440381
  Basis Set: (AUG-CC-PVTZ AUX)
    Blend: AUG-CC-PVTZ-RI
    Molecular point group: c1

    Geometry (in Angstrom), charge = 0, multiplicity = 1:

       Center              X                  Y                   Z               Mass
    ------------   -----------------  -----------------  -----------------  -----------------
         O            1.925603658084     1.381407113622    -0.000010120188    15.994914619570
         O           -3.139265341916     0.926239113622     0.000016879812    15.994914619570
         C           -0.478131341916    -0.026190886378    -0.000012120188    12.000000000000
         C            0.868958458084    -0.776987686378     0.000018279812    12.000000000000
         C           -1.659620341916    -0.985856886378    -0.000014120188    12.000000000000
         C            2.054175658084     0.160207113622     0.000000879812    12.000000000000
         C            3.417417658084    -0.497518886378     0.000001879812    12.000000000000
         C           -2.996335341916    -0.289267886378    -0.000003120188    12.000000000000
         H           -0.535518341916     0.633038113622     0.870398879812     1.007825032230
         H           -0.535492341916     0.633010113622    -0.870445120188     1.007825032230
         H            0.933333658084    -1.430148886378    -0.873552120188     1.007825032230
         H            0.933322658084    -1.430092886378     0.873631879812     1.007825032230
         H           -1.635276341916    -1.654273886378     0.873556879812     1.007825032230
         H           -1.635282341916    -1.654262886378    -0.873593120188     1.007825032230
         H            3.531681658084    -1.136260886378    -0.881860120188     1.007825032230
         H            3.531692658084    -1.136228886378     0.881885879812     1.007825032230
         H            4.191005658084     0.271139113622    -0.000016120188     1.007825032230
         H           -3.882944341916    -0.957623886378    -0.000015120188     1.007825032230

  Basis Set: AUG-CC-PVTZ
    Blend: AUG-CC-PVTZ
  Basis Set: (AUG-CC-PVTZ AUX)
    Blend: AUG-CC-PVTZ-JKFIT
	 Reference Energy          =    -382.8911689877440381 [Eh]
	 Singles Energy            =      -0.0000000000000000 [Eh]
	 Same-Spin Energy          =      -0.3793945372726047 [Eh]
	 Opposite-Spin Energy      =      -1.2546330357759492 [Eh]
	 Correlation Energy        =      -1.6340275730485538 [Eh]
	 Total Energy              =    -384.5251965607926081 [Eh]

	 ================> DF-SCS-MP2 Energies <==================
	-----------------------------------------------------------
	 SCS Same-Spin Scale       =       0.3333333333333333 [-]
	 SCS Opposite-Spin Scale   =       1.2000000000000000 [-]
	 SCS Same-Spin Energy      =      -0.1264648457575349 [Eh]
	 SCS Opposite-Spin Energy  =      -1.5055596429311391 [Eh]
	 SCS Correlation Energy    =      -1.6320244886886739 [Eh]
	 SCS Total Energy          =    -384.5231934764327093 [Eh]
	-----------------------------------------------------------

  Dipole Moment: [D]
     X:     1.1297      Y:    -5.1598      Z:    -0.0000     Total:     5.2820

*** Psi4 exiting successfully. Buy a developer a beer!
