                               Psi4 1.4a3.dev225

  ==> Input File <==

--------------------------------------------------------------------------
#psi4
#
memory 32 gb

molecule  {
0 1
  O        1.8881650     1.4432750    -0.0000100
  O       -3.1767040     0.9881070     0.0000170
  C       -0.5155700     0.0356770    -0.0000120
  C        0.8140500    -0.7053830     0.0000180
  C       -1.6970590    -0.9239890    -0.0000140
  C        2.0167370     0.2220750     0.0000010
  C        3.3799790    -0.4356510     0.0000020
  C       -3.0337740    -0.2274000    -0.0000030
  H       -0.5729570     0.6949060     0.8703990
  H       -0.5729310     0.6948780    -0.8704450
  H        0.8958950    -1.3682810    -0.8735520
  H        0.8958840    -1.3682250     0.8736320
  H       -1.6727150    -1.5924060     0.8735570
  H       -1.6727210    -1.5923950    -0.8735930
  H        3.4942430    -1.0743930    -0.8818600
  H        3.4942540    -1.0743610     0.8818860
  H        4.1535670     0.3330070    -0.0000160
  H       -4.0002358    -0.9559518    -0.0000161
units angstrom
no_reorient  #important for SAPT in psi4, default
symmetry c1  #important for SAPT in psi4, default
}

set PROPERTIES_ORIGIN ["COM"]
properties('MP2/aug-cc-pvtz', properties = ['dipole'])
--------------------------------------------------------------------------

    Molecular point group: c1
  Charge       = 0
  Multiplicity = 1
  Basis Set: AUG-CC-PVTZ
    Blend: AUG-CC-PVTZ
  Basis Set: (AUG-CC-PVTZ AUX)
    Blend: AUG-CC-PVTZ-JKFIT

    Orbital Energies [Eh]
    ---------------------

    Doubly Occupied:

       1A    -20.563627     2A    -20.549382     3A    -11.349432
       4A    -11.337717     5A    -11.253123     6A    -11.248809
       7A    -11.240863     8A    -11.232142     9A     -1.387392
      10A     -1.380014    11A     -1.099256    12A     -1.036173
      13A     -0.982934    14A     -0.869374    15A     -0.766036
      16A     -0.741387    17A     -0.668955    18A     -0.666618
      19A     -0.657732    20A     -0.624061    21A     -0.615627
      22A     -0.612531    23A     -0.571690    24A     -0.563605
      25A     -0.519683    26A     -0.509890    27A     -0.507918
      28A     -0.489471    29A     -0.485440    30A     -0.428501
      31A     -0.411720

  @DF-RHF Final Energy:  -382.88460264064628

   => Energetics <=

    Nuclear Repulsion Energy =            352.8296970741301379
    One-Electron Energy =               -1220.6863945178765789
    Two-Electron Energy =                 484.9720948031002195
    Total Energy =                       -382.8846026406462784
  Basis Set: (AUG-CC-PVTZ AUX)
    Blend: AUG-CC-PVTZ-RI
    Molecular point group: c1

    Geometry (in Angstrom), charge = 0, multiplicity = 1:

       Center              X                  Y                   Z               Mass
    ------------   -----------------  -----------------  -----------------  -----------------
         O            1.928147009843     1.380914646613    -0.000010068389    15.994914619570
         O           -3.136721990157     0.925746646613     0.000016931611    15.994914619570
         C           -0.475587990157    -0.026683353387    -0.000012068389    12.000000000000
         C            0.854032009843    -0.767743353387     0.000017931611    12.000000000000
         C           -1.657076990157    -0.986349353387    -0.000014068389    12.000000000000
         C            2.056719009843     0.159714646613     0.000000931611    12.000000000000
         C            3.419961009843    -0.498011353387     0.000001931611    12.000000000000
         C           -2.993791990157    -0.289760353387    -0.000003068389    12.000000000000
         H           -0.532974990157     0.632545646613     0.870398931611     1.007825032230
         H           -0.532948990157     0.632517646613    -0.870445068389     1.007825032230
         H            0.935877009843    -1.430641353387    -0.873552068389     1.007825032230
         H            0.935866009843    -1.430585353387     0.873631931611     1.007825032230
         H           -1.632732990157    -1.654766353387     0.873556931611     1.007825032230
         H           -1.632738990157    -1.654755353387    -0.873593068389     1.007825032230
         H            3.534225009843    -1.136753353387    -0.881860068389     1.007825032230
         H            3.534236009843    -1.136721353387     0.881885931611     1.007825032230
         H            4.193549009843     0.270646646613    -0.000016068389     1.007825032230
         H           -3.960253790157    -1.018312153387    -0.000016168389     1.007825032230

  Basis Set: AUG-CC-PVTZ
    Blend: AUG-CC-PVTZ
  Basis Set: (AUG-CC-PVTZ AUX)
    Blend: AUG-CC-PVTZ-JKFIT
	 Reference Energy          =    -382.8846026406462784 [Eh]
	 Singles Energy            =      -0.0000000000000000 [Eh]
	 Same-Spin Energy          =      -0.3798832359647422 [Eh]
	 Opposite-Spin Energy      =      -1.2557167348106708 [Eh]
	 Correlation Energy        =      -1.6355999707754130 [Eh]
	 Total Energy              =    -384.5202026114216665 [Eh]

	 ================> DF-SCS-MP2 Energies <==================
	-----------------------------------------------------------
	 SCS Same-Spin Scale       =       0.3333333333333333 [-]
	 SCS Opposite-Spin Scale   =       1.2000000000000000 [-]
	 SCS Same-Spin Energy      =      -0.1266277453215807 [Eh]
	 SCS Opposite-Spin Energy  =      -1.5068600817728048 [Eh]
	 SCS Correlation Energy    =      -1.6334878270943856 [Eh]
	 SCS Total Energy          =    -384.5180904677406488 [Eh]
	-----------------------------------------------------------

  Dipole Moment: [D]
     X:     1.2765      Y:    -5.0571      Z:    -0.0000     Total:     5.2157

*** Psi4 exiting successfully. Buy a developer a beer!
