                               Psi4 1.4a3.dev225

  ==> Input File <==

--------------------------------------------------------------------------
#psi4
#
memory 32 gb

molecule  {
0 1
  O        1.8881650     1.4432750    -0.0000100
  O       -3.1767040     0.9881070     0.0000170
  C       -0.5155700     0.0356770    -0.0000120
  C        0.8140500    -0.7053830     0.0000180
  C       -1.6371536    -0.9845161     0.1346411
  C        2.0167370     0.2220750     0.0000010
  C        3.3799790    -0.4356510     0.0000020
  C       -3.0337740    -0.2274000    -0.0000030
  H       -0.5729570     0.6949060     0.8703990
  H       -0.5729310     0.6948780    -0.8704450
  H        0.8958950    -1.3682810    -0.8735520
  H        0.8958840    -1.3682250     0.8736320
  H       -1.6727150    -1.5924060     0.8735570
  H       -1.6727210    -1.5923950    -0.8735930
  H        3.4942430    -1.0743930    -0.8818600
  H        3.4942540    -1.0743610     0.8818860
  H        4.1535670     0.3330070    -0.0000160
  H       -3.9203830    -0.8957560    -0.0000150
units angstrom
no_reorient  #important for SAPT in psi4, default
symmetry c1  #important for SAPT in psi4, default
}

set PROPERTIES_ORIGIN ["COM"]
properties('MP2/aug-cc-pvtz', properties = ['dipole'])
--------------------------------------------------------------------------

    Molecular point group: c1
  Charge       = 0
  Multiplicity = 1
  Basis Set: AUG-CC-PVTZ
    Blend: AUG-CC-PVTZ
  Basis Set: (AUG-CC-PVTZ AUX)
    Blend: AUG-CC-PVTZ-JKFIT

    Orbital Energies [Eh]
    ---------------------

    Doubly Occupied:

       1A    -20.563012     2A    -20.548277     3A    -11.342092
       4A    -11.335866     5A    -11.250931     6A    -11.246339
       7A    -11.239662     8A    -11.232246     9A     -1.385005
      10A     -1.378891    11A     -1.098258    12A     -1.032901
      13A     -0.978617    14A     -0.868571    15A     -0.788914
      16A     -0.740991    17A     -0.676691    18A     -0.662466
      19A     -0.657249    20A     -0.627652    21A     -0.618064
      22A     -0.601025    23A     -0.578093    24A     -0.560303
      25A     -0.526739    26A     -0.513523    27A     -0.507045
      28A     -0.486181    29A     -0.479387    30A     -0.426143
      31A     -0.404959

  @DF-RHF Final Energy:  -382.86232259394905

   => Energetics <=

    Nuclear Repulsion Energy =            352.7214636036071056
    One-Electron Energy =               -1220.4553848186324103
    Two-Electron Energy =                 484.8715986210762026
    Total Energy =                       -382.8623225939490453
  Basis Set: (AUG-CC-PVTZ AUX)
    Blend: AUG-CC-PVTZ-RI
    Molecular point group: c1

    Geometry (in Angstrom), charge = 0, multiplicity = 1:

       Center              X                  Y                   Z               Mass
    ------------   -----------------  -----------------  -----------------  -----------------
         O            1.921139418816     1.386750270115    -0.014175839522    15.994914619570
         O           -3.143729581184     0.931582270115    -0.014148839522    15.994914619570
         C           -0.482595581184    -0.020847729885    -0.014177839522    12.000000000000
         C            0.847024418816    -0.761907729885    -0.014147839522    12.000000000000
         C           -1.604179181184    -1.041040829885     0.120475260478    12.000000000000
         C            2.049711418816     0.165550270115    -0.014164839522    12.000000000000
         C            3.412953418816    -0.492175729885    -0.014163839522    12.000000000000
         C           -3.000799581184    -0.283924729885    -0.014168839522    12.000000000000
         H           -0.539982581184     0.638381270115     0.856233160478     1.007825032230
         H           -0.539956581184     0.638353270115    -0.884610839522     1.007825032230
         H            0.928869418816    -1.424805729885    -0.887717839522     1.007825032230
         H            0.928858418816    -1.424749729885     0.859466160478     1.007825032230
         H           -1.639740581184    -1.648930729885     0.859391160478     1.007825032230
         H           -1.639746581184    -1.648919729885    -0.887758839522     1.007825032230
         H            3.527217418816    -1.130917729885    -0.896025839522     1.007825032230
         H            3.527228418816    -1.130885729885     0.867720160478     1.007825032230
         H            4.186541418816     0.276482270115    -0.014181839522     1.007825032230
         H           -3.887408581184    -0.952280729885    -0.014180839522     1.007825032230

  Basis Set: AUG-CC-PVTZ
    Blend: AUG-CC-PVTZ
  Basis Set: (AUG-CC-PVTZ AUX)
    Blend: AUG-CC-PVTZ-JKFIT
	 Reference Energy          =    -382.8623225939490453 [Eh]
	 Singles Energy            =      -0.0000000000000000 [Eh]
	 Same-Spin Energy          =      -0.3796404153326132 [Eh]
	 Opposite-Spin Energy      =      -1.2559332544155366 [Eh]
	 Correlation Energy        =      -1.6355736697481498 [Eh]
	 Total Energy              =    -384.4978962636972142 [Eh]

	 ================> DF-SCS-MP2 Energies <==================
	-----------------------------------------------------------
	 SCS Same-Spin Scale       =       0.3333333333333333 [-]
	 SCS Opposite-Spin Scale   =       1.2000000000000000 [-]
	 SCS Same-Spin Energy      =      -0.1265468051108710 [Eh]
	 SCS Opposite-Spin Energy  =      -1.5071199052986439 [Eh]
	 SCS Correlation Energy    =      -1.6336667104095151 [Eh]
	 SCS Total Energy          =    -384.4959893043585453 [Eh]
	-----------------------------------------------------------

  Dipole Moment: [D]
     X:     1.0087      Y:    -5.0602      Z:     0.0989     Total:     5.1607

*** Psi4 exiting successfully. Buy a developer a beer!
