                               Psi4 1.4a3.dev225

  ==> Input File <==

--------------------------------------------------------------------------
#psi4
#
memory 32 gb

molecule  {
0 1
  O        1.8881650     1.4432750    -0.0000100
  O       -3.1767040     0.9881070     0.0000170
  C       -0.5155700     0.0356770    -0.0000120
  C        0.8140500    -0.7053830     0.0000180
  C       -1.6970590    -0.9239890    -0.0000140
  C        2.0167370     0.2220750     0.0000010
  C        3.3799790    -0.4356510     0.0000020
  C       -3.0337740    -0.2274000    -0.0000030
  H       -0.5729570     0.6949060     0.8703990
  H       -0.5729310     0.6948780    -0.8704450
  H        0.8958950    -1.3682810    -0.8735520
  H        0.8958840    -1.3682250     0.8736320
  H       -1.6727150    -1.5924060     0.8735570
  H       -1.6727210    -1.5923950    -0.8735930
  H        3.5046794    -1.1327328    -0.9624053
  H        3.4942540    -1.0743610     0.8818860
  H        4.1535670     0.3330070    -0.0000160
  H       -3.9203830    -0.8957560    -0.0000150
units angstrom
no_reorient  #important for SAPT in psi4, default
symmetry c1  #important for SAPT in psi4, default
}

set PROPERTIES_ORIGIN ["COM"]
properties('MP2/aug-cc-pvtz', properties = ['dipole'])
--------------------------------------------------------------------------

    Molecular point group: c1
  Charge       = 0
  Multiplicity = 1
  Basis Set: AUG-CC-PVTZ
    Blend: AUG-CC-PVTZ
  Basis Set: (AUG-CC-PVTZ AUX)
    Blend: AUG-CC-PVTZ-JKFIT

    Orbital Energies [Eh]
    ---------------------

    Doubly Occupied:

       1A    -20.560538     2A    -20.549720     3A    -11.338093
       4A    -11.338029     5A    -11.251985     6A    -11.250793
       7A    -11.247921     8A    -11.230995     9A     -1.385324
      10A     -1.380245    11A     -1.098108    12A     -1.032883
      13A     -0.979686    14A     -0.872221    15A     -0.777087
      16A     -0.740818    17A     -0.675804    18A     -0.665309
      19A     -0.655694    20A     -0.625347    21A     -0.612421
      22A     -0.609710    23A     -0.567902    24A     -0.556550
      25A     -0.518816    26A     -0.507123    27A     -0.506898
      28A     -0.487254    29A     -0.484487    30A     -0.431169
      31A     -0.413045

  @DF-RHF Final Energy:  -382.88496369786816

   => Energetics <=

    Nuclear Repulsion Energy =            352.8887480947001904
    One-Electron Energy =               -1220.8434727879773618
    Two-Electron Energy =                 485.0697609954090126
    Total Energy =                       -382.8849636978681588
  Basis Set: (AUG-CC-PVTZ AUX)
    Blend: AUG-CC-PVTZ-RI
    Molecular point group: c1

    Geometry (in Angstrom), charge = 0, multiplicity = 1:

       Center              X                  Y                   Z               Mass
    ------------   -----------------  -----------------  -----------------  -----------------
         O            1.927349278205     1.380898248307     0.000701563307    15.994914619570
         O           -3.137519721795     0.925730248307     0.000728563307    15.994914619570
         C           -0.476385721795    -0.026699751693     0.000699563307    12.000000000000
         C            0.853234278205    -0.767759751693     0.000729563307    12.000000000000
         C           -1.657874721795    -0.986365751693     0.000697563307    12.000000000000
         C            2.055921278205     0.159698248307     0.000712563307    12.000000000000
         C            3.419163278205    -0.498027751693     0.000713563307    12.000000000000
         C           -2.994589721795    -0.289776751693     0.000708563307    12.000000000000
         H           -0.533772721795     0.632529248307     0.871110563307     1.007825032230
         H           -0.533746721795     0.632501248307    -0.869733436693     1.007825032230
         H            0.935079278205    -1.430657751693    -0.872840436693     1.007825032230
         H            0.935068278205    -1.430601751693     0.874343563307     1.007825032230
         H           -1.633530721795    -1.654782751693     0.874268563307     1.007825032230
         H           -1.633536721795    -1.654771751693    -0.872881436693     1.007825032230
         H            3.543863678205    -1.195109551693    -0.961693736693     1.007825032230
         H            3.533438278205    -1.136737751693     0.882597563307     1.007825032230
         H            4.192751278205     0.270630248307     0.000695563307     1.007825032230
         H           -3.881198721795    -0.958132751693     0.000696563307     1.007825032230

  Basis Set: AUG-CC-PVTZ
    Blend: AUG-CC-PVTZ
  Basis Set: (AUG-CC-PVTZ AUX)
    Blend: AUG-CC-PVTZ-JKFIT
	 Reference Energy          =    -382.8849636978681588 [Eh]
	 Singles Energy            =      -0.0000000000000000 [Eh]
	 Same-Spin Energy          =      -0.3794609660962683 [Eh]
	 Opposite-Spin Energy      =      -1.2553465829757979 [Eh]
	 Correlation Energy        =      -1.6348075490720664 [Eh]
	 Total Energy              =    -384.5197712469402518 [Eh]

	 ================> DF-SCS-MP2 Energies <==================
	-----------------------------------------------------------
	 SCS Same-Spin Scale       =       0.3333333333333333 [-]
	 SCS Opposite-Spin Scale   =       1.2000000000000000 [-]
	 SCS Same-Spin Energy      =      -0.1264869886987561 [Eh]
	 SCS Opposite-Spin Energy  =      -1.5064158995709576 [Eh]
	 SCS Correlation Energy    =      -1.6329028882697136 [Eh]
	 SCS Total Energy          =    -384.5178665861378704 [Eh]
	-----------------------------------------------------------

  Dipole Moment: [D]
     X:     1.1321      Y:    -5.1283      Z:     0.0252     Total:     5.2519

*** Psi4 exiting successfully. Buy a developer a beer!
