                               Psi4 1.4a3.dev225

  ==> Input File <==

--------------------------------------------------------------------------
#psi4
#
memory 32 gb

molecule  {
0 1
  O        1.8881650     1.4432750    -0.0000100
  O       -3.1767040     0.9881070     0.0000170
  C       -0.5155700     0.0356770    -0.0000120
  C        0.8140500    -0.7053830     0.0000180
  C       -1.6970590    -0.9239890    -0.0000140
  C        2.0167370     0.2220750     0.0000010
  C        3.3799790    -0.4356510     0.0000020
  C       -3.0337740    -0.2274000    -0.0000030
  H       -0.5729570     0.6949060     0.8703990
  H       -0.5729310     0.6948780    -0.8704450
  H        0.8958950    -1.3682810    -0.8735520
  H        0.8958840    -1.3682250     0.8736320
  H       -1.6727150    -1.5924060     0.8735570
  H       -1.6727210    -1.5923950    -0.8735930
  H        3.4963303    -1.0860610    -0.8979691
  H        3.4942540    -1.0743610     0.8818860
  H        4.1535670     0.3330070    -0.0000160
  H       -3.9203830    -0.8957560    -0.0000150
units angstrom
no_reorient  #important for SAPT in psi4, default
symmetry c1  #important for SAPT in psi4, default
}

set PROPERTIES_ORIGIN ["COM"]
properties('MP2/aug-cc-pvtz', properties = ['dipole'])
--------------------------------------------------------------------------

    Molecular point group: c1
  Charge       = 0
  Multiplicity = 1
  Basis Set: AUG-CC-PVTZ
    Blend: AUG-CC-PVTZ
  Basis Set: (AUG-CC-PVTZ AUX)
    Blend: AUG-CC-PVTZ-JKFIT

    Orbital Energies [Eh]
    ---------------------

    Doubly Occupied:

       1A    -20.560523     2A    -20.548959     3A    -11.338013
       4A    -11.337263     5A    -11.250780     6A    -11.247944
       7A    -11.242780     8A    -11.230977     9A     -1.385307
      10A     -1.379569    11A     -1.098188    12A     -1.035012
      13A     -0.982360    14A     -0.872920    15A     -0.777133
      16A     -0.741695    17A     -0.675848    18A     -0.665521
      19A     -0.656745    20A     -0.625108    21A     -0.613798
      22A     -0.611590    23A     -0.569668    24A     -0.562912
      25A     -0.519002    26A     -0.507876    27A     -0.507082
      28A     -0.488133    29A     -0.484622    30A     -0.431045
      31A     -0.412603

  @DF-RHF Final Energy:  -382.89094282931791

   => Energetics <=

    Nuclear Repulsion Energy =            353.1975011855986963
    One-Electron Energy =               -1221.4549357258463260
    Two-Electron Energy =                 485.3664917109297789
    Total Energy =                       -382.8909428293179076
  Basis Set: (AUG-CC-PVTZ AUX)
    Blend: AUG-CC-PVTZ-RI
    Molecular point group: c1

    Geometry (in Angstrom), charge = 0, multiplicity = 1:

       Center              X                  Y                   Z               Mass
    ------------   -----------------  -----------------  -----------------  -----------------
         O            1.927423044959     1.380485889227     0.000132250528    15.994914619570
         O           -3.137445955041     0.925317889227     0.000159250528    15.994914619570
         C           -0.476311955041    -0.027112110773     0.000130250528    12.000000000000
         C            0.853308044959    -0.768172110773     0.000160250528    12.000000000000
         C           -1.657800955041    -0.986778110773     0.000128250528    12.000000000000
         C            2.055995044959     0.159285889227     0.000143250528    12.000000000000
         C            3.419237044959    -0.498440110773     0.000144250528    12.000000000000
         C           -2.994515955041    -0.290189110773     0.000139250528    12.000000000000
         H           -0.533698955041     0.632116889227     0.870541250528     1.007825032230
         H           -0.533672955041     0.632088889227    -0.870302749472     1.007825032230
         H            0.935153044959    -1.431070110773    -0.873409749472     1.007825032230
         H            0.935142044959    -1.431014110773     0.873774250528     1.007825032230
         H           -1.633456955041    -1.655195110773     0.873699250528     1.007825032230
         H           -1.633462955041    -1.655184110773    -0.873450749472     1.007825032230
         H            3.535588344959    -1.148850110773    -0.897826849472     1.007825032230
         H            3.533512044959    -1.137150110773     0.882028250528     1.007825032230
         H            4.192825044959     0.270217889227     0.000126250528     1.007825032230
         H           -3.881124955041    -0.958545110773     0.000127250528     1.007825032230

  Basis Set: AUG-CC-PVTZ
    Blend: AUG-CC-PVTZ
  Basis Set: (AUG-CC-PVTZ AUX)
    Blend: AUG-CC-PVTZ-JKFIT
	 Reference Energy          =    -382.8909428293179076 [Eh]
	 Singles Energy            =      -0.0000000000000000 [Eh]
	 Same-Spin Energy          =      -0.3794694370092258 [Eh]
	 Opposite-Spin Energy      =      -1.2547871515263627 [Eh]
	 Correlation Energy        =      -1.6342565885355884 [Eh]
	 Total Energy              =    -384.5251994178535142 [Eh]

	 ================> DF-SCS-MP2 Energies <==================
	-----------------------------------------------------------
	 SCS Same-Spin Scale       =       0.3333333333333333 [-]
	 SCS Opposite-Spin Scale   =       1.2000000000000000 [-]
	 SCS Same-Spin Energy      =      -0.1264898123364086 [Eh]
	 SCS Opposite-Spin Energy  =      -1.5057445818316351 [Eh]
	 SCS Correlation Energy    =      -1.6322343941680437 [Eh]
	 SCS Total Energy          =    -384.5231772234859591 [Eh]
	-----------------------------------------------------------

  Dipole Moment: [D]
     X:     1.1372      Y:    -5.1498      Z:     0.0044     Total:     5.2739

*** Psi4 exiting successfully. Buy a developer a beer!
