                               Psi4 1.4a3.dev225

  ==> Input File <==

--------------------------------------------------------------------------
#psi4
#
memory 32 gb

molecule  {
0 1
  O        1.8881650     1.4432750    -0.0000100
  O       -3.1767040     0.9881070     0.0000170
  C       -0.5155700     0.0356770    -0.0000120
  C        0.8140500    -0.7053830     0.0000180
  C       -1.6970590    -0.9239890    -0.0000140
  C        2.0272075     0.1226247     0.0000019
  C        3.3799790    -0.4356510     0.0000020
  C       -3.0337740    -0.2274000    -0.0000030
  H       -0.5729570     0.6949060     0.8703990
  H       -0.5729310     0.6948780    -0.8704450
  H        0.8958950    -1.3682810    -0.8735520
  H        0.8958840    -1.3682250     0.8736320
  H       -1.6727150    -1.5924060     0.8735570
  H       -1.6727210    -1.5923950    -0.8735930
  H        3.4942430    -1.0743930    -0.8818600
  H        3.4942540    -1.0743610     0.8818860
  H        4.1535670     0.3330070    -0.0000160
  H       -3.9203830    -0.8957560    -0.0000150
units angstrom
no_reorient  #important for SAPT in psi4, default
symmetry c1  #important for SAPT in psi4, default
}

set PROPERTIES_ORIGIN ["COM"]
properties('MP2/aug-cc-pvtz', properties = ['dipole'])
--------------------------------------------------------------------------

    Molecular point group: c1
  Charge       = 0
  Multiplicity = 1
  Basis Set: AUG-CC-PVTZ
    Blend: AUG-CC-PVTZ
  Basis Set: (AUG-CC-PVTZ AUX)
    Blend: AUG-CC-PVTZ-JKFIT

    Orbital Energies [Eh]
    ---------------------

    Doubly Occupied:

       1A    -20.561453     2A    -20.539802     3A    -11.344908
       4A    -11.339184     5A    -11.253100     6A    -11.252517
       7A    -11.245675     8A    -11.233631     9A     -1.386173
      10A     -1.318679    11A     -1.104046    12A     -1.050786
      13A     -0.993441    14A     -0.882152    15A     -0.778651
      16A     -0.743882    17A     -0.675895    18A     -0.669523
      19A     -0.652093    20A     -0.620140    21A     -0.619341
      22A     -0.612977    23A     -0.576399    24A     -0.547300
      25A     -0.525224    26A     -0.508957    27A     -0.503362
      28A     -0.488229    29A     -0.448714    30A     -0.430616
      31A     -0.421708

  @DF-RHF Final Energy:  -382.86620780889331

   => Energetics <=

    Nuclear Repulsion Energy =            352.7434095488650883
    One-Electron Energy =               -1220.5621214029772545
    Two-Electron Energy =                 484.9525040452188591
    Total Energy =                       -382.8662078088933072
  Basis Set: (AUG-CC-PVTZ AUX)
    Blend: AUG-CC-PVTZ-RI
    Molecular point group: c1

    Geometry (in Angstrom), charge = 0, multiplicity = 1:

       Center              X                  Y                   Z               Mass
    ------------   -----------------  -----------------  -----------------  -----------------
         O            1.926339986778     1.390845003732    -0.000010172788    15.994914619570
         O           -3.138529013222     0.935677003732     0.000016827212    15.994914619570
         C           -0.477395013222    -0.016752996268    -0.000012172788    12.000000000000
         C            0.852224986778    -0.757812996268     0.000017827212    12.000000000000
         C           -1.658884013222    -0.976418996268    -0.000014172788    12.000000000000
         C            2.065382486778     0.070194703732     0.000001727212    12.000000000000
         C            3.418153986778    -0.488080996268     0.000001827212    12.000000000000
         C           -2.995599013222    -0.279829996268    -0.000003172788    12.000000000000
         H           -0.534782013222     0.642476003732     0.870398827212     1.007825032230
         H           -0.534756013222     0.642448003732    -0.870445172788     1.007825032230
         H            0.934069986778    -1.420710996268    -0.873552172788     1.007825032230
         H            0.934058986778    -1.420654996268     0.873631827212     1.007825032230
         H           -1.634540013222    -1.644835996268     0.873556827212     1.007825032230
         H           -1.634546013222    -1.644824996268    -0.873593172788     1.007825032230
         H            3.532417986778    -1.126822996268    -0.881860172788     1.007825032230
         H            3.532428986778    -1.126790996268     0.881885827212     1.007825032230
         H            4.191741986778     0.280577003732    -0.000016172788     1.007825032230
         H           -3.882208013222    -0.948185996268    -0.000015172788     1.007825032230

  Basis Set: AUG-CC-PVTZ
    Blend: AUG-CC-PVTZ
  Basis Set: (AUG-CC-PVTZ AUX)
    Blend: AUG-CC-PVTZ-JKFIT
	 Reference Energy          =    -382.8662078088933072 [Eh]
	 Singles Energy            =      -0.0000000000000000 [Eh]
	 Same-Spin Energy          =      -0.3828928304383332 [Eh]
	 Opposite-Spin Energy      =      -1.2614231196195547 [Eh]
	 Correlation Energy        =      -1.6443159500578879 [Eh]
	 Total Energy              =    -384.5105237589511944 [Eh]

	 ================> DF-SCS-MP2 Energies <==================
	-----------------------------------------------------------
	 SCS Same-Spin Scale       =       0.3333333333333333 [-]
	 SCS Opposite-Spin Scale   =       1.2000000000000000 [-]
	 SCS Same-Spin Energy      =      -0.1276309434794444 [Eh]
	 SCS Opposite-Spin Energy  =      -1.5137077435434656 [Eh]
	 SCS Correlation Energy    =      -1.6413386870229101 [Eh]
	 SCS Total Energy          =    -384.5075464959162446 [Eh]
	-----------------------------------------------------------

  Dipole Moment: [D]
     X:     1.1524      Y:    -5.5223      Z:    -0.0000     Total:     5.6413

*** Psi4 exiting successfully. Buy a developer a beer!
