                               Psi4 1.4a3.dev225

  ==> Input File <==

--------------------------------------------------------------------------
#psi4
#
memory 32 gb

molecule  {
0 1
  O        1.8881650     1.4432750    -0.0000100
  O       -3.1767040     0.9881070     0.0000170
  C       -0.5155700     0.0356770    -0.0000120
  C        0.8140500    -0.7053830     0.0000180
  C       -1.6970590    -0.9239890    -0.0000140
  C        2.0167370     0.2220750     0.0000010
  C        3.3799790    -0.4356510     0.0000020
  C       -3.0337740    -0.2274000    -0.0000030
  H       -0.5703327     0.6647598     0.8305955
  H       -0.5729310     0.6948780    -0.8704450
  H        0.8958950    -1.3682810    -0.8735520
  H        0.8958840    -1.3682250     0.8736320
  H       -1.6727150    -1.5924060     0.8735570
  H       -1.6727210    -1.5923950    -0.8735930
  H        3.4942430    -1.0743930    -0.8818600
  H        3.4942540    -1.0743610     0.8818860
  H        4.1535670     0.3330070    -0.0000160
  H       -3.9203830    -0.8957560    -0.0000150
units angstrom
no_reorient  #important for SAPT in psi4, default
symmetry c1  #important for SAPT in psi4, default
}

set PROPERTIES_ORIGIN ["COM"]
properties('MP2/aug-cc-pvtz', properties = ['dipole'])
--------------------------------------------------------------------------

    Molecular point group: c1
  Charge       = 0
  Multiplicity = 1
  Basis Set: AUG-CC-PVTZ
    Blend: AUG-CC-PVTZ
  Basis Set: (AUG-CC-PVTZ AUX)
    Blend: AUG-CC-PVTZ-JKFIT

    Orbital Energies [Eh]
    ---------------------

    Doubly Occupied:

       1A    -20.560598     2A    -20.548881     3A    -11.338049
       4A    -11.337111     5A    -11.250431     6A    -11.247600
       7A    -11.240387     8A    -11.225106     9A     -1.385407
      10A     -1.379525    11A     -1.099590    12A     -1.035740
      13A     -0.983335    14A     -0.876344    15A     -0.778984
      16A     -0.742427    17A     -0.675860    18A     -0.667816
      19A     -0.657184    20A     -0.625694    21A     -0.614956
      22A     -0.611505    23A     -0.571213    24A     -0.563544
      25A     -0.518768    26A     -0.512223    27A     -0.507379
      28A     -0.489672    29A     -0.485763    30A     -0.431057
      31A     -0.412499

  @DF-RHF Final Energy:  -382.89058267639297

   => Energetics <=

    Nuclear Repulsion Energy =            353.5155811773128676
    One-Electron Energy =               -1222.0630312378607414
    Two-Electron Energy =                 485.6568673841548502
    Total Energy =                       -382.8905826763929667
  Basis Set: (AUG-CC-PVTZ AUX)
    Blend: AUG-CC-PVTZ-RI
    Molecular point group: c1

    Geometry (in Angstrom), charge = 0, multiplicity = 1:

       Center              X                  Y                   Z               Mass
    ------------   -----------------  -----------------  -----------------  -----------------
         O            1.927418300406     1.380649149559     0.000341597521    15.994914619570
         O           -3.137450699594     0.925481149559     0.000368597521    15.994914619570
         C           -0.476316699594    -0.026948850441     0.000339597521    12.000000000000
         C            0.853303300406    -0.768008850441     0.000369597521    12.000000000000
         C           -1.657805699594    -0.986614850441     0.000337597521    12.000000000000
         C            2.055990300406     0.159449149559     0.000352597521    12.000000000000
         C            3.419232300406    -0.498276850441     0.000353597521    12.000000000000
         C           -2.994520699594    -0.290025850441     0.000348597521    12.000000000000
         H           -0.531079399594     0.602133949559     0.830947097521     1.007825032230
         H           -0.533677699594     0.632252149559    -0.870093402479     1.007825032230
         H            0.935148300406    -1.430906850441    -0.873200402479     1.007825032230
         H            0.935137300406    -1.430850850441     0.873983597521     1.007825032230
         H           -1.633461699594    -1.655031850441     0.873908597521     1.007825032230
         H           -1.633467699594    -1.655020850441    -0.873241402479     1.007825032230
         H            3.533496300406    -1.137018850441    -0.881508402479     1.007825032230
         H            3.533507300406    -1.136986850441     0.882237597521     1.007825032230
         H            4.192820300406     0.270381149559     0.000335597521     1.007825032230
         H           -3.881129699594    -0.958381850441     0.000336597521     1.007825032230

  Basis Set: AUG-CC-PVTZ
    Blend: AUG-CC-PVTZ
  Basis Set: (AUG-CC-PVTZ AUX)
    Blend: AUG-CC-PVTZ-JKFIT
	 Reference Energy          =    -382.8905826763929667 [Eh]
	 Singles Energy            =      -0.0000000000000000 [Eh]
	 Same-Spin Energy          =      -0.3794189642509208 [Eh]
	 Opposite-Spin Energy      =      -1.2543177623969182 [Eh]
	 Correlation Energy        =      -1.6337367266478389 [Eh]
	 Total Energy              =    -384.5243194030408063 [Eh]

	 ================> DF-SCS-MP2 Energies <==================
	-----------------------------------------------------------
	 SCS Same-Spin Scale       =       0.3333333333333333 [-]
	 SCS Opposite-Spin Scale   =       1.2000000000000000 [-]
	 SCS Same-Spin Energy      =      -0.1264729880836402 [Eh]
	 SCS Opposite-Spin Energy  =      -1.5051813148763018 [Eh]
	 SCS Correlation Energy    =      -1.6316543029599420 [Eh]
	 SCS Total Energy          =    -384.5222369793528969 [Eh]
	-----------------------------------------------------------

  Dipole Moment: [D]
     X:     1.1369      Y:    -5.1476      Z:     0.0112     Total:     5.2717

*** Psi4 exiting successfully. Buy a developer a beer!
