                               Psi4 1.4a3.dev225

  ==> Input File <==

--------------------------------------------------------------------------
#psi4
#
memory 32 gb

molecule  {
0 1
  O        1.8881650     1.4432750    -0.0000100
  O       -3.1767040     0.9881070     0.0000170
  C       -0.5155700     0.0356770    -0.0000120
  C        0.8207368    -0.6929083     0.0225006
  C       -1.6970590    -0.9239890    -0.0000140
  C        2.0167370     0.2220750     0.0000010
  C        3.3799790    -0.4356510     0.0000020
  C       -3.0337740    -0.2274000    -0.0000030
  H       -0.5729570     0.6949060     0.8703990
  H       -0.5729310     0.6948780    -0.8704450
  H        0.8958950    -1.3682810    -0.8735520
  H        0.8958840    -1.3682250     0.8736320
  H       -1.6727150    -1.5924060     0.8735570
  H       -1.6727210    -1.5923950    -0.8735930
  H        3.4942430    -1.0743930    -0.8818600
  H        3.4942540    -1.0743610     0.8818860
  H        4.1535670     0.3330070    -0.0000160
  H       -3.9203830    -0.8957560    -0.0000150
units angstrom
no_reorient  #important for SAPT in psi4, default
symmetry c1  #important for SAPT in psi4, default
}

set PROPERTIES_ORIGIN ["COM"]
properties('MP2/aug-cc-pvtz', properties = ['dipole'])
--------------------------------------------------------------------------

    Molecular point group: c1
  Charge       = 0
  Multiplicity = 1
  Basis Set: AUG-CC-PVTZ
    Blend: AUG-CC-PVTZ
  Basis Set: (AUG-CC-PVTZ AUX)
    Blend: AUG-CC-PVTZ-JKFIT

    Orbital Energies [Eh]
    ---------------------

    Doubly Occupied:

       1A    -20.560684     2A    -20.548427     3A    -11.338277
       4A    -11.336536     5A    -11.251156     6A    -11.248633
       7A    -11.240421     8A    -11.231142     9A     -1.385466
      10A     -1.379617    11A     -1.098506    12A     -1.036586
      13A     -0.983424    14A     -0.873971    15A     -0.777364
      16A     -0.742275    17A     -0.676038    18A     -0.665195
      19A     -0.657831    20A     -0.625498    21A     -0.614934
      22A     -0.611782    23A     -0.569979    24A     -0.563737
      25A     -0.520154    26A     -0.508886    27A     -0.504977
      28A     -0.488337    29A     -0.482487    30A     -0.431261
      31A     -0.413870

  @DF-RHF Final Energy:  -382.89070428841455

   => Energetics <=

    Nuclear Repulsion Energy =            353.4042402436451766
    One-Electron Energy =               -1221.8549921784594972
    Two-Electron Energy =                 485.5600476463997666
    Total Energy =                       -382.8907042884145540
  Basis Set: (AUG-CC-PVTZ AUX)
    Blend: AUG-CC-PVTZ-RI
    Molecular point group: c1

    Geometry (in Angstrom), charge = 0, multiplicity = 1:

       Center              X                  Y                   Z               Mass
    ------------   -----------------  -----------------  -----------------  -----------------
         O            1.926738033279     1.379070456417    -0.002375255124    15.994914619570
         O           -3.138130966721     0.923902456417    -0.002348255124    15.994914619570
         C           -0.476996966721    -0.028527543583    -0.002377255124    12.000000000000
         C            0.859309833279    -0.757112843583     0.020135344876    12.000000000000
         C           -1.658485966721    -0.988193543583    -0.002379255124    12.000000000000
         C            2.055310033279     0.157870456417    -0.002364255124    12.000000000000
         C            3.418552033279    -0.499855543583    -0.002363255124    12.000000000000
         C           -2.995200966721    -0.291604543583    -0.002368255124    12.000000000000
         H           -0.534383966721     0.630701456417     0.868033744876     1.007825032230
         H           -0.534357966721     0.630673456417    -0.872810255124     1.007825032230
         H            0.934468033279    -1.432485543583    -0.875917255124     1.007825032230
         H            0.934457033279    -1.432429543583     0.871266744876     1.007825032230
         H           -1.634141966721    -1.656610543583     0.871191744876     1.007825032230
         H           -1.634147966721    -1.656599543583    -0.875958255124     1.007825032230
         H            3.532816033279    -1.138597543583    -0.884225255124     1.007825032230
         H            3.532827033279    -1.138565543583     0.879520744876     1.007825032230
         H            4.192140033279     0.268802456417    -0.002381255124     1.007825032230
         H           -3.881809966721    -0.959960543583    -0.002380255124     1.007825032230

  Basis Set: AUG-CC-PVTZ
    Blend: AUG-CC-PVTZ
  Basis Set: (AUG-CC-PVTZ AUX)
    Blend: AUG-CC-PVTZ-JKFIT
	 Reference Energy          =    -382.8907042884145540 [Eh]
	 Singles Energy            =      -0.0000000000000000 [Eh]
	 Same-Spin Energy          =      -0.3795482791550659 [Eh]
	 Opposite-Spin Energy      =      -1.2547641255552082 [Eh]
	 Correlation Energy        =      -1.6343124047102742 [Eh]
	 Total Energy              =    -384.5250166931248259 [Eh]

	 ================> DF-SCS-MP2 Energies <==================
	-----------------------------------------------------------
	 SCS Same-Spin Scale       =       0.3333333333333333 [-]
	 SCS Opposite-Spin Scale   =       1.2000000000000000 [-]
	 SCS Same-Spin Energy      =      -0.1265160930516886 [Eh]
	 SCS Opposite-Spin Energy  =      -1.5057169506662498 [Eh]
	 SCS Correlation Energy    =      -1.6322330437179384 [Eh]
	 SCS Total Energy          =    -384.5229373321324715 [Eh]
	-----------------------------------------------------------

  Dipole Moment: [D]
     X:     1.1161      Y:    -5.1649      Z:     0.0180     Total:     5.2841

*** Psi4 exiting successfully. Buy a developer a beer!
