                               Psi4 1.4a3.dev225

  ==> Input File <==

--------------------------------------------------------------------------
#psi4
#
memory 32 gb

molecule  {
0 1
  O        1.8881650     1.4432750    -0.0000100
  O       -3.1767040     0.9881070     0.0000170
  C       -0.5155700     0.0356770    -0.0000120
  C        0.7267008    -0.6566992     0.0000160
  C       -1.6970590    -0.9239890    -0.0000140
  C        2.0167370     0.2220750     0.0000010
  C        3.3799790    -0.4356510     0.0000020
  C       -3.0337740    -0.2274000    -0.0000030
  H       -0.5729570     0.6949060     0.8703990
  H       -0.5729310     0.6948780    -0.8704450
  H        0.8958950    -1.3682810    -0.8735520
  H        0.8958840    -1.3682250     0.8736320
  H       -1.6727150    -1.5924060     0.8735570
  H       -1.6727210    -1.5923950    -0.8735930
  H        3.4942430    -1.0743930    -0.8818600
  H        3.4942540    -1.0743610     0.8818860
  H        4.1535670     0.3330070    -0.0000160
  H       -3.9203830    -0.8957560    -0.0000150
units angstrom
no_reorient  #important for SAPT in psi4, default
symmetry c1  #important for SAPT in psi4, default
}

set PROPERTIES_ORIGIN ["COM"]
properties('MP2/aug-cc-pvtz', properties = ['dipole'])
--------------------------------------------------------------------------

    Molecular point group: c1
  Charge       = 0
  Multiplicity = 1
  Basis Set: AUG-CC-PVTZ
    Blend: AUG-CC-PVTZ
  Basis Set: (AUG-CC-PVTZ AUX)
    Blend: AUG-CC-PVTZ-JKFIT

    Orbital Energies [Eh]
    ---------------------

    Doubly Occupied:

       1A    -20.560892     2A    -20.546661     3A    -11.338356
       4A    -11.338242     5A    -11.252618     6A    -11.251716
       7A    -11.243581     8A    -11.225973     9A     -1.385694
      10A     -1.378315    11A     -1.110317    12A     -1.030597
      13A     -0.989100    14A     -0.869490    15A     -0.780086
      16A     -0.738153    17A     -0.678038    18A     -0.666994
      19A     -0.656437    20A     -0.625449    21A     -0.611762
      22A     -0.609448    23A     -0.569091    24A     -0.564838
      25A     -0.541485    26A     -0.506877    27A     -0.504932
      28A     -0.489048    29A     -0.473115    30A     -0.431562
      31A     -0.406789

  @DF-RHF Final Energy:  -382.87945181318781

   => Energetics <=

    Nuclear Repulsion Energy =            354.0168375256833428
    One-Electron Energy =               -1223.0412663889821943
    Two-Electron Energy =                 486.1449770501110947
    Total Energy =                       -382.8794518131878135
  Basis Set: (AUG-CC-PVTZ AUX)
    Blend: AUG-CC-PVTZ-RI
    Molecular point group: c1

    Geometry (in Angstrom), charge = 0, multiplicity = 1:

       Center              X                  Y                   Z               Mass
    ------------   -----------------  -----------------  -----------------  -----------------
         O            1.936630651831     1.375261247025    -0.000009867707    15.994914619570
         O           -3.128238348169     0.920093247025     0.000017132293    15.994914619570
         C           -0.467104348169    -0.032336752975    -0.000011867707    12.000000000000
         C            0.775166451831    -0.724712952975     0.000016132293    12.000000000000
         C           -1.648593348169    -0.992002752975    -0.000013867707    12.000000000000
         C            2.065202651831     0.154061247025     0.000001132293    12.000000000000
         C            3.428444651831    -0.503664752975     0.000002132293    12.000000000000
         C           -2.985308348169    -0.295413752975    -0.000002867707    12.000000000000
         H           -0.524491348169     0.626892247025     0.870399132293     1.007825032230
         H           -0.524465348169     0.626864247025    -0.870444867707     1.007825032230
         H            0.944360651831    -1.436294752975    -0.873551867707     1.007825032230
         H            0.944349651831    -1.436238752975     0.873632132293     1.007825032230
         H           -1.624249348169    -1.660419752975     0.873557132293     1.007825032230
         H           -1.624255348169    -1.660408752975    -0.873592867707     1.007825032230
         H            3.542708651831    -1.142406752975    -0.881859867707     1.007825032230
         H            3.542719651831    -1.142374752975     0.881886132293     1.007825032230
         H            4.202032651831     0.264993247025    -0.000015867707     1.007825032230
         H           -3.871917348169    -0.963769752975    -0.000014867707     1.007825032230

  Basis Set: AUG-CC-PVTZ
    Blend: AUG-CC-PVTZ
  Basis Set: (AUG-CC-PVTZ AUX)
    Blend: AUG-CC-PVTZ-JKFIT
	 Reference Energy          =    -382.8794518131878135 [Eh]
	 Singles Energy            =      -0.0000000000000000 [Eh]
	 Same-Spin Energy          =      -0.3804371970601989 [Eh]
	 Opposite-Spin Energy      =      -1.2558551847485342 [Eh]
	 Correlation Energy        =      -1.6362923818087332 [Eh]
	 Total Energy              =    -384.5157441949965573 [Eh]

	 ================> DF-SCS-MP2 Energies <==================
	-----------------------------------------------------------
	 SCS Same-Spin Scale       =       0.3333333333333333 [-]
	 SCS Opposite-Spin Scale   =       1.2000000000000000 [-]
	 SCS Same-Spin Energy      =      -0.1268123990200663 [Eh]
	 SCS Opposite-Spin Energy  =      -1.5070262216982411 [Eh]
	 SCS Correlation Energy    =      -1.6338386207183073 [Eh]
	 SCS Total Energy          =    -384.5132904339060929 [Eh]
	-----------------------------------------------------------

  Dipole Moment: [D]
     X:     1.1593      Y:    -5.1090      Z:    -0.0000     Total:     5.2389

*** Psi4 exiting successfully. Buy a developer a beer!
