                               Psi4 1.4a3.dev225

  ==> Input File <==

--------------------------------------------------------------------------
#psi4
#
memory 32 gb

molecule  {
0 1
  O        1.8881650     1.4432750    -0.0000100
  O       -3.1767040     0.9881070     0.0000170
  C       -0.5155700     0.0356770    -0.0000120
  C        0.8069582    -0.7176319    -0.0224646
  C       -1.6970590    -0.9239890    -0.0000140
  C        2.0167370     0.2220750     0.0000010
  C        3.3799790    -0.4356510     0.0000020
  C       -3.0337740    -0.2274000    -0.0000030
  H       -0.5729570     0.6949060     0.8703990
  H       -0.5729310     0.6948780    -0.8704450
  H        0.8958950    -1.3682810    -0.8735520
  H        0.8958840    -1.3682250     0.8736320
  H       -1.6727150    -1.5924060     0.8735570
  H       -1.6727210    -1.5923950    -0.8735930
  H        3.4942430    -1.0743930    -0.8818600
  H        3.4942540    -1.0743610     0.8818860
  H        4.1535670     0.3330070    -0.0000160
  H       -3.9203830    -0.8957560    -0.0000150
units angstrom
no_reorient  #important for SAPT in psi4, default
symmetry c1  #important for SAPT in psi4, default
}

set PROPERTIES_ORIGIN ["COM"]
properties('MP2/aug-cc-pvtz', properties = ['dipole'])
--------------------------------------------------------------------------

    Molecular point group: c1
  Charge       = 0
  Multiplicity = 1
  Basis Set: AUG-CC-PVTZ
    Blend: AUG-CC-PVTZ
  Basis Set: (AUG-CC-PVTZ AUX)
    Blend: AUG-CC-PVTZ-JKFIT

    Orbital Energies [Eh]
    ---------------------

    Doubly Occupied:

       1A    -20.560376     2A    -20.549160     3A    -11.337759
       4A    -11.337670     5A    -11.250428     6A    -11.247459
       7A    -11.240401     8A    -11.230915     9A     -1.385159
      10A     -1.379254    11A     -1.098006    12A     -1.034852
      13A     -0.982915    14A     -0.872431    15A     -0.777014
      16A     -0.741983    17A     -0.675843    18A     -0.666333
      19A     -0.656096    20A     -0.624852    21A     -0.614830
      22A     -0.611226    23A     -0.571972    24A     -0.563181
      25A     -0.518543    26A     -0.510010    27A     -0.506568
      28A     -0.488325    29A     -0.485564    30A     -0.430781
      31A     -0.411027

  @DF-RHF Final Energy:  -382.89078219776218

   => Energetics <=

    Nuclear Repulsion Energy =            353.1524338562600178
    One-Electron Energy =               -1221.3645672706145433
    Two-Electron Energy =                 485.3213512165923476
    Total Energy =                       -382.8907821977621779
  Basis Set: (AUG-CC-PVTZ AUX)
    Blend: AUG-CC-PVTZ-RI
    Molecular point group: c1

    Geometry (in Angstrom), charge = 0, multiplicity = 1:

       Center              X                  Y                   Z               Mass
    ------------   -----------------  -----------------  -----------------  -----------------
         O            1.928187546593     1.381671387380     0.002355098908    15.994914619570
         O           -3.136681453407     0.926503387380     0.002382098908    15.994914619570
         C           -0.475547453407    -0.025926612620     0.002353098908    12.000000000000
         C            0.846980746593    -0.779235512620    -0.020099501092    12.000000000000
         C           -1.657036453407    -0.985592612620     0.002351098908    12.000000000000
         C            2.056759546593     0.160471387380     0.002366098908    12.000000000000
         C            3.420001546593    -0.497254612620     0.002367098908    12.000000000000
         C           -2.993751453407    -0.289003612620     0.002362098908    12.000000000000
         H           -0.532934453407     0.633302387380     0.872764098908     1.007825032230
         H           -0.532908453407     0.633274387380    -0.868079901092     1.007825032230
         H            0.935917546593    -1.429884612620    -0.871186901092     1.007825032230
         H            0.935906546593    -1.429828612620     0.875997098908     1.007825032230
         H           -1.632692453407    -1.654009612620     0.875922098908     1.007825032230
         H           -1.632698453407    -1.653998612620    -0.871227901092     1.007825032230
         H            3.534265546593    -1.135996612620    -0.879494901092     1.007825032230
         H            3.534276546593    -1.135964612620     0.884251098908     1.007825032230
         H            4.193589546593     0.271403387380     0.002349098908     1.007825032230
         H           -3.880360453407    -0.957359612620     0.002350098908     1.007825032230

  Basis Set: AUG-CC-PVTZ
    Blend: AUG-CC-PVTZ
  Basis Set: (AUG-CC-PVTZ AUX)
    Blend: AUG-CC-PVTZ-JKFIT
	 Reference Energy          =    -382.8907821977621779 [Eh]
	 Singles Energy            =      -0.0000000000000000 [Eh]
	 Same-Spin Energy          =      -0.3794299858336495 [Eh]
	 Opposite-Spin Energy      =      -1.2546566830651695 [Eh]
	 Correlation Energy        =      -1.6340866688988189 [Eh]
	 Total Energy              =    -384.5248688666609951 [Eh]

	 ================> DF-SCS-MP2 Energies <==================
	-----------------------------------------------------------
	 SCS Same-Spin Scale       =       0.3333333333333333 [-]
	 SCS Opposite-Spin Scale   =       1.2000000000000000 [-]
	 SCS Same-Spin Energy      =      -0.1264766619445498 [Eh]
	 SCS Opposite-Spin Energy  =      -1.5055880196782034 [Eh]
	 SCS Correlation Energy    =      -1.6320646816227533 [Eh]
	 SCS Total Energy          =    -384.5228468793849288 [Eh]
	-----------------------------------------------------------

  Dipole Moment: [D]
     X:     1.1588      Y:    -5.1422      Z:    -0.0173     Total:     5.2712

*** Psi4 exiting successfully. Buy a developer a beer!
