                               Psi4 1.4a3.dev225

  ==> Input File <==

--------------------------------------------------------------------------
#psi4
#
memory 32 gb

molecule  {
0 1
  O        1.8881650     1.4432750    -0.0000100
  O       -3.1767040     0.9881070     0.0000170
  C       -0.5155700     0.0356770    -0.0000120
  C        0.8140500    -0.7053830     0.0000180
  C       -1.6970590    -0.9239890    -0.0000140
  C        2.0167370     0.2220750     0.0000010
  C        3.3799790    -0.4356510     0.0000020
  C       -3.0337740    -0.2274000    -0.0000030
  H       -0.5729570     0.6949060     0.8703990
  H       -0.5729310     0.6948780    -0.8704450
  H        0.8958950    -1.3682810    -0.8735520
  H        0.8958840    -1.3682250     0.8736320
  H       -1.6727150    -1.5924060     0.8735570
  H       -1.6727210    -1.5923950    -0.8735930
  H        3.4921557    -1.0627250    -0.8657509
  H        3.4942540    -1.0743610     0.8818860
  H        4.1535670     0.3330070    -0.0000160
  H       -3.9203830    -0.8957560    -0.0000150
units angstrom
no_reorient  #important for SAPT in psi4, default
symmetry c1  #important for SAPT in psi4, default
}

set PROPERTIES_ORIGIN ["COM"]
properties('MP2/aug-cc-pvtz', properties = ['dipole'])
--------------------------------------------------------------------------

    Molecular point group: c1
  Charge       = 0
  Multiplicity = 1
  Basis Set: AUG-CC-PVTZ
    Blend: AUG-CC-PVTZ
  Basis Set: (AUG-CC-PVTZ AUX)
    Blend: AUG-CC-PVTZ-JKFIT

    Orbital Energies [Eh]
    ---------------------

    Doubly Occupied:

       1A    -20.560522     2A    -20.548647     3A    -11.338011
       4A    -11.336904     5A    -11.250781     6A    -11.247971
       7A    -11.238002     8A    -11.230981     9A     -1.385304
      10A     -1.379290    11A     -1.098260    12A     -1.036495
      13A     -0.983968    14A     -0.873363    15A     -0.777175
      16A     -0.742348    17A     -0.675920    18A     -0.665729
      19A     -0.657550    20A     -0.625225    21A     -0.615905
      22A     -0.611490    23A     -0.572273    24A     -0.563975
      25A     -0.519093    26A     -0.508236    27A     -0.507075
      28A     -0.488458    29A     -0.484641    30A     -0.430997
      31A     -0.412415

  @DF-RHF Final Energy:  -382.89147704403615

   => Energetics <=

    Nuclear Repulsion Energy =            353.3633603886704577
    One-Electron Energy =               -1221.7756708529709613
    Two-Electron Energy =                 485.5208334202643528
    Total Energy =                       -382.8914770440361508
  Basis Set: (AUG-CC-PVTZ AUX)
    Blend: AUG-CC-PVTZ-RI
    Molecular point group: c1

    Geometry (in Angstrom), charge = 0, multiplicity = 1:

       Center              X                  Y                   Z               Mass
    ------------   -----------------  -----------------  -----------------  -----------------
         O            1.927459928778     1.380279708804    -0.000152406744    15.994914619570
         O           -3.137409071222     0.925111708804    -0.000125406744    15.994914619570
         C           -0.476275071222    -0.027318291196    -0.000154406744    12.000000000000
         C            0.853344928778    -0.768378291196    -0.000124406744    12.000000000000
         C           -1.657764071222    -0.986984291196    -0.000156406744    12.000000000000
         C            2.056031928778     0.159079708804    -0.000141406744    12.000000000000
         C            3.419273928778    -0.498646291196    -0.000140406744    12.000000000000
         C           -2.994479071222    -0.290395291196    -0.000145406744    12.000000000000
         H           -0.533662071222     0.631910708804     0.870256593256     1.007825032230
         H           -0.533636071222     0.631882708804    -0.870587406744     1.007825032230
         H            0.935189928778    -1.431276291196    -0.873694406744     1.007825032230
         H            0.935178928778    -1.431220291196     0.873489593256     1.007825032230
         H           -1.633420071222    -1.655401291196     0.873414593256     1.007825032230
         H           -1.633426071222    -1.655390291196    -0.873735406744     1.007825032230
         H            3.531450628778    -1.125720291196    -0.865893306744     1.007825032230
         H            3.533548928778    -1.137356291196     0.881743593256     1.007825032230
         H            4.192861928778     0.270011708804    -0.000158406744     1.007825032230
         H           -3.881088071222    -0.958751291196    -0.000157406744     1.007825032230

  Basis Set: AUG-CC-PVTZ
    Blend: AUG-CC-PVTZ
  Basis Set: (AUG-CC-PVTZ AUX)
    Blend: AUG-CC-PVTZ-JKFIT
	 Reference Energy          =    -382.8914770440361508 [Eh]
	 Singles Energy            =      -0.0000000000000000 [Eh]
	 Same-Spin Energy          =      -0.3794782681612325 [Eh]
	 Opposite-Spin Energy      =      -1.2545609607875055 [Eh]
	 Correlation Energy        =      -1.6340392289487380 [Eh]
	 Total Energy              =    -384.5255162729848735 [Eh]

	 ================> DF-SCS-MP2 Energies <==================
	-----------------------------------------------------------
	 SCS Same-Spin Scale       =       0.3333333333333333 [-]
	 SCS Opposite-Spin Scale   =       1.2000000000000000 [-]
	 SCS Same-Spin Energy      =      -0.1264927560537442 [Eh]
	 SCS Opposite-Spin Energy  =      -1.5054731529450065 [Eh]
	 SCS Correlation Energy    =      -1.6319659089987506 [Eh]
	 SCS Total Energy          =    -384.5234429530348734 [Eh]
	-----------------------------------------------------------

  Dipole Moment: [D]
     X:     1.1386      Y:    -5.1587      Z:    -0.0041     Total:     5.2829

*** Psi4 exiting successfully. Buy a developer a beer!
