                               Psi4 1.4a3.dev225

  ==> Input File <==

--------------------------------------------------------------------------
#psi4
#
memory 32 gb

molecule  {
0 1
  O        1.8881650     1.4432750    -0.0000100
  O       -3.1767040     0.9881070     0.0000170
  C       -0.5155700     0.0356770    -0.0000120
  C        0.8140500    -0.7053830     0.0000180
  C       -1.6970590    -0.9239890    -0.0000140
  C        2.0167370     0.2220750     0.0000010
  C        3.3799790    -0.4356510     0.0000020
  C       -3.0337740    -0.2274000    -0.0000030
  H       -0.5782056     0.7551985     0.9500060
  H       -0.5729310     0.6948780    -0.8704450
  H        0.8958950    -1.3682810    -0.8735520
  H        0.8958840    -1.3682250     0.8736320
  H       -1.6727150    -1.5924060     0.8735570
  H       -1.6727210    -1.5923950    -0.8735930
  H        3.4942430    -1.0743930    -0.8818600
  H        3.4942540    -1.0743610     0.8818860
  H        4.1535670     0.3330070    -0.0000160
  H       -3.9203830    -0.8957560    -0.0000150
units angstrom
no_reorient  #important for SAPT in psi4, default
symmetry c1  #important for SAPT in psi4, default
}

set PROPERTIES_ORIGIN ["COM"]
properties('MP2/aug-cc-pvtz', properties = ['dipole'])
--------------------------------------------------------------------------

    Molecular point group: c1
  Charge       = 0
  Multiplicity = 1
  Basis Set: AUG-CC-PVTZ
    Blend: AUG-CC-PVTZ
  Basis Set: (AUG-CC-PVTZ AUX)
    Blend: AUG-CC-PVTZ-JKFIT

    Orbital Energies [Eh]
    ---------------------

    Doubly Occupied:

       1A    -20.560386     2A    -20.548640     3A    -11.337972
       4A    -11.337048     5A    -11.251649     6A    -11.248842
       7A    -11.242197     8A    -11.240469     9A     -1.385110
      10A     -1.379230    11A     -1.096418    12A     -1.035783
      13A     -0.982993    14A     -0.868408    15A     -0.774309
      16A     -0.741291    17A     -0.675966    18A     -0.662065
      19A     -0.656844    20A     -0.624161    21A     -0.614562
      22A     -0.611692    23A     -0.570403    24A     -0.563753
      25A     -0.519817    26A     -0.508223    27A     -0.501572
      28A     -0.487003    29A     -0.476426    30A     -0.430940
      31A     -0.412553

  @DF-RHF Final Energy:  -382.88468134590664

   => Energetics <=

    Nuclear Repulsion Energy =            352.8418838862169764
    One-Electron Energy =               -1220.7596803426326915
    Two-Electron Energy =                 485.0331151105091294
    Total Energy =                       -382.8846813459066425
  Basis Set: (AUG-CC-PVTZ AUX)
    Blend: AUG-CC-PVTZ-RI
    Molecular point group: c1

    Geometry (in Angstrom), charge = 0, multiplicity = 1:

       Center              X                  Y                   Z               Mass
    ------------   -----------------  -----------------  -----------------  -----------------
         O            1.927487859793     1.379850097045    -0.000713429367    15.994914619570
         O           -3.137381140207     0.924682097045    -0.000686429367    15.994914619570
         C           -0.476247140207    -0.027747902955    -0.000715429367    12.000000000000
         C            0.853372859793    -0.768807902955    -0.000685429367    12.000000000000
         C           -1.657736140207    -0.987413902955    -0.000717429367    12.000000000000
         C            2.056059859793     0.158650097045    -0.000702429367    12.000000000000
         C            3.419301859793    -0.499075902955    -0.000701429367    12.000000000000
         C           -2.994451140207    -0.290824902955    -0.000706429367    12.000000000000
         H           -0.538882740207     0.691773597045     0.949302570633     1.007825032230
         H           -0.533608140207     0.631453097045    -0.871148429367     1.007825032230
         H            0.935217859793    -1.431705902955    -0.874255429367     1.007825032230
         H            0.935206859793    -1.431649902955     0.872928570633     1.007825032230
         H           -1.633392140207    -1.655830902955     0.872853570633     1.007825032230
         H           -1.633398140207    -1.655819902955    -0.874296429367     1.007825032230
         H            3.533565859793    -1.137817902955    -0.882563429367     1.007825032230
         H            3.533576859793    -1.137785902955     0.881182570633     1.007825032230
         H            4.192889859793     0.269582097045    -0.000719429367     1.007825032230
         H           -3.881060140207    -0.959180902955    -0.000718429367     1.007825032230

  Basis Set: AUG-CC-PVTZ
    Blend: AUG-CC-PVTZ
  Basis Set: (AUG-CC-PVTZ AUX)
    Blend: AUG-CC-PVTZ-JKFIT
	 Reference Energy          =    -382.8846813459066425 [Eh]
	 Singles Energy            =      -0.0000000000000000 [Eh]
	 Same-Spin Energy          =      -0.3796069248479567 [Eh]
	 Opposite-Spin Energy      =      -1.2555656807748727 [Eh]
	 Correlation Energy        =      -1.6351726056228295 [Eh]
	 Total Energy              =    -384.5198539515294556 [Eh]

	 ================> DF-SCS-MP2 Energies <==================
	-----------------------------------------------------------
	 SCS Same-Spin Scale       =       0.3333333333333333 [-]
	 SCS Opposite-Spin Scale   =       1.2000000000000000 [-]
	 SCS Same-Spin Energy      =      -0.1265356416159855 [Eh]
	 SCS Opposite-Spin Energy  =      -1.5066788169298473 [Eh]
	 SCS Correlation Energy    =      -1.6332144585458328 [Eh]
	 SCS Total Energy          =    -384.5178958044524506 [Eh]
	-----------------------------------------------------------

  Dipole Moment: [D]
     X:     1.1410      Y:    -5.1744      Z:    -0.0306     Total:     5.2988

*** Psi4 exiting successfully. Buy a developer a beer!
