                               Psi4 1.4a3.dev225

  ==> Input File <==

--------------------------------------------------------------------------
#psi4
#
memory 32 gb

molecule  {
0 1
  O        1.8881650     1.4432750    -0.0000100
  O       -3.1767040     0.9881070     0.0000170
  C       -0.5155700     0.0356770    -0.0000120
  C        0.8140500    -0.7053830     0.0000180
  C       -1.6970590    -0.9239890    -0.0000140
  C        1.9957961     0.4209757    -0.0000008
  C        3.3799790    -0.4356510     0.0000020
  C       -3.0337740    -0.2274000    -0.0000030
  H       -0.5729570     0.6949060     0.8703990
  H       -0.5729310     0.6948780    -0.8704450
  H        0.8958950    -1.3682810    -0.8735520
  H        0.8958840    -1.3682250     0.8736320
  H       -1.6727150    -1.5924060     0.8735570
  H       -1.6727210    -1.5923950    -0.8735930
  H        3.4942430    -1.0743930    -0.8818600
  H        3.4942540    -1.0743610     0.8818860
  H        4.1535670     0.3330070    -0.0000160
  H       -3.9203830    -0.8957560    -0.0000150
units angstrom
no_reorient  #important for SAPT in psi4, default
symmetry c1  #important for SAPT in psi4, default
}

set PROPERTIES_ORIGIN ["COM"]
properties('MP2/aug-cc-pvtz', properties = ['dipole'])
--------------------------------------------------------------------------

    Molecular point group: c1
  Charge       = 0
  Multiplicity = 1
  Basis Set: AUG-CC-PVTZ
    Blend: AUG-CC-PVTZ
  Basis Set: (AUG-CC-PVTZ AUX)
    Blend: AUG-CC-PVTZ-JKFIT

    Orbital Energies [Eh]
    ---------------------

    Doubly Occupied:

       1A    -20.568629     2A    -20.558445     3A    -11.335359
       4A    -11.323477     5A    -11.246729     6A    -11.233691
       7A    -11.225895     8A    -11.225511     9A     -1.541603
      10A     -1.383374    11A     -1.088114    12A     -1.004074
      13A     -0.963260    14A     -0.855650    15A     -0.774357
      16A     -0.751628    17A     -0.701303    18A     -0.675814
      19A     -0.669745    20A     -0.648448    21A     -0.636354
      22A     -0.613240    23A     -0.565318    24A     -0.563447
      25A     -0.551484    26A     -0.523736    27A     -0.503848
      28A     -0.501084    29A     -0.482073    30A     -0.427228
      31A     -0.360303

  @DF-RHF Final Energy:  -382.81936868359537

   => Energetics <=

    Nuclear Repulsion Energy =            355.1643845503889452
    One-Electron Energy =               -1224.9610622276920822
    Two-Electron Energy =                 486.9773089937077657
    Total Energy =                       -382.8193686835953713
  Basis Set: (AUG-CC-PVTZ AUX)
    Blend: AUG-CC-PVTZ-RI
    Molecular point group: c1

    Geometry (in Angstrom), charge = 0, multiplicity = 1:

       Center              X                  Y                   Z               Mass
    ------------   -----------------  -----------------  -----------------  -----------------
         O            1.929644476530     1.359458379063    -0.000009888747    15.994914619570
         O           -3.135224523470     0.904290379063     0.000017111253    15.994914619570
         C           -0.474090523470    -0.048139620937    -0.000011888747    12.000000000000
         C            0.855529476530    -0.789199620937     0.000018111253    12.000000000000
         C           -1.655579523470    -1.007805620937    -0.000013888747    12.000000000000
         C            2.037275576530     0.337159079063    -0.000000688747    12.000000000000
         C            3.421458476530    -0.519467620937     0.000002111253    12.000000000000
         C           -2.992294523470    -0.311216620937    -0.000002888747    12.000000000000
         H           -0.531477523470     0.611089379063     0.870399111253     1.007825032230
         H           -0.531451523470     0.611061379063    -0.870444888747     1.007825032230
         H            0.937374476530    -1.452097620937    -0.873551888747     1.007825032230
         H            0.937363476530    -1.452041620937     0.873632111253     1.007825032230
         H           -1.631235523470    -1.676222620937     0.873557111253     1.007825032230
         H           -1.631241523470    -1.676211620937    -0.873592888747     1.007825032230
         H            3.535722476530    -1.158209620937    -0.881859888747     1.007825032230
         H            3.535733476530    -1.158177620937     0.881886111253     1.007825032230
         H            4.195046476530     0.249190379063    -0.000015888747     1.007825032230
         H           -3.878903523470    -0.979572620937    -0.000014888747     1.007825032230

  Basis Set: AUG-CC-PVTZ
    Blend: AUG-CC-PVTZ
  Basis Set: (AUG-CC-PVTZ AUX)
    Blend: AUG-CC-PVTZ-JKFIT
	 Reference Energy          =    -382.8193686835953713 [Eh]
	 Singles Energy            =      -0.0000000000000000 [Eh]
	 Same-Spin Energy          =      -0.3753884869402098 [Eh]
	 Opposite-Spin Energy      =      -1.2458140463576479 [Eh]
	 Correlation Energy        =      -1.6212025332978577 [Eh]
	 Total Energy              =    -384.4405712168932041 [Eh]

	 ================> DF-SCS-MP2 Energies <==================
	-----------------------------------------------------------
	 SCS Same-Spin Scale       =       0.3333333333333333 [-]
	 SCS Opposite-Spin Scale   =       1.2000000000000000 [-]
	 SCS Same-Spin Energy      =      -0.1251294956467366 [Eh]
	 SCS Opposite-Spin Energy  =      -1.4949768556291774 [Eh]
	 SCS Correlation Energy    =      -1.6201063512759140 [Eh]
	 SCS Total Energy          =    -384.4394750348712932 [Eh]
	-----------------------------------------------------------

  Dipole Moment: [D]
     X:     1.0359      Y:    -3.9761      Z:    -0.0000     Total:     4.1088

*** Psi4 exiting successfully. Buy a developer a beer!
