                               Psi4 1.4a3.dev225

  ==> Input File <==

--------------------------------------------------------------------------
#psi4
#
memory 32 gb

molecule  {
0 1
  O        1.8881650     1.4432750    -0.0000100
  O       -3.1767040     0.9881070     0.0000170
  C       -0.5155700     0.0356770    -0.0000120
  C        0.8140500    -0.7053830     0.0000180
  C       -1.6970590    -0.9239890    -0.0000140
  C        1.9965671     0.1717844    -0.0906947
  C        3.3799790    -0.4356510     0.0000020
  C       -3.0337740    -0.2274000    -0.0000030
  H       -0.5729570     0.6949060     0.8703990
  H       -0.5729310     0.6948780    -0.8704450
  H        0.8958950    -1.3682810    -0.8735520
  H        0.8958840    -1.3682250     0.8736320
  H       -1.6727150    -1.5924060     0.8735570
  H       -1.6727210    -1.5923950    -0.8735930
  H        3.4942430    -1.0743930    -0.8818600
  H        3.4942540    -1.0743610     0.8818860
  H        4.1535670     0.3330070    -0.0000160
  H       -3.9203830    -0.8957560    -0.0000150
units angstrom
no_reorient  #important for SAPT in psi4, default
symmetry c1  #important for SAPT in psi4, default
}

set PROPERTIES_ORIGIN ["COM"]
properties('MP2/aug-cc-pvtz', properties = ['dipole'])
--------------------------------------------------------------------------

    Molecular point group: c1
  Charge       = 0
  Multiplicity = 1
  Basis Set: AUG-CC-PVTZ
    Blend: AUG-CC-PVTZ
  Basis Set: (AUG-CC-PVTZ AUX)
    Blend: AUG-CC-PVTZ-JKFIT

    Orbital Energies [Eh]
    ---------------------

    Doubly Occupied:

       1A    -20.561425     2A    -20.545568     3A    -11.341776
       4A    -11.339006     5A    -11.252168     6A    -11.250979
       7A    -11.242837     8A    -11.233070     9A     -1.386166
      10A     -1.347164    11A     -1.103275    12A     -1.040986
      13A     -0.986257    14A     -0.879542    15A     -0.778545
      16A     -0.743445    17A     -0.676034    18A     -0.668786
      19A     -0.653060    20A     -0.621876    21A     -0.615827
      22A     -0.609050    23A     -0.572729    24A     -0.557029
      25A     -0.521084    26A     -0.509017    27A     -0.507200
      28A     -0.488305    29A     -0.466669    30A     -0.431325
      31A     -0.417957

  @DF-RHF Final Energy:  -382.87722282187792

   => Energetics <=

    Nuclear Repulsion Energy =            353.0483033350158735
    One-Electron Energy =               -1221.1547364877426389
    Two-Electron Energy =                 485.2292103308489004
    Total Energy =                       -382.8772228218779219
  Basis Set: (AUG-CC-PVTZ AUX)
    Blend: AUG-CC-PVTZ-RI
    Molecular point group: c1

    Geometry (in Angstrom), charge = 0, multiplicity = 1:

       Center              X                  Y                   Z               Mass
    ------------   -----------------  -----------------  -----------------  -----------------
         O            1.929563367073     1.385673386903     0.009531139770    15.994914619570
         O           -3.135305632927     0.930505386903     0.009558139770    15.994914619570
         C           -0.474171632927    -0.021924613097     0.009529139770    12.000000000000
         C            0.855448367073    -0.762984613097     0.009559139770    12.000000000000
         C           -1.655660632927    -0.981590613097     0.009527139770    12.000000000000
         C            2.037965467073     0.114182786903    -0.081153560230    12.000000000000
         C            3.421377367073    -0.493252613097     0.009543139770    12.000000000000
         C           -2.992375632927    -0.285001613097     0.009538139770    12.000000000000
         H           -0.531558632927     0.637304386903     0.879940139770     1.007825032230
         H           -0.531532632927     0.637276386903    -0.860903860230     1.007825032230
         H            0.937293367073    -1.425882613097    -0.864010860230     1.007825032230
         H            0.937282367073    -1.425826613097     0.883173139770     1.007825032230
         H           -1.631316632927    -1.650007613097     0.883098139770     1.007825032230
         H           -1.631322632927    -1.649996613097    -0.864051860230     1.007825032230
         H            3.535641367073    -1.131994613097    -0.872318860230     1.007825032230
         H            3.535652367073    -1.131962613097     0.891427139770     1.007825032230
         H            4.194965367073     0.275405386903     0.009525139770     1.007825032230
         H           -3.878984632927    -0.953357613097     0.009526139770     1.007825032230

  Basis Set: AUG-CC-PVTZ
    Blend: AUG-CC-PVTZ
  Basis Set: (AUG-CC-PVTZ AUX)
    Blend: AUG-CC-PVTZ-JKFIT
	 Reference Energy          =    -382.8772228218779219 [Eh]
	 Singles Energy            =      -0.0000000000000000 [Eh]
	 Same-Spin Energy          =      -0.3812467344239837 [Eh]
	 Opposite-Spin Energy      =      -1.2585295304522759 [Eh]
	 Correlation Energy        =      -1.6397762648762595 [Eh]
	 Total Energy              =    -384.5169990867541969 [Eh]

	 ================> DF-SCS-MP2 Energies <==================
	-----------------------------------------------------------
	 SCS Same-Spin Scale       =       0.3333333333333333 [-]
	 SCS Opposite-Spin Scale   =       1.2000000000000000 [-]
	 SCS Same-Spin Energy      =      -0.1270822448079945 [Eh]
	 SCS Opposite-Spin Energy  =      -1.5102354365427311 [Eh]
	 SCS Correlation Energy    =      -1.6373176813507255 [Eh]
	 SCS Total Energy          =    -384.5145405032286590 [Eh]
	-----------------------------------------------------------

  Dipole Moment: [D]
     X:     1.0191      Y:    -5.3378      Z:    -0.0183     Total:     5.4343

*** Psi4 exiting successfully. Buy a developer a beer!
