                               Psi4 1.4a3.dev225

  ==> Input File <==

--------------------------------------------------------------------------
#psi4
#
memory 32 gb

molecule  {
0 1
  O        1.8881650     1.4432750    -0.0000100
  O       -3.1767040     0.9881070     0.0000170
  C       -0.5155700     0.0356770    -0.0000120
  C        0.8140500    -0.7053830     0.0000180
  C       -1.6970590    -0.9239890    -0.0000140
  C        2.0167370     0.2220750     0.0000010
  C        3.3799790    -0.4356510     0.0000020
  C       -3.0337740    -0.2274000    -0.0000030
  H       -0.5729570     0.6949060     0.8703990
  H       -0.5729310     0.6948780    -0.8704450
  H        0.8958950    -1.3682810    -0.8735520
  H        0.8943957    -1.3561696     0.8577432
  H       -1.6727150    -1.5924060     0.8735570
  H       -1.6727210    -1.5923950    -0.8735930
  H        3.4942430    -1.0743930    -0.8818600
  H        3.4942540    -1.0743610     0.8818860
  H        4.1535670     0.3330070    -0.0000160
  H       -3.9203830    -0.8957560    -0.0000150
units angstrom
no_reorient  #important for SAPT in psi4, default
symmetry c1  #important for SAPT in psi4, default
}

set PROPERTIES_ORIGIN ["COM"]
properties('MP2/aug-cc-pvtz', properties = ['dipole'])
--------------------------------------------------------------------------

    Molecular point group: c1
  Charge       = 0
  Multiplicity = 1
  Basis Set: AUG-CC-PVTZ
    Blend: AUG-CC-PVTZ
  Basis Set: (AUG-CC-PVTZ AUX)
    Blend: AUG-CC-PVTZ-JKFIT

    Orbital Energies [Eh]
    ---------------------

    Doubly Occupied:

       1A    -20.560491     2A    -20.548666     3A    -11.337979
       4A    -11.336908     5A    -11.250748     6A    -11.245518
       7A    -11.240435     8A    -11.230760     9A     -1.385268
      10A     -1.379302    11A     -1.098692    12A     -1.035995
      13A     -0.983597    14A     -0.873566    15A     -0.777201
      16A     -0.742757    17A     -0.675922    18A     -0.666441
      19A     -0.657318    20A     -0.625122    21A     -0.615135
      22A     -0.611693    23A     -0.571729    24A     -0.563648
      25A     -0.518983    26A     -0.508360    27A     -0.507170
      28A     -0.488239    29A     -0.485128    30A     -0.430955
      31A     -0.412414

  @DF-RHF Final Energy:  -382.89151145442275

   => Energetics <=

    Nuclear Repulsion Energy =            353.3758465227852525
    One-Electron Energy =               -1221.8024446213605643
    Two-Electron Energy =                 485.5350866441526136
    Total Energy =                       -382.8915114544227549
  Basis Set: (AUG-CC-PVTZ AUX)
    Blend: AUG-CC-PVTZ-RI
    Molecular point group: c1

    Geometry (in Angstrom), charge = 0, multiplicity = 1:

       Center              X                  Y                   Z               Mass
    ------------   -----------------  -----------------  -----------------  -----------------
         O            1.927454636437     1.380276286011     0.000130304113    15.994914619570
         O           -3.137414363563     0.925108286011     0.000157304113    15.994914619570
         C           -0.476280363563    -0.027321713989     0.000128304113    12.000000000000
         C            0.853339636437    -0.768381713989     0.000158304113    12.000000000000
         C           -1.657769363563    -0.986987713989     0.000126304113    12.000000000000
         C            2.056026636437     0.159076286011     0.000141304113    12.000000000000
         C            3.419268636437    -0.498649713989     0.000142304113    12.000000000000
         C           -2.994484363563    -0.290398713989     0.000137304113    12.000000000000
         H           -0.533667363563     0.631907286011     0.870539304113     1.007825032230
         H           -0.533641363563     0.631879286011    -0.870304695887     1.007825032230
         H            0.935184636437    -1.431279713989    -0.873411695887     1.007825032230
         H            0.933685336437    -1.419168313989     0.857883504113     1.007825032230
         H           -1.633425363563    -1.655404713989     0.873697304113     1.007825032230
         H           -1.633431363563    -1.655393713989    -0.873452695887     1.007825032230
         H            3.533532636437    -1.137391713989    -0.881719695887     1.007825032230
         H            3.533543636437    -1.137359713989     0.882026304113     1.007825032230
         H            4.192856636437     0.270008286011     0.000124304113     1.007825032230
         H           -3.881093363563    -0.958754713989     0.000125304113     1.007825032230

  Basis Set: AUG-CC-PVTZ
    Blend: AUG-CC-PVTZ
  Basis Set: (AUG-CC-PVTZ AUX)
    Blend: AUG-CC-PVTZ-JKFIT
	 Reference Energy          =    -382.8915114544227549 [Eh]
	 Singles Energy            =      -0.0000000000000000 [Eh]
	 Same-Spin Energy          =      -0.3794635383920317 [Eh]
	 Opposite-Spin Energy      =      -1.2545470728797050 [Eh]
	 Correlation Energy        =      -1.6340106112717367 [Eh]
	 Total Energy              =    -384.5255220656944743 [Eh]

	 ================> DF-SCS-MP2 Energies <==================
	-----------------------------------------------------------
	 SCS Same-Spin Scale       =       0.3333333333333333 [-]
	 SCS Opposite-Spin Scale   =       1.2000000000000000 [-]
	 SCS Same-Spin Energy      =      -0.1264878461306772 [Eh]
	 SCS Opposite-Spin Energy  =      -1.5054564874556460 [Eh]
	 SCS Correlation Energy    =      -1.6319443335863233 [Eh]
	 SCS Total Energy          =    -384.5234557880090733 [Eh]
	-----------------------------------------------------------

  Dipole Moment: [D]
     X:     1.1421      Y:    -5.1613      Z:     0.0056     Total:     5.2862

*** Psi4 exiting successfully. Buy a developer a beer!
