                               Psi4 1.4a3.dev225

  ==> Input File <==

--------------------------------------------------------------------------
#psi4
#
memory 32 gb

molecule  {
0 1
  O        1.8881650     1.4432750    -0.0000100
  O       -3.1767040     0.9881070     0.0000170
  C       -0.5155700     0.0356770    -0.0000120
  C        0.8140500    -0.7053830     0.0000180
  C       -1.6970590    -0.9239890    -0.0000140
  C        2.0167370     0.2220750     0.0000010
  C        3.3799790    -0.4356510     0.0000020
  C       -3.0337740    -0.2274000    -0.0000030
  H       -0.5729570     0.6949060     0.8703990
  H       -0.5729310     0.6948780    -0.8704450
  H        0.8958950    -1.3682810    -0.8735520
  H        0.8958840    -1.3682250     0.8736320
  H       -1.6727150    -1.5924060     0.8735570
  H       -1.6727210    -1.5923950    -0.8735930
  H        3.4942430    -1.0743930    -0.8818600
  H        3.4942540    -1.0743610     0.8818860
  H        4.1535670     0.3330070    -0.0000160
  H       -3.9044124    -0.8837168    -0.0000148
units angstrom
no_reorient  #important for SAPT in psi4, default
symmetry c1  #important for SAPT in psi4, default
}

set PROPERTIES_ORIGIN ["COM"]
properties('MP2/aug-cc-pvtz', properties = ['dipole'])
--------------------------------------------------------------------------

    Molecular point group: c1
  Charge       = 0
  Multiplicity = 1
  Basis Set: AUG-CC-PVTZ
    Blend: AUG-CC-PVTZ
  Basis Set: (AUG-CC-PVTZ AUX)
    Blend: AUG-CC-PVTZ-JKFIT

    Orbital Energies [Eh]
    ---------------------

    Doubly Occupied:

       1A    -20.560002     2A    -20.548696     3A    -11.336968
       4A    -11.335640     5A    -11.250364     6A    -11.247808
       7A    -11.240324     8A    -11.230780     9A     -1.384980
      10A     -1.379323    11A     -1.098052    12A     -1.035666
      13A     -0.983275    14A     -0.874256    15A     -0.779931
      16A     -0.742071    17A     -0.677146    18A     -0.665441
      19A     -0.656997    20A     -0.625285    21A     -0.614681
      22A     -0.611392    23A     -0.570729    24A     -0.563592
      25A     -0.518944    26A     -0.507757    27A     -0.506937
      28A     -0.488103    29A     -0.484488    30A     -0.431507
      31A     -0.412596

  @DF-RHF Final Energy:  -382.89166591573655

   => Energetics <=

    Nuclear Repulsion Energy =            353.3758339671628050
    One-Electron Energy =               -1221.8075376956915079
    Two-Electron Energy =                 485.5400378127920931
    Total Energy =                       -382.8916659157365530
  Basis Set: (AUG-CC-PVTZ AUX)
    Blend: AUG-CC-PVTZ-RI
    Molecular point group: c1

    Geometry (in Angstrom), charge = 0, multiplicity = 1:

       Center              X                  Y                   Z               Mass
    ------------   -----------------  -----------------  -----------------  -----------------
         O            1.927300381921     1.380276429143    -0.000010079875    15.994914619570
         O           -3.137568618079     0.925108429143     0.000016920125    15.994914619570
         C           -0.476434618079    -0.027321570857    -0.000012079875    12.000000000000
         C            0.853185381921    -0.768381570857     0.000017920125    12.000000000000
         C           -1.657923618079    -0.986987570857    -0.000014079875    12.000000000000
         C            2.055872381921     0.159076429143     0.000000920125    12.000000000000
         C            3.419114381921    -0.498649570857     0.000001920125    12.000000000000
         C           -2.994638618079    -0.290398570857    -0.000003079875    12.000000000000
         H           -0.533821618079     0.631907429143     0.870398920125     1.007825032230
         H           -0.533795618079     0.631879429143    -0.870445079875     1.007825032230
         H            0.935030381921    -1.431279570857    -0.873552079875     1.007825032230
         H            0.935019381921    -1.431223570857     0.873631920125     1.007825032230
         H           -1.633579618079    -1.655404570857     0.873556920125     1.007825032230
         H           -1.633585618079    -1.655393570857    -0.873593079875     1.007825032230
         H            3.533378381921    -1.137391570857    -0.881860079875     1.007825032230
         H            3.533389381921    -1.137359570857     0.881885920125     1.007825032230
         H            4.192702381921     0.270008429143    -0.000016079875     1.007825032230
         H           -3.865277018079    -0.946715370857    -0.000014879875     1.007825032230

  Basis Set: AUG-CC-PVTZ
    Blend: AUG-CC-PVTZ
  Basis Set: (AUG-CC-PVTZ AUX)
    Blend: AUG-CC-PVTZ-JKFIT
	 Reference Energy          =    -382.8916659157365530 [Eh]
	 Singles Energy            =      -0.0000000000000000 [Eh]
	 Same-Spin Energy          =      -0.3794052421017158 [Eh]
	 Opposite-Spin Energy      =      -1.2545135521148267 [Eh]
	 Correlation Energy        =      -1.6339187942165425 [Eh]
	 Total Energy              =    -384.5255847099530797 [Eh]

	 ================> DF-SCS-MP2 Energies <==================
	-----------------------------------------------------------
	 SCS Same-Spin Scale       =       0.3333333333333333 [-]
	 SCS Opposite-Spin Scale   =       1.2000000000000000 [-]
	 SCS Same-Spin Energy      =      -0.1264684140339053 [Eh]
	 SCS Opposite-Spin Energy  =      -1.5054162625377920 [Eh]
	 SCS Correlation Energy    =      -1.6318846765716972 [Eh]
	 SCS Total Energy          =    -384.5235505923082542 [Eh]
	-----------------------------------------------------------

  Dipole Moment: [D]
     X:     1.1146      Y:    -5.1710      Z:    -0.0000     Total:     5.2897

*** Psi4 exiting successfully. Buy a developer a beer!
