                               Psi4 1.4a3.dev225

  ==> Input File <==

--------------------------------------------------------------------------
#psi4
#
memory 32 gb

molecule  {
0 1
  O        1.8881650     1.4432750    -0.0000100
  O       -3.1767040     0.9881070     0.0000170
  C       -0.5155700     0.0356770    -0.0000120
  C        0.8140500    -0.7053830     0.0000180
  C       -1.6970590    -0.9239890    -0.0000140
  C        2.1751144     0.3442085    -0.0000012
  C        3.3799790    -0.4356510     0.0000020
  C       -3.0337740    -0.2274000    -0.0000030
  H       -0.5729570     0.6949060     0.8703990
  H       -0.5729310     0.6948780    -0.8704450
  H        0.8958950    -1.3682810    -0.8735520
  H        0.8958840    -1.3682250     0.8736320
  H       -1.6727150    -1.5924060     0.8735570
  H       -1.6727210    -1.5923950    -0.8735930
  H        3.4942430    -1.0743930    -0.8818600
  H        3.4942540    -1.0743610     0.8818860
  H        4.1535670     0.3330070    -0.0000160
  H       -3.9203830    -0.8957560    -0.0000150
units angstrom
no_reorient  #important for SAPT in psi4, default
symmetry c1  #important for SAPT in psi4, default
}

set PROPERTIES_ORIGIN ["COM"]
properties('MP2/aug-cc-pvtz', properties = ['dipole'])
--------------------------------------------------------------------------

    Molecular point group: c1
  Charge       = 0
  Multiplicity = 1
  Basis Set: AUG-CC-PVTZ
    Blend: AUG-CC-PVTZ
  Basis Set: (AUG-CC-PVTZ AUX)
    Blend: AUG-CC-PVTZ-JKFIT

    Orbital Energies [Eh]
    ---------------------

    Doubly Occupied:

       1A    -20.562488     2A    -20.555232     3A    -11.336389
       4A    -11.332470     5A    -11.245497     6A    -11.243329
       7A    -11.229695     8A    -11.220811     9A     -1.451620
      10A     -1.380164    11A     -1.081023    12A     -1.049322
      13A     -0.969705    14A     -0.848275    15A     -0.769729
      16A     -0.745041    17A     -0.678000    18A     -0.667717
      19A     -0.654679    20A     -0.648901    21A     -0.626270
      22A     -0.612812    23A     -0.571822    24A     -0.563322
      25A     -0.531361    26A     -0.516602    27A     -0.497535
      28A     -0.496434    29A     -0.475550    30A     -0.424659
      31A     -0.373310

  @DF-RHF Final Energy:  -382.85966724830138

   => Energetics <=

    Nuclear Repulsion Energy =            352.9854438890999404
    One-Electron Energy =               -1220.9706945756067853
    Two-Electron Energy =                 485.1255834382054104
    Total Energy =                       -382.8596672483013776
  Basis Set: (AUG-CC-PVTZ AUX)
    Blend: AUG-CC-PVTZ-RI
    Molecular point group: c1

    Geometry (in Angstrom), charge = 0, multiplicity = 1:

       Center              X                  Y                   Z               Mass
    ------------   -----------------  -----------------  -----------------  -----------------
         O            1.910780131586     1.367534314097    -0.000009846667    15.994914619570
         O           -3.154088868414     0.912366314097     0.000017153333    15.994914619570
         C           -0.492954868414    -0.040063685903    -0.000011846667    12.000000000000
         C            0.836665131586    -0.781123685903     0.000018153333    12.000000000000
         C           -1.674443868414    -0.999729685903    -0.000013846667    12.000000000000
         C            2.197729531586     0.268467814097    -0.000001046667    12.000000000000
         C            3.402594131586    -0.511391685903     0.000002153333    12.000000000000
         C           -3.011158868414    -0.303140685903    -0.000002846667    12.000000000000
         H           -0.550341868414     0.619165314097     0.870399153333     1.007825032230
         H           -0.550315868414     0.619137314097    -0.870444846667     1.007825032230
         H            0.918510131586    -1.444021685903    -0.873551846667     1.007825032230
         H            0.918499131586    -1.443965685903     0.873632153333     1.007825032230
         H           -1.650099868414    -1.668146685903     0.873557153333     1.007825032230
         H           -1.650105868414    -1.668135685903    -0.873592846667     1.007825032230
         H            3.516858131586    -1.150133685903    -0.881859846667     1.007825032230
         H            3.516869131586    -1.150101685903     0.881886153333     1.007825032230
         H            4.176182131586     0.257266314097    -0.000015846667     1.007825032230
         H           -3.897767868414    -0.971496685903    -0.000014846667     1.007825032230

  Basis Set: AUG-CC-PVTZ
    Blend: AUG-CC-PVTZ
  Basis Set: (AUG-CC-PVTZ AUX)
    Blend: AUG-CC-PVTZ-JKFIT
	 Reference Energy          =    -382.8596672483013776 [Eh]
	 Singles Energy            =      -0.0000000000000000 [Eh]
	 Same-Spin Energy          =      -0.3786432521415375 [Eh]
	 Opposite-Spin Energy      =      -1.2522200109765835 [Eh]
	 Correlation Energy        =      -1.6308632631181210 [Eh]
	 Total Energy              =    -384.4905305114194789 [Eh]

	 ================> DF-SCS-MP2 Energies <==================
	-----------------------------------------------------------
	 SCS Same-Spin Scale       =       0.3333333333333333 [-]
	 SCS Opposite-Spin Scale   =       1.2000000000000000 [-]
	 SCS Same-Spin Energy      =      -0.1262144173805125 [Eh]
	 SCS Opposite-Spin Energy  =      -1.5026640131719002 [Eh]
	 SCS Correlation Energy    =      -1.6288784305524127 [Eh]
	 SCS Total Energy          =    -384.4885456788537681 [Eh]
	-----------------------------------------------------------

  Dipole Moment: [D]
     X:     2.1918      Y:    -4.5249      Z:    -0.0000     Total:     5.0278

*** Psi4 exiting successfully. Buy a developer a beer!
