                               Psi4 1.4a3.dev225

  ==> Input File <==

--------------------------------------------------------------------------
#psi4
#
memory 32 gb

molecule  {
0 1
  O        1.8881650     1.4432750    -0.0000100
  O       -3.1767040     0.9881070     0.0000170
  C       -0.5155700     0.0356770    -0.0000120
  C        0.8140500    -0.7053830     0.0000180
  C       -1.6970590    -0.9239890    -0.0000140
  C        2.0376779     0.0231743     0.0000028
  C        3.3799790    -0.4356510     0.0000020
  C       -3.0337740    -0.2274000    -0.0000030
  H       -0.5729570     0.6949060     0.8703990
  H       -0.5729310     0.6948780    -0.8704450
  H        0.8958950    -1.3682810    -0.8735520
  H        0.8958840    -1.3682250     0.8736320
  H       -1.6727150    -1.5924060     0.8735570
  H       -1.6727210    -1.5923950    -0.8735930
  H        3.4942430    -1.0743930    -0.8818600
  H        3.4942540    -1.0743610     0.8818860
  H        4.1535670     0.3330070    -0.0000160
  H       -3.9203830    -0.8957560    -0.0000150
units angstrom
no_reorient  #important for SAPT in psi4, default
symmetry c1  #important for SAPT in psi4, default
}

set PROPERTIES_ORIGIN ["COM"]
properties('MP2/aug-cc-pvtz', properties = ['dipole'])
--------------------------------------------------------------------------

    Molecular point group: c1
  Charge       = 0
  Multiplicity = 1
  Basis Set: AUG-CC-PVTZ
    Blend: AUG-CC-PVTZ
  Basis Set: (AUG-CC-PVTZ AUX)
    Blend: AUG-CC-PVTZ-JKFIT

    Orbital Energies [Eh]
    ---------------------

    Doubly Occupied:

       1A    -20.562345     2A    -20.528655     3A    -11.352342
       4A    -11.340300     5A    -11.258051     6A    -11.254151
       7A    -11.250646     8A    -11.236310     9A     -1.387015
      10A     -1.271461    11A     -1.109775    12A     -1.063877
      13A     -1.004611    14A     -0.890973    15A     -0.780173
      16A     -0.746089    17A     -0.676915    18A     -0.674597
      19A     -0.652440    20A     -0.625705    21A     -0.622354
      22A     -0.614939    23A     -0.581895    24A     -0.540259
      25A     -0.527312    26A     -0.510863    27A     -0.489814
      28A     -0.487161    29A     -0.428569    30A     -0.419573
      31A     -0.416008

  @DF-RHF Final Energy:  -382.81970226783551

   => Energetics <=

    Nuclear Repulsion Energy =            352.3668790137752467
    One-Electron Energy =               -1219.7628102717683305
    Two-Electron Energy =                 484.5762289901575741
    Total Energy =                       -382.8197022678355097
  Basis Set: (AUG-CC-PVTZ AUX)
    Blend: AUG-CC-PVTZ-RI
    Molecular point group: c1

    Geometry (in Angstrom), charge = 0, multiplicity = 1:

       Center              X                  Y                   Z               Mass
    ------------   -----------------  -----------------  -----------------  -----------------
         O            1.925238497207     1.401307218969    -0.000010267469    15.994914619570
         O           -3.139630502793     0.946139218969     0.000016732531    15.994914619570
         C           -0.478496502793    -0.006290781031    -0.000012267469    12.000000000000
         C            0.851123497207    -0.747350781031     0.000017732531    12.000000000000
         C           -1.659985502793    -0.965956781031    -0.000014267469    12.000000000000
         C            2.074751397207    -0.018793481031     0.000002532531    12.000000000000
         C            3.417052497207    -0.477618781031     0.000001732531    12.000000000000
         C           -2.996700502793    -0.269367781031    -0.000003267469    12.000000000000
         H           -0.535883502793     0.652938218969     0.870398732531     1.007825032230
         H           -0.535857502793     0.652910218969    -0.870445267469     1.007825032230
         H            0.932968497207    -1.410248781031    -0.873552267469     1.007825032230
         H            0.932957497207    -1.410192781031     0.873631732531     1.007825032230
         H           -1.635641502793    -1.634373781031     0.873556732531     1.007825032230
         H           -1.635647502793    -1.634362781031    -0.873593267469     1.007825032230
         H            3.531316497207    -1.116360781031    -0.881860267469     1.007825032230
         H            3.531327497207    -1.116328781031     0.881885732531     1.007825032230
         H            4.190640497207     0.291039218969    -0.000016267469     1.007825032230
         H           -3.883309502793    -0.937723781031    -0.000015267469     1.007825032230

  Basis Set: AUG-CC-PVTZ
    Blend: AUG-CC-PVTZ
  Basis Set: (AUG-CC-PVTZ AUX)
    Blend: AUG-CC-PVTZ-JKFIT
	 Reference Energy          =    -382.8197022678355097 [Eh]
	 Singles Energy            =      -0.0000000000000000 [Eh]
	 Same-Spin Energy          =      -0.3870283812188661 [Eh]
	 Opposite-Spin Energy      =      -1.2691411109929436 [Eh]
	 Correlation Energy        =      -1.6561694922118098 [Eh]
	 Total Energy              =    -384.4758717600473119 [Eh]

	 ================> DF-SCS-MP2 Energies <==================
	-----------------------------------------------------------
	 SCS Same-Spin Scale       =       0.3333333333333333 [-]
	 SCS Opposite-Spin Scale   =       1.2000000000000000 [-]
	 SCS Same-Spin Energy      =      -0.1290094604062887 [Eh]
	 SCS Opposite-Spin Energy  =      -1.5229693331915322 [Eh]
	 SCS Correlation Energy    =      -1.6519787935978207 [Eh]
	 SCS Total Energy          =    -384.4716810614333440 [Eh]
	-----------------------------------------------------------

  Dipole Moment: [D]
     X:     1.1469      Y:    -5.7733      Z:    -0.0000     Total:     5.8861

*** Psi4 exiting successfully. Buy a developer a beer!
