                               Psi4 1.4a3.dev225

  ==> Input File <==

--------------------------------------------------------------------------
#psi4
#
memory 32 gb

molecule  {
0 1
  O        1.8881650     1.4432750    -0.0000100
  O       -3.1767040     0.9881070     0.0000170
  C       -0.5155700     0.0356770    -0.0000120
  C        0.8140500    -0.7053830     0.0000180
  C       -1.6970590    -0.9239890    -0.0000140
  C        2.0435485     0.2691612     0.0906967
  C        3.3799790    -0.4356510     0.0000020
  C       -3.0337740    -0.2274000    -0.0000030
  H       -0.5729570     0.6949060     0.8703990
  H       -0.5729310     0.6948780    -0.8704450
  H        0.8958950    -1.3682810    -0.8735520
  H        0.8958840    -1.3682250     0.8736320
  H       -1.6727150    -1.5924060     0.8735570
  H       -1.6727210    -1.5923950    -0.8735930
  H        3.4942430    -1.0743930    -0.8818600
  H        3.4942540    -1.0743610     0.8818860
  H        4.1535670     0.3330070    -0.0000160
  H       -3.9203830    -0.8957560    -0.0000150
units angstrom
no_reorient  #important for SAPT in psi4, default
symmetry c1  #important for SAPT in psi4, default
}

set PROPERTIES_ORIGIN ["COM"]
properties('MP2/aug-cc-pvtz', properties = ['dipole'])
--------------------------------------------------------------------------

    Molecular point group: c1
  Charge       = 0
  Multiplicity = 1
  Basis Set: AUG-CC-PVTZ
    Blend: AUG-CC-PVTZ
  Basis Set: (AUG-CC-PVTZ AUX)
    Blend: AUG-CC-PVTZ-JKFIT

    Orbital Energies [Eh]
    ---------------------

    Doubly Occupied:

       1A    -20.559399     2A    -20.553597     3A    -11.336791
       4A    -11.334998     5A    -11.249078     6A    -11.244596
       7A    -11.239553     8A    -11.228579     9A     -1.408564
      10A     -1.384217    11A     -1.092993    12A     -1.030896
      13A     -0.979667    14A     -0.866130    15A     -0.775468
      16A     -0.741784    17A     -0.675745    18A     -0.663076
      19A     -0.659805    20A     -0.631393    21A     -0.615600
      22A     -0.611193    23A     -0.568959    24A     -0.566659
      25A     -0.517968    26A     -0.511050    27A     -0.505686
      28A     -0.498541    29A     -0.483938    30A     -0.429697
      31A     -0.403091

  @DF-RHF Final Energy:  -382.88769818481984

   => Energetics <=

    Nuclear Repulsion Energy =            353.2702722842962544
    One-Electron Energy =               -1221.5785234747297636
    Two-Electron Energy =                 485.4205530056137263
    Total Energy =                       -382.8876981848198398
  Basis Set: (AUG-CC-PVTZ AUX)
    Blend: AUG-CC-PVTZ-RI
    Molecular point group: c1

    Geometry (in Angstrom), charge = 0, multiplicity = 1:

       Center              X                  Y                   Z               Mass
    ------------   -----------------  -----------------  -----------------  -----------------
         O            1.924620908130     1.375429315077    -0.009551295986    15.994914619570
         O           -3.140248091870     0.920261315077    -0.009524295986    15.994914619570
         C           -0.479114091870    -0.032168684923    -0.009553295986    12.000000000000
         C            0.850505908130    -0.773228684923    -0.009523295986    12.000000000000
         C           -1.660603091870    -0.991834684923    -0.009555295986    12.000000000000
         C            2.080004408130     0.201315515077     0.081155404014    12.000000000000
         C            3.416434908130    -0.503496684923    -0.009539295986    12.000000000000
         C           -2.997318091870    -0.295245684923    -0.009544295986    12.000000000000
         H           -0.536501091870     0.627060315077     0.860857704014     1.007825032230
         H           -0.536475091870     0.627032315077    -0.879986295986     1.007825032230
         H            0.932350908130    -1.436126684923    -0.883093295986     1.007825032230
         H            0.932339908130    -1.436070684923     0.864090704014     1.007825032230
         H           -1.636259091870    -1.660251684923     0.864015704014     1.007825032230
         H           -1.636265091870    -1.660240684923    -0.883134295986     1.007825032230
         H            3.530698908130    -1.142238684923    -0.891401295986     1.007825032230
         H            3.530709908130    -1.142206684923     0.872344704014     1.007825032230
         H            4.190022908130     0.265161315077    -0.009557295986     1.007825032230
         H           -3.883927091870    -0.963601684923    -0.009556295986     1.007825032230

  Basis Set: AUG-CC-PVTZ
    Blend: AUG-CC-PVTZ
  Basis Set: (AUG-CC-PVTZ AUX)
    Blend: AUG-CC-PVTZ-JKFIT
	 Reference Energy          =    -382.8876981848198398 [Eh]
	 Singles Energy            =      -0.0000000000000000 [Eh]
	 Same-Spin Energy          =      -0.3785733699972186 [Eh]
	 Opposite-Spin Energy      =      -1.2529644819129557 [Eh]
	 Correlation Energy        =      -1.6315378519101744 [Eh]
	 Total Energy              =    -384.5192360367300353 [Eh]

	 ================> DF-SCS-MP2 Energies <==================
	-----------------------------------------------------------
	 SCS Same-Spin Scale       =       0.3333333333333333 [-]
	 SCS Opposite-Spin Scale   =       1.2000000000000000 [-]
	 SCS Same-Spin Energy      =      -0.1261911233324062 [Eh]
	 SCS Opposite-Spin Energy  =      -1.5035573782955469 [Eh]
	 SCS Correlation Energy    =      -1.6297485016279532 [Eh]
	 SCS Total Energy          =    -384.5174466864477836 [Eh]
	-----------------------------------------------------------

  Dipole Moment: [D]
     X:     1.3032      Y:    -4.9261      Z:     0.0376     Total:     5.0957

*** Psi4 exiting successfully. Buy a developer a beer!
