                               Psi4 1.4a3.dev225

  ==> Input File <==

--------------------------------------------------------------------------
#psi4
#
memory 32 gb

molecule  {
0 1
  O        1.8881650     1.4432750    -0.0000100
  O       -3.1767040     0.9881070     0.0000170
  C       -0.5155700     0.0356770    -0.0000120
  C        0.8140500    -0.7053830     0.0000180
  C       -1.6970590    -0.9239890    -0.0000140
  C        2.0167370     0.2220750     0.0000010
  C        3.3799790    -0.4356510     0.0000020
  C       -3.0337740    -0.2274000    -0.0000030
  H       -0.5729570     0.6949060     0.8703990
  H       -0.5729310     0.6948780    -0.8704450
  H        0.8958950    -1.3682810    -0.8735520
  H        0.8958840    -1.3682250     0.8736320
  H       -1.6727150    -1.5924060     0.8735570
  H       -1.6727210    -1.5923950    -0.8735930
  H        3.4942430    -1.0743930    -0.8818600
  H        3.4942540    -1.0743610     0.8818860
  H        4.1393797     0.3189101    -0.0000157
  H       -3.9203830    -0.8957560    -0.0000150
units angstrom
no_reorient  #important for SAPT in psi4, default
symmetry c1  #important for SAPT in psi4, default
}

set PROPERTIES_ORIGIN ["COM"]
properties('MP2/aug-cc-pvtz', properties = ['dipole'])
--------------------------------------------------------------------------

    Molecular point group: c1
  Charge       = 0
  Multiplicity = 1
  Basis Set: AUG-CC-PVTZ
    Blend: AUG-CC-PVTZ
  Basis Set: (AUG-CC-PVTZ AUX)
    Blend: AUG-CC-PVTZ-JKFIT

    Orbital Energies [Eh]
    ---------------------

    Doubly Occupied:

       1A    -20.560482     2A    -20.548795     3A    -11.337968
       4A    -11.336965     5A    -11.250723     6A    -11.247801
       7A    -11.238153     8A    -11.230893     9A     -1.385265
      10A     -1.379440    11A     -1.098150    12A     -1.036280
      13A     -0.984050    14A     -0.873474    15A     -0.777135
      16A     -0.742342    17A     -0.675887    18A     -0.665528
      19A     -0.657116    20A     -0.625547    21A     -0.614709
      22A     -0.612802    23A     -0.570746    24A     -0.565659
      25A     -0.519861    26A     -0.508008    27A     -0.507001
      28A     -0.488271    29A     -0.484590    30A     -0.430970
      31A     -0.412415

  @DF-RHF Final Energy:  -382.89150031260880

   => Energetics <=

    Nuclear Repulsion Energy =            353.3667603682258687
    One-Electron Energy =               -1221.7824663430621968
    Two-Electron Energy =                 485.5242056622275300
    Total Energy =                       -382.8915003126087981
  Basis Set: (AUG-CC-PVTZ AUX)
    Blend: AUG-CC-PVTZ-RI
    Molecular point group: c1

    Geometry (in Angstrom), charge = 0, multiplicity = 1:

       Center              X                  Y                   Z               Mass
    ------------   -----------------  -----------------  -----------------  -----------------
         O            1.927566835837     1.380507349273    -0.000010080759    15.994914619570
         O           -3.137302164163     0.925339349273     0.000016919241    15.994914619570
         C           -0.476168164163    -0.027090650727    -0.000012080759    12.000000000000
         C            0.853451835837    -0.768150650727     0.000017919241    12.000000000000
         C           -1.657657164163    -0.986756650727    -0.000014080759    12.000000000000
         C            2.056138835837     0.159307349273     0.000000919241    12.000000000000
         C            3.419380835837    -0.498418650727     0.000001919241    12.000000000000
         C           -2.994372164163    -0.290167650727    -0.000003080759    12.000000000000
         H           -0.533555164163     0.632138349273     0.870398919241     1.007825032230
         H           -0.533529164163     0.632110349273    -0.870445080759     1.007825032230
         H            0.935296835837    -1.431048650727    -0.873552080759     1.007825032230
         H            0.935285835837    -1.430992650727     0.873631919241     1.007825032230
         H           -1.633313164163    -1.655173650727     0.873556919241     1.007825032230
         H           -1.633319164163    -1.655162650727    -0.873593080759     1.007825032230
         H            3.533644835837    -1.137160650727    -0.881860080759     1.007825032230
         H            3.533655835837    -1.137128650727     0.881885919241     1.007825032230
         H            4.178781535837     0.256142449273    -0.000015780759     1.007825032230
         H           -3.880981164163    -0.958523650727    -0.000015080759     1.007825032230

  Basis Set: AUG-CC-PVTZ
    Blend: AUG-CC-PVTZ
  Basis Set: (AUG-CC-PVTZ AUX)
    Blend: AUG-CC-PVTZ-JKFIT
	 Reference Energy          =    -382.8915003126087981 [Eh]
	 Singles Energy            =      -0.0000000000000000 [Eh]
	 Same-Spin Energy          =      -0.3794661972501732 [Eh]
	 Opposite-Spin Energy      =      -1.2545407957204442 [Eh]
	 Correlation Energy        =      -1.6340069929706174 [Eh]
	 Total Energy              =    -384.5255073055794242 [Eh]

	 ================> DF-SCS-MP2 Energies <==================
	-----------------------------------------------------------
	 SCS Same-Spin Scale       =       0.3333333333333333 [-]
	 SCS Opposite-Spin Scale   =       1.2000000000000000 [-]
	 SCS Same-Spin Energy      =      -0.1264887324167244 [Eh]
	 SCS Opposite-Spin Energy  =      -1.5054489548645329 [Eh]
	 SCS Correlation Energy    =      -1.6319376872812572 [Eh]
	 SCS Total Energy          =    -384.5234379998900636 [Eh]
	-----------------------------------------------------------

  Dipole Moment: [D]
     X:     1.1461      Y:    -5.1537      Z:    -0.0000     Total:     5.2796

*** Psi4 exiting successfully. Buy a developer a beer!
