                               Psi4 1.4a3.dev225

  ==> Input File <==

--------------------------------------------------------------------------
#psi4
#
memory 32 gb

molecule  {
0 1
  O        1.8881650     1.4432750    -0.0000100
  O       -3.1767040     0.9881070     0.0000170
  C       -0.5155700     0.0356770    -0.0000120
  C        0.8577246    -0.7297249     0.0000190
  C       -1.6970590    -0.9239890    -0.0000140
  C        2.0167370     0.2220750     0.0000010
  C        3.3799790    -0.4356510     0.0000020
  C       -3.0337740    -0.2274000    -0.0000030
  H       -0.5729570     0.6949060     0.8703990
  H       -0.5729310     0.6948780    -0.8704450
  H        0.8958950    -1.3682810    -0.8735520
  H        0.8958840    -1.3682250     0.8736320
  H       -1.6727150    -1.5924060     0.8735570
  H       -1.6727210    -1.5923950    -0.8735930
  H        3.4942430    -1.0743930    -0.8818600
  H        3.4942540    -1.0743610     0.8818860
  H        4.1535670     0.3330070    -0.0000160
  H       -3.9203830    -0.8957560    -0.0000150
units angstrom
no_reorient  #important for SAPT in psi4, default
symmetry c1  #important for SAPT in psi4, default
}

set PROPERTIES_ORIGIN ["COM"]
properties('MP2/aug-cc-pvtz', properties = ['dipole'])
--------------------------------------------------------------------------

    Molecular point group: c1
  Charge       = 0
  Multiplicity = 1
  Basis Set: AUG-CC-PVTZ
    Blend: AUG-CC-PVTZ
  Basis Set: (AUG-CC-PVTZ AUX)
    Blend: AUG-CC-PVTZ-JKFIT

    Orbital Energies [Eh]
    ---------------------

    Doubly Occupied:

       1A    -20.560431     2A    -20.549942     3A    -11.337933
       4A    -11.336732     5A    -11.250535     6A    -11.246399
       7A    -11.238803     8A    -11.233254     9A     -1.385209
      10A     -1.379988    11A     -1.094280    12A     -1.038529
      13A     -0.980547    14A     -0.874195    15A     -0.776004
      16A     -0.744554    17A     -0.675060    18A     -0.666016
      19A     -0.657842    20A     -0.625039    21A     -0.616751
      22A     -0.613019    23A     -0.572140    24A     -0.563391
      25A     -0.514939    26A     -0.509963    27A     -0.498596
      28A     -0.488341    29A     -0.487902    30A     -0.430891
      31A     -0.413787

  @DF-RHF Final Energy:  -382.88929860849169

   => Energetics <=

    Nuclear Repulsion Energy =            352.9433547362677359
    One-Electron Energy =               -1220.9432838702941808
    Two-Electron Energy =                 485.1106305255347024
    Total Energy =                       -382.8892986084916856
  Basis Set: (AUG-CC-PVTZ AUX)
    Blend: AUG-CC-PVTZ-RI
    Molecular point group: c1

    Geometry (in Angstrom), charge = 0, multiplicity = 1:

       Center              X                  Y                   Z               Mass
    ------------   -----------------  -----------------  -----------------  -----------------
         O            1.922846904388     1.382943575011    -0.000010183308    15.994914619570
         O           -3.142022095612     0.927775575011     0.000016816692    15.994914619570
         C           -0.480888095612    -0.024654424989    -0.000012183308    12.000000000000
         C            0.892406504388    -0.790056324989     0.000018816692    12.000000000000
         C           -1.662377095612    -0.984320424989    -0.000014183308    12.000000000000
         C            2.051418904388     0.161743575011     0.000000816692    12.000000000000
         C            3.414660904388    -0.495982424989     0.000001816692    12.000000000000
         C           -2.999092095612    -0.287731424989    -0.000003183308    12.000000000000
         H           -0.538275095612     0.634574575011     0.870398816692     1.007825032230
         H           -0.538249095612     0.634546575011    -0.870445183308     1.007825032230
         H            0.930576904388    -1.428612424989    -0.873552183308     1.007825032230
         H            0.930565904388    -1.428556424989     0.873631816692     1.007825032230
         H           -1.638033095612    -1.652737424989     0.873556816692     1.007825032230
         H           -1.638039095612    -1.652726424989    -0.873593183308     1.007825032230
         H            3.528924904388    -1.134724424989    -0.881860183308     1.007825032230
         H            3.528935904388    -1.134692424989     0.881885816692     1.007825032230
         H            4.188248904388     0.272675575011    -0.000016183308     1.007825032230
         H           -3.885701095612    -0.956087424989    -0.000015183308     1.007825032230

  Basis Set: AUG-CC-PVTZ
    Blend: AUG-CC-PVTZ
  Basis Set: (AUG-CC-PVTZ AUX)
    Blend: AUG-CC-PVTZ-JKFIT
	 Reference Energy          =    -382.8892986084916856 [Eh]
	 Singles Energy            =      -0.0000000000000000 [Eh]
	 Same-Spin Energy          =      -0.3793437343775808 [Eh]
	 Opposite-Spin Energy      =      -1.2547028803512270 [Eh]
	 Correlation Energy        =      -1.6340466147288080 [Eh]
	 Total Energy              =    -384.5233452232204741 [Eh]

	 ================> DF-SCS-MP2 Energies <==================
	-----------------------------------------------------------
	 SCS Same-Spin Scale       =       0.3333333333333333 [-]
	 SCS Opposite-Spin Scale   =       1.2000000000000000 [-]
	 SCS Same-Spin Energy      =      -0.1264479114591936 [Eh]
	 SCS Opposite-Spin Energy  =      -1.5056434564214725 [Eh]
	 SCS Correlation Energy    =      -1.6320913678806661 [Eh]
	 SCS Total Energy          =    -384.5213899763723475 [Eh]
	-----------------------------------------------------------

  Dipole Moment: [D]
     X:     1.1153      Y:    -5.1659      Z:    -0.0000     Total:     5.2850

*** Psi4 exiting successfully. Buy a developer a beer!
