                               Psi4 1.4a3.dev225

  ==> Input File <==

--------------------------------------------------------------------------
#psi4
#
memory 32 gb

molecule  {
0 1
  O        1.8881650     1.4432750    -0.0000100
  O       -3.1767040     0.9881070     0.0000170
  C       -0.5155700     0.0356770    -0.0000120
  C        0.8140500    -0.7053830     0.0000180
  C       -1.6970590    -0.9239890    -0.0000140
  C        2.0167370     0.2220750     0.0000010
  C        3.3799790    -0.4356510     0.0000020
  C       -3.0337740    -0.2274000    -0.0000030
  H       -0.5729570     0.6949060     0.8703990
  H       -0.5729310     0.6948780    -0.8704450
  H        0.8958950    -1.3682810    -0.8735520
  H        0.8958840    -1.3682250     0.8736320
  H       -1.6727150    -1.5924060     0.8735570
  H       -1.6727210    -1.5923950    -0.8735930
  H        3.4942430    -1.0743930    -0.8818600
  H        3.4942540    -1.0743610     0.8818860
  H        4.1535670     0.3330070    -0.0000160
  H       -3.9603094    -0.9258539    -0.0000155
units angstrom
no_reorient  #important for SAPT in psi4, default
symmetry c1  #important for SAPT in psi4, default
}

set PROPERTIES_ORIGIN ["COM"]
properties('MP2/aug-cc-pvtz', properties = ['dipole'])
--------------------------------------------------------------------------

    Molecular point group: c1
  Charge       = 0
  Multiplicity = 1
  Basis Set: AUG-CC-PVTZ
    Blend: AUG-CC-PVTZ
  Basis Set: (AUG-CC-PVTZ AUX)
    Blend: AUG-CC-PVTZ-JKFIT

    Orbital Energies [Eh]
    ---------------------

    Doubly Occupied:

       1A    -20.561970     2A    -20.549073     3A    -11.343818
       4A    -11.337380     5A    -11.251897     6A    -11.248360
       7A    -11.240621     8A    -11.231525     9A     -1.386254
      10A     -1.379703    11A     -1.098699    12A     -1.035899
      13A     -0.982952    14A     -0.870916    15A     -0.770971
      16A     -0.741756    17A     -0.672493    18A     -0.666086
      19A     -0.657444    20A     -0.624681    21A     -0.615197
      22A     -0.612009    23A     -0.571253    24A     -0.563598
      25A     -0.519340    26A     -0.508917    27A     -0.507468
      28A     -0.488853    29A     -0.485020    30A     -0.429771
      31A     -0.412197

  @DF-RHF Final Energy:  -382.88907759256244

   => Energetics <=

    Nuclear Repulsion Energy =            353.0481165532759746
    One-Electron Energy =               -1221.1421447661566617
    Two-Electron Energy =                 485.2049506203181863
    Total Energy =                       -382.8890775925624439
  Basis Set: (AUG-CC-PVTZ AUX)
    Blend: AUG-CC-PVTZ-RI
    Molecular point group: c1

    Geometry (in Angstrom), charge = 0, multiplicity = 1:

       Center              X                  Y                   Z               Mass
    ------------   -----------------  -----------------  -----------------  -----------------
         O            1.927794248356     1.380648722815    -0.000010073690    15.994914619570
         O           -3.137074751644     0.925480722815     0.000016926310    15.994914619570
         C           -0.475940751644    -0.026949277185    -0.000012073690    12.000000000000
         C            0.853679248356    -0.768009277185     0.000017926310    12.000000000000
         C           -1.657429751644    -0.986615277185    -0.000014073690    12.000000000000
         C            2.056366248356     0.159448722815     0.000000926310    12.000000000000
         C            3.419608248356    -0.498277277185     0.000001926310    12.000000000000
         C           -2.994144751644    -0.290026277185    -0.000003073690    12.000000000000
         H           -0.533327751644     0.632279722815     0.870398926310     1.007825032230
         H           -0.533301751644     0.632251722815    -0.870445073690     1.007825032230
         H            0.935524248356    -1.430907277185    -0.873552073690     1.007825032230
         H            0.935513248356    -1.430851277185     0.873631926310     1.007825032230
         H           -1.633085751644    -1.655032277185     0.873556926310     1.007825032230
         H           -1.633091751644    -1.655021277185    -0.873593073690     1.007825032230
         H            3.533872248356    -1.137019277185    -0.881860073690     1.007825032230
         H            3.533883248356    -1.136987277185     0.881885926310     1.007825032230
         H            4.193196248356     0.270380722815    -0.000016073690     1.007825032230
         H           -3.920680151644    -0.988480177185    -0.000015573690     1.007825032230

  Basis Set: AUG-CC-PVTZ
    Blend: AUG-CC-PVTZ
  Basis Set: (AUG-CC-PVTZ AUX)
    Blend: AUG-CC-PVTZ-JKFIT
	 Reference Energy          =    -382.8890775925624439 [Eh]
	 Singles Energy            =      -0.0000000000000000 [Eh]
	 Same-Spin Energy          =      -0.3796646753587555 [Eh]
	 Opposite-Spin Energy      =      -1.2551389713074301 [Eh]
	 Correlation Energy        =      -1.6348036466661857 [Eh]
	 Total Energy              =    -384.5238812392286150 [Eh]

	 ================> DF-SCS-MP2 Energies <==================
	-----------------------------------------------------------
	 SCS Same-Spin Scale       =       0.3333333333333333 [-]
	 SCS Opposite-Spin Scale   =       1.2000000000000000 [-]
	 SCS Same-Spin Energy      =      -0.1265548917862518 [Eh]
	 SCS Opposite-Spin Energy  =      -1.5061667655689162 [Eh]
	 SCS Correlation Energy    =      -1.6327216573551679 [Eh]
	 SCS Total Energy          =    -384.5217992499175921 [Eh]
	-----------------------------------------------------------

  Dipole Moment: [D]
     X:     1.2029      Y:    -5.1088      Z:    -0.0000     Total:     5.2485

*** Psi4 exiting successfully. Buy a developer a beer!
