                               Psi4 1.4a3.dev225

  ==> Input File <==

--------------------------------------------------------------------------
#psi4
#
memory 32 gb

molecule  {
0 1
  O        1.8881650     1.4432750    -0.0000100
  O       -3.1767040     0.9881070     0.0000170
  C       -0.5155700     0.0356770    -0.0000120
  C        0.8140500    -0.7053830     0.0000180
  C       -1.6970590    -0.9239890    -0.0000140
  C        2.0563314     0.2526084     0.0000004
  C        3.3799790    -0.4356510     0.0000020
  C       -3.0337740    -0.2274000    -0.0000030
  H       -0.5729570     0.6949060     0.8703990
  H       -0.5729310     0.6948780    -0.8704450
  H        0.8958950    -1.3682810    -0.8735520
  H        0.8958840    -1.3682250     0.8736320
  H       -1.6727150    -1.5924060     0.8735570
  H       -1.6727210    -1.5923950    -0.8735930
  H        3.4942430    -1.0743930    -0.8818600
  H        3.4942540    -1.0743610     0.8818860
  H        4.1535670     0.3330070    -0.0000160
  H       -3.9203830    -0.8957560    -0.0000150
units angstrom
no_reorient  #important for SAPT in psi4, default
symmetry c1  #important for SAPT in psi4, default
}

set PROPERTIES_ORIGIN ["COM"]
properties('MP2/aug-cc-pvtz', properties = ['dipole'])
--------------------------------------------------------------------------

    Molecular point group: c1
  Charge       = 0
  Multiplicity = 1
  Basis Set: AUG-CC-PVTZ
    Blend: AUG-CC-PVTZ
  Basis Set: (AUG-CC-PVTZ AUX)
    Blend: AUG-CC-PVTZ-JKFIT

    Orbital Energies [Eh]
    ---------------------

    Doubly Occupied:

       1A    -20.559375     2A    -20.551301     3A    -11.336823
       4A    -11.335456     5A    -11.249176     6A    -11.245072
       7A    -11.240575     8A    -11.228677     9A     -1.397332
      10A     -1.384183    11A     -1.093205    12A     -1.035962
      13A     -0.981629    14A     -0.866872    15A     -0.775444
      16A     -0.741479    17A     -0.675482    18A     -0.662342
      19A     -0.659327    20A     -0.629974    21A     -0.616156
      22A     -0.612788    23A     -0.569900    24A     -0.565711
      25A     -0.517733    26A     -0.507995    27A     -0.505282
      28A     -0.495679    29A     -0.483811    30A     -0.429970
      31A     -0.406693

  @DF-RHF Final Energy:  -382.89136243913595

   => Energetics <=

    Nuclear Repulsion Energy =            353.1912385104425880
    One-Electron Energy =               -1221.4423983000770022
    Two-Electron Energy =                 485.3597973504984111
    Total Energy =                       -382.8913624391359463
  Basis Set: (AUG-CC-PVTZ AUX)
    Blend: AUG-CC-PVTZ-RI
    Molecular point group: c1

    Geometry (in Angstrom), charge = 0, multiplicity = 1:

       Center              X                  Y                   Z               Mass
    ------------   -----------------  -----------------  -----------------  -----------------
         O            1.923276142788     1.377170675156    -0.000010014988    15.994914619570
         O           -3.141592857212     0.922002675156     0.000016985012    15.994914619570
         C           -0.480458857212    -0.030427324844    -0.000012014988    12.000000000000
         C            0.849161142788    -0.771487324844     0.000017985012    12.000000000000
         C           -1.661947857212    -0.990093324844    -0.000014014988    12.000000000000
         C            2.091442542788     0.186504075156     0.000000385012    12.000000000000
         C            3.415090142788    -0.501755324844     0.000001985012    12.000000000000
         C           -2.998662857212    -0.293504324844    -0.000003014988    12.000000000000
         H           -0.537845857212     0.628801675156     0.870398985012     1.007825032230
         H           -0.537819857212     0.628773675156    -0.870445014988     1.007825032230
         H            0.931006142788    -1.434385324844    -0.873552014988     1.007825032230
         H            0.930995142788    -1.434329324844     0.873631985012     1.007825032230
         H           -1.637603857212    -1.658510324844     0.873556985012     1.007825032230
         H           -1.637609857212    -1.658499324844    -0.873593014988     1.007825032230
         H            3.529354142788    -1.140497324844    -0.881860014988     1.007825032230
         H            3.529365142788    -1.140465324844     0.881885985012     1.007825032230
         H            4.188678142788     0.266902675156    -0.000016014988     1.007825032230
         H           -3.885271857212    -0.961860324844    -0.000015014988     1.007825032230

  Basis Set: AUG-CC-PVTZ
    Blend: AUG-CC-PVTZ
  Basis Set: (AUG-CC-PVTZ AUX)
    Blend: AUG-CC-PVTZ-JKFIT
	 Reference Energy          =    -382.8913624391359463 [Eh]
	 Singles Energy            =      -0.0000000000000000 [Eh]
	 Same-Spin Energy          =      -0.3788686757403821 [Eh]
	 Opposite-Spin Energy      =      -1.2533253098484414 [Eh]
	 Correlation Energy        =      -1.6321939855888234 [Eh]
	 Total Energy              =    -384.5235564247247453 [Eh]

	 ================> DF-SCS-MP2 Energies <==================
	-----------------------------------------------------------
	 SCS Same-Spin Scale       =       0.3333333333333333 [-]
	 SCS Opposite-Spin Scale   =       1.2000000000000000 [-]
	 SCS Same-Spin Energy      =      -0.1262895585801274 [Eh]
	 SCS Opposite-Spin Energy  =      -1.5039903718181296 [Eh]
	 SCS Correlation Energy    =      -1.6302799303982569 [Eh]
	 SCS Total Energy          =    -384.5216423695342201 [Eh]
	-----------------------------------------------------------

  Dipole Moment: [D]
     X:     1.3686      Y:    -5.0207      Z:    -0.0000     Total:     5.2039

*** Psi4 exiting successfully. Buy a developer a beer!
