                               Psi4 1.4a3.dev225

  ==> Input File <==

--------------------------------------------------------------------------
#psi4
#
memory 32 gb

molecule  {
0 1
  O        1.8881650     1.4432750    -0.0000100
  O       -3.1767040     0.9881070     0.0000170
  C       -0.5155700     0.0356770    -0.0000120
  C        0.8270165    -0.6802117     0.0449764
  C       -1.6970590    -0.9239890    -0.0000140
  C        2.0167370     0.2220750     0.0000010
  C        3.3799790    -0.4356510     0.0000020
  C       -3.0337740    -0.2274000    -0.0000030
  H       -0.5729570     0.6949060     0.8703990
  H       -0.5729310     0.6948780    -0.8704450
  H        0.8958950    -1.3682810    -0.8735520
  H        0.8958840    -1.3682250     0.8736320
  H       -1.6727150    -1.5924060     0.8735570
  H       -1.6727210    -1.5923950    -0.8735930
  H        3.4942430    -1.0743930    -0.8818600
  H        3.4942540    -1.0743610     0.8818860
  H        4.1535670     0.3330070    -0.0000160
  H       -3.9203830    -0.8957560    -0.0000150
units angstrom
no_reorient  #important for SAPT in psi4, default
symmetry c1  #important for SAPT in psi4, default
}

set PROPERTIES_ORIGIN ["COM"]
properties('MP2/aug-cc-pvtz', properties = ['dipole'])
--------------------------------------------------------------------------

    Molecular point group: c1
  Charge       = 0
  Multiplicity = 1
  Basis Set: AUG-CC-PVTZ
    Blend: AUG-CC-PVTZ
  Basis Set: (AUG-CC-PVTZ AUX)
    Blend: AUG-CC-PVTZ-JKFIT

    Orbital Energies [Eh]
    ---------------------

    Doubly Occupied:

       1A    -20.560859     2A    -20.548046     3A    -11.338555
       4A    -11.336043     5A    -11.251558     6A    -11.249489
       7A    -11.240452     8A    -11.231402     9A     -1.385641
      10A     -1.379828    11A     -1.098857    12A     -1.037462
      13A     -0.983753    14A     -0.874915    15A     -0.777640
      16A     -0.742794    17A     -0.676276    18A     -0.665283
      19A     -0.658064    20A     -0.625911    21A     -0.615158
      22A     -0.611929    23A     -0.569398    24A     -0.563529
      25A     -0.521555    26A     -0.509955    27A     -0.503221
      28A     -0.488364    29A     -0.479103    30A     -0.431500
      31A     -0.415122

  @DF-RHF Final Energy:  -382.88864365495044

   => Energetics <=

    Nuclear Repulsion Energy =            353.5263093141809350
    One-Electron Energy =               -1222.0865873020004528
    Two-Electron Energy =                 485.6716343328690755
    Total Energy =                       -382.8886436549504424
  Basis Set: (AUG-CC-PVTZ AUX)
    Blend: AUG-CC-PVTZ-RI
    Molecular point group: c1

    Geometry (in Angstrom), charge = 0, multiplicity = 1:

       Center              X                  Y                   Z               Mass
    ------------   -----------------  -----------------  -----------------  -----------------
         O            1.926077406746     1.377734769864    -0.004739716777    15.994914619570
         O           -3.138791593254     0.922566769864    -0.004712716777    15.994914619570
         C           -0.477657593254    -0.029863230136    -0.004741716777    12.000000000000
         C            0.864928906746    -0.745751930136     0.040246683223    12.000000000000
         C           -1.659146593254    -0.989529230136    -0.004743716777    12.000000000000
         C            2.054649406746     0.156534769864    -0.004728716777    12.000000000000
         C            3.417891406746    -0.501191230136    -0.004727716777    12.000000000000
         C           -2.995861593254    -0.292940230136    -0.004732716777    12.000000000000
         H           -0.535044593254     0.629365769864     0.865669283223     1.007825032230
         H           -0.535018593254     0.629337769864    -0.875174716777     1.007825032230
         H            0.933807406746    -1.433821230136    -0.878281716777     1.007825032230
         H            0.933796406746    -1.433765230136     0.868902283223     1.007825032230
         H           -1.634802593254    -1.657946230136     0.868827283223     1.007825032230
         H           -1.634808593254    -1.657935230136    -0.878322716777     1.007825032230
         H            3.532155406746    -1.139933230136    -0.886589716777     1.007825032230
         H            3.532166406746    -1.139901230136     0.877156283223     1.007825032230
         H            4.191479406746     0.267466769864    -0.004745716777     1.007825032230
         H           -3.882470593254    -0.961296230136    -0.004744716777     1.007825032230

  Basis Set: AUG-CC-PVTZ
    Blend: AUG-CC-PVTZ
  Basis Set: (AUG-CC-PVTZ AUX)
    Blend: AUG-CC-PVTZ-JKFIT
	 Reference Energy          =    -382.8886436549504424 [Eh]
	 Singles Energy            =      -0.0000000000000000 [Eh]
	 Same-Spin Energy          =      -0.3796538196973583 [Eh]
	 Opposite-Spin Energy      =      -1.2549375355288674 [Eh]
	 Correlation Energy        =      -1.6345913552262257 [Eh]
	 Total Energy              =    -384.5232350101766770 [Eh]

	 ================> DF-SCS-MP2 Energies <==================
	-----------------------------------------------------------
	 SCS Same-Spin Scale       =       0.3333333333333333 [-]
	 SCS Opposite-Spin Scale   =       1.2000000000000000 [-]
	 SCS Same-Spin Energy      =      -0.1265512732324528 [Eh]
	 SCS Opposite-Spin Energy  =      -1.5059250426346409 [Eh]
	 SCS Correlation Energy    =      -1.6324763158670936 [Eh]
	 SCS Total Energy          =    -384.5211199708175513 [Eh]
	-----------------------------------------------------------

  Dipole Moment: [D]
     X:     1.0932      Y:    -5.1738      Z:     0.0367     Total:     5.2882

*** Psi4 exiting successfully. Buy a developer a beer!
