                               Psi4 1.4a3.dev225

  ==> Input File <==

--------------------------------------------------------------------------
#psi4
#
memory 32 gb

molecule  {
0 1
  O        1.8881650     1.4432750    -0.0000100
  O       -3.1767040     0.9881070     0.0000170
  C       -0.5155700     0.0356770    -0.0000120
  C        0.8140500    -0.7053830     0.0000180
  C       -1.6970590    -0.9239890    -0.0000140
  C        2.0167370     0.2220750     0.0000010
  C        3.3799790    -0.4356510     0.0000020
  C       -3.0337740    -0.2274000    -0.0000030
  H       -0.5729570     0.6949060     0.8703990
  H       -0.5729310     0.6948780    -0.8704450
  H        0.8958950    -1.3682810    -0.8735520
  H        0.8958840    -1.3682250     0.8736320
  H       -1.6727150    -1.5924060     0.8735570
  H       -1.6727210    -1.5923950    -0.8735930
  H        3.4942430    -1.0743930    -0.8818600
  H        3.4942540    -1.0743610     0.8818860
  H        4.2245034     0.4034913    -0.0000177
  H       -3.9203830    -0.8957560    -0.0000150
units angstrom
no_reorient  #important for SAPT in psi4, default
symmetry c1  #important for SAPT in psi4, default
}

set PROPERTIES_ORIGIN ["COM"]
properties('MP2/aug-cc-pvtz', properties = ['dipole'])
--------------------------------------------------------------------------

    Molecular point group: c1
  Charge       = 0
  Multiplicity = 1
  Basis Set: AUG-CC-PVTZ
    Blend: AUG-CC-PVTZ
  Basis Set: (AUG-CC-PVTZ AUX)
    Blend: AUG-CC-PVTZ-JKFIT

    Orbital Energies [Eh]
    ---------------------

    Doubly Occupied:

       1A    -20.560760     2A    -20.548896     3A    -11.338263
       4A    -11.337775     5A    -11.251223     6A    -11.251112
       7A    -11.248837     8A    -11.231470     9A     -1.385539
      10A     -1.379431    11A     -1.098667    12A     -1.033862
      13A     -0.979373    14A     -0.871760    15A     -0.777322
      16A     -0.740778    17A     -0.675949    18A     -0.666113
      19A     -0.657319    20A     -0.624354    21A     -0.615503
      22A     -0.606546    23A     -0.571629    24A     -0.553114
      25A     -0.512806    26A     -0.508406    27A     -0.507486
      28A     -0.488533    29A     -0.484906    30A     -0.431323
      31A     -0.413030

  @DF-RHF Final Energy:  -382.88465438493392

   => Energetics <=

    Nuclear Repulsion Energy =            352.8724643727409216
    One-Electron Energy =               -1220.8100610560916266
    Two-Electron Energy =                 485.0529422984167240
    Total Energy =                       -382.8846543849339241
  Basis Set: (AUG-CC-PVTZ AUX)
    Blend: AUG-CC-PVTZ-RI
    Molecular point group: c1

    Geometry (in Angstrom), charge = 0, multiplicity = 1:

       Center              X                  Y                   Z               Mass
    ------------   -----------------  -----------------  -----------------  -----------------
         O            1.926814742911     1.379760049495    -0.000010063088    15.994914619570
         O           -3.138054257089     0.924592049495     0.000016936912    15.994914619570
         C           -0.476920257089    -0.027837950505    -0.000012063088    12.000000000000
         C            0.852699742911    -0.768897950505     0.000017936912    12.000000000000
         C           -1.658409257089    -0.987503950505    -0.000014063088    12.000000000000
         C            2.055386742911     0.158560049495     0.000000936912    12.000000000000
         C            3.418628742911    -0.499165950505     0.000001936912    12.000000000000
         C           -2.995124257089    -0.290914950505    -0.000003063088    12.000000000000
         H           -0.534307257089     0.631391049495     0.870398936912     1.007825032230
         H           -0.534281257089     0.631363049495    -0.870445063088     1.007825032230
         H            0.934544742911    -1.431795950505    -0.873552063088     1.007825032230
         H            0.934533742911    -1.431739950505     0.873631936912     1.007825032230
         H           -1.634065257089    -1.655920950505     0.873556936912     1.007825032230
         H           -1.634071257089    -1.655909950505    -0.873593063088     1.007825032230
         H            3.532892742911    -1.137907950505    -0.881860063088     1.007825032230
         H            3.532903742911    -1.137875950505     0.881885936912     1.007825032230
         H            4.263153142911     0.339976349495    -0.000017763088     1.007825032230
         H           -3.881733257089    -0.959270950505    -0.000015063088     1.007825032230

  Basis Set: AUG-CC-PVTZ
    Blend: AUG-CC-PVTZ
  Basis Set: (AUG-CC-PVTZ AUX)
    Blend: AUG-CC-PVTZ-JKFIT
	 Reference Energy          =    -382.8846543849339241 [Eh]
	 Singles Energy            =      -0.0000000000000000 [Eh]
	 Same-Spin Energy          =      -0.3795298301521033 [Eh]
	 Opposite-Spin Energy      =      -1.2554613634388991 [Eh]
	 Correlation Energy        =      -1.6349911935910024 [Eh]
	 Total Energy              =    -384.5196455785249441 [Eh]

	 ================> DF-SCS-MP2 Energies <==================
	-----------------------------------------------------------
	 SCS Same-Spin Scale       =       0.3333333333333333 [-]
	 SCS Opposite-Spin Scale   =       1.2000000000000000 [-]
	 SCS Same-Spin Energy      =      -0.1265099433840344 [Eh]
	 SCS Opposite-Spin Energy  =      -1.5065536361266789 [Eh]
	 SCS Correlation Energy    =      -1.6330635795107133 [Eh]
	 SCS Total Energy          =    -384.5177179644446142 [Eh]
	-----------------------------------------------------------

  Dipole Moment: [D]
     X:     1.0901      Y:    -5.1609      Z:    -0.0000     Total:     5.2748

*** Psi4 exiting successfully. Buy a developer a beer!
