                               Psi4 1.4a3.dev225

  ==> Input File <==

--------------------------------------------------------------------------
#psi4
#
memory 32 gb

molecule  {
0 1
  O        1.8881650     1.4432750    -0.0000100
  O       -3.1767040     0.9881070     0.0000170
  C       -0.5155700     0.0356770    -0.0000120
  C        0.8140500    -0.7053830     0.0000180
  C       -1.6970590    -0.9239890    -0.0000140
  C        1.9375483     0.1610082     0.0000021
  C        3.3799790    -0.4356510     0.0000020
  C       -3.0337740    -0.2274000    -0.0000030
  H       -0.5729570     0.6949060     0.8703990
  H       -0.5729310     0.6948780    -0.8704450
  H        0.8958950    -1.3682810    -0.8735520
  H        0.8958840    -1.3682250     0.8736320
  H       -1.6727150    -1.5924060     0.8735570
  H       -1.6727210    -1.5923950    -0.8735930
  H        3.4942430    -1.0743930    -0.8818600
  H        3.4942540    -1.0743610     0.8818860
  H        4.1535670     0.3330070    -0.0000160
  H       -3.9203830    -0.8957560    -0.0000150
units angstrom
no_reorient  #important for SAPT in psi4, default
symmetry c1  #important for SAPT in psi4, default
}

set PROPERTIES_ORIGIN ["COM"]
properties('MP2/aug-cc-pvtz', properties = ['dipole'])
--------------------------------------------------------------------------

    Molecular point group: c1
  Charge       = 0
  Multiplicity = 1
  Basis Set: AUG-CC-PVTZ
    Blend: AUG-CC-PVTZ
  Basis Set: (AUG-CC-PVTZ AUX)
    Blend: AUG-CC-PVTZ-JKFIT

    Orbital Energies [Eh]
    ---------------------

    Doubly Occupied:

       1A    -20.562673     2A    -20.543980     3A    -11.341367
       4A    -11.340218     5A    -11.253785     6A    -11.251146
       7A    -11.241552     8A    -11.235451     9A     -1.387384
      10A     -1.344174    11A     -1.111414    12A     -1.042511
      13A     -0.981052    14A     -0.885417    15A     -0.780490
      16A     -0.744883    17A     -0.677286    18A     -0.673210
      19A     -0.652708    20A     -0.621831    21A     -0.615483
      22A     -0.607029    23A     -0.570978    24A     -0.557958
      25A     -0.521328    26A     -0.511471    27A     -0.509946
      28A     -0.490670    29A     -0.464936    30A     -0.431153
      31A     -0.416618

  @DF-RHF Final Energy:  -382.87292146532752

   => Energetics <=

    Nuclear Repulsion Energy =            353.5319507796303924
    One-Electron Energy =               -1222.0695423305114673
    Two-Electron Energy =                 485.6646700855535528
    Total Energy =                       -382.8729214653275221
  Basis Set: (AUG-CC-PVTZ AUX)
    Blend: AUG-CC-PVTZ-RI
    Molecular point group: c1

    Geometry (in Angstrom), charge = 0, multiplicity = 1:

       Center              X                  Y                   Z               Mass
    ------------   -----------------  -----------------  -----------------  -----------------
         O            1.935772164510     1.386807046735    -0.000010193828    15.994914619570
         O           -3.129096835490     0.931639046735     0.000016806172    15.994914619570
         C           -0.467962835490    -0.020790953265    -0.000012193828    12.000000000000
         C            0.861657164510    -0.761850953265     0.000017806172    12.000000000000
         C           -1.649451835490    -0.980456953265    -0.000014193828    12.000000000000
         C            1.985155464510     0.104540246735     0.000001906172    12.000000000000
         C            3.427586164510    -0.492118953265     0.000001806172    12.000000000000
         C           -2.986166835490    -0.283867953265    -0.000003193828    12.000000000000
         H           -0.525349835490     0.638438046735     0.870398806172     1.007825032230
         H           -0.525323835490     0.638410046735    -0.870445193828     1.007825032230
         H            0.943502164510    -1.424748953265    -0.873552193828     1.007825032230
         H            0.943491164510    -1.424692953265     0.873631806172     1.007825032230
         H           -1.625107835490    -1.648873953265     0.873556806172     1.007825032230
         H           -1.625113835490    -1.648862953265    -0.873593193828     1.007825032230
         H            3.541850164510    -1.130860953265    -0.881860193828     1.007825032230
         H            3.541861164510    -1.130828953265     0.881885806172     1.007825032230
         H            4.201174164510     0.276539046735    -0.000016193828     1.007825032230
         H           -3.872775835490    -0.952223953265    -0.000015193828     1.007825032230

  Basis Set: AUG-CC-PVTZ
    Blend: AUG-CC-PVTZ
  Basis Set: (AUG-CC-PVTZ AUX)
    Blend: AUG-CC-PVTZ-JKFIT
	 Reference Energy          =    -382.8729214653275221 [Eh]
	 Singles Energy            =      -0.0000000000000000 [Eh]
	 Same-Spin Energy          =      -0.3815318498025010 [Eh]
	 Opposite-Spin Energy      =      -1.2589014067038589 [Eh]
	 Correlation Energy        =      -1.6404332565063600 [Eh]
	 Total Energy              =    -384.5133547218338776 [Eh]

	 ================> DF-SCS-MP2 Energies <==================
	-----------------------------------------------------------
	 SCS Same-Spin Scale       =       0.3333333333333333 [-]
	 SCS Opposite-Spin Scale   =       1.2000000000000000 [-]
	 SCS Same-Spin Energy      =      -0.1271772832675003 [Eh]
	 SCS Opposite-Spin Energy  =      -1.5106816880446305 [Eh]
	 SCS Correlation Energy    =      -1.6378589713121308 [Eh]
	 SCS Total Energy          =    -384.5107804366396635 [Eh]
	-----------------------------------------------------------

  Dipole Moment: [D]
     X:     0.7152      Y:    -5.3927      Z:    -0.0000     Total:     5.4400

*** Psi4 exiting successfully. Buy a developer a beer!
