                               Psi4 1.4a3.dev225

  ==> Input File <==

--------------------------------------------------------------------------
#psi4
#
memory 32 gb

molecule  {
0 1
  O        1.8881650     1.4432750    -0.0000100
  O       -3.1767040     0.9881070     0.0000170
  C       -0.5155700     0.0356770    -0.0000120
  C        0.8140500    -0.7053830     0.0000180
  C       -1.6970590    -0.9239890    -0.0000140
  C        2.0167370     0.2220750     0.0000010
  C        3.3799790    -0.4356510     0.0000020
  C       -3.0337740    -0.2274000    -0.0000030
  H       -0.5729570     0.6949060     0.8703990
  H       -0.5729310     0.6948780    -0.8704450
  H        0.8958950    -1.3682810    -0.8735520
  H        0.8810005    -1.2476713     0.7147443
  H       -1.6727150    -1.5924060     0.8735570
  H       -1.6727210    -1.5923950    -0.8735930
  H        3.4942430    -1.0743930    -0.8818600
  H        3.4942540    -1.0743610     0.8818860
  H        4.1535670     0.3330070    -0.0000160
  H       -3.9203830    -0.8957560    -0.0000150
units angstrom
no_reorient  #important for SAPT in psi4, default
symmetry c1  #important for SAPT in psi4, default
}

set PROPERTIES_ORIGIN ["COM"]
properties('MP2/aug-cc-pvtz', properties = ['dipole'])
--------------------------------------------------------------------------

    Molecular point group: c1
  Charge       = 0
  Multiplicity = 1
  Basis Set: AUG-CC-PVTZ
    Blend: AUG-CC-PVTZ
  Basis Set: (AUG-CC-PVTZ AUX)
    Blend: AUG-CC-PVTZ-JKFIT

    Orbital Energies [Eh]
    ---------------------

    Doubly Occupied:

       1A    -20.560279     2A    -20.547955     3A    -11.337762
       4A    -11.335813     5A    -11.250539     6A    -11.240785
       7A    -11.229281     8A    -11.223074     9A     -1.385015
      10A     -1.378608    11A     -1.106128    12A     -1.039754
      13A     -0.989322    14A     -0.879291    15A     -0.778478
      16A     -0.752471    17A     -0.680060    18A     -0.673065
      19A     -0.657899    20A     -0.625451    21A     -0.618466
      22A     -0.612200    23A     -0.578702    24A     -0.563762
      25A     -0.519109    26A     -0.511779    27A     -0.506630
      28A     -0.488174    29A     -0.487371    30A     -0.430519
      31A     -0.411919

  @DF-RHF Final Energy:  -382.85895571593210

   => Energetics <=

    Nuclear Repulsion Energy =            354.3566330074828556
    One-Electron Energy =               -1223.6318506892532696
    Two-Electron Energy =                 486.4162619658383164
    Total Energy =                       -382.8589557159320975
  Basis Set: (AUG-CC-PVTZ AUX)
    Blend: AUG-CC-PVTZ-RI
    Molecular point group: c1

    Geometry (in Angstrom), charge = 0, multiplicity = 1:

       Center              X                  Y                   Z               Mass
    ------------   -----------------  -----------------  -----------------  -----------------
         O            1.927572986969     1.379317671619     0.001393741453    15.994914619570
         O           -3.137296013031     0.924149671619     0.001420741453    15.994914619570
         C           -0.476162013031    -0.028280328381     0.001391741453    12.000000000000
         C            0.853457986969    -0.769340328381     0.001421741453    12.000000000000
         C           -1.657651013031    -0.987946328381     0.001389741453    12.000000000000
         C            2.056144986969     0.158117671619     0.001404741453    12.000000000000
         C            3.419386986969    -0.499608328381     0.001405741453    12.000000000000
         C           -2.994366013031    -0.291357328381     0.001400741453    12.000000000000
         H           -0.533549013031     0.630948671619     0.871802741453     1.007825032230
         H           -0.533523013031     0.630920671619    -0.869041258547     1.007825032230
         H            0.935302986969    -1.432238328381    -0.872148258547     1.007825032230
         H            0.920408486969    -1.311628628381     0.716148041453     1.007825032230
         H           -1.633307013031    -1.656363328381     0.874960741453     1.007825032230
         H           -1.633313013031    -1.656352328381    -0.872189258547     1.007825032230
         H            3.533650986969    -1.138350328381    -0.880456258547     1.007825032230
         H            3.533661986969    -1.138318328381     0.883289741453     1.007825032230
         H            4.192974986969     0.269049671619     0.001387741453     1.007825032230
         H           -3.880975013031    -0.959713328381     0.001388741453     1.007825032230

  Basis Set: AUG-CC-PVTZ
    Blend: AUG-CC-PVTZ
  Basis Set: (AUG-CC-PVTZ AUX)
    Blend: AUG-CC-PVTZ-JKFIT
	 Reference Energy          =    -382.8589557159320975 [Eh]
	 Singles Energy            =      -0.0000000000000000 [Eh]
	 Same-Spin Energy          =      -0.3794673888350470 [Eh]
	 Opposite-Spin Energy      =      -1.2540741862880342 [Eh]
	 Correlation Energy        =      -1.6335415751230813 [Eh]
	 Total Energy              =    -384.4924972910552015 [Eh]

	 ================> DF-SCS-MP2 Energies <==================
	-----------------------------------------------------------
	 SCS Same-Spin Scale       =       0.3333333333333333 [-]
	 SCS Opposite-Spin Scale   =       1.2000000000000000 [-]
	 SCS Same-Spin Energy      =      -0.1264891296116823 [Eh]
	 SCS Opposite-Spin Energy  =      -1.5048890235456411 [Eh]
	 SCS Correlation Energy    =      -1.6313781531573235 [Eh]
	 SCS Total Energy          =    -384.4903338690893975 [Eh]
	-----------------------------------------------------------

  Dipole Moment: [D]
     X:     1.1771      Y:    -5.2045      Z:     0.0383     Total:     5.3360

*** Psi4 exiting successfully. Buy a developer a beer!
