                               Psi4 1.4a3.dev225

  ==> Input File <==

--------------------------------------------------------------------------
#psi4
#
memory 32 gb

molecule  {
0 1
  O        1.8881650     1.4432750    -0.0000100
  O       -3.1767040     0.9881070     0.0000170
  C       -0.5024342     0.0587692    -0.0000125
  C        0.8140500    -0.7053830     0.0000180
  C       -1.6970590    -0.9239890    -0.0000140
  C        2.0167370     0.2220750     0.0000010
  C        3.3799790    -0.4356510     0.0000020
  C       -3.0337740    -0.2274000    -0.0000030
  H       -0.5729570     0.6949060     0.8703990
  H       -0.5729310     0.6948780    -0.8704450
  H        0.8958950    -1.3682810    -0.8735520
  H        0.8958840    -1.3682250     0.8736320
  H       -1.6727150    -1.5924060     0.8735570
  H       -1.6727210    -1.5923950    -0.8735930
  H        3.4942430    -1.0743930    -0.8818600
  H        3.4942540    -1.0743610     0.8818860
  H        4.1535670     0.3330070    -0.0000160
  H       -3.9203830    -0.8957560    -0.0000150
units angstrom
no_reorient  #important for SAPT in psi4, default
symmetry c1  #important for SAPT in psi4, default
}

set PROPERTIES_ORIGIN ["COM"]
properties('MP2/aug-cc-pvtz', properties = ['dipole'])
--------------------------------------------------------------------------

    Molecular point group: c1
  Charge       = 0
  Multiplicity = 1
  Basis Set: AUG-CC-PVTZ
    Blend: AUG-CC-PVTZ
  Basis Set: (AUG-CC-PVTZ AUX)
    Blend: AUG-CC-PVTZ-JKFIT

    Orbital Energies [Eh]
    ---------------------

    Doubly Occupied:

       1A    -20.560070     2A    -20.548694     3A    -11.337529
       4A    -11.336627     5A    -11.251117     6A    -11.247961
       7A    -11.240140     8A    -11.230450     9A     -1.384883
      10A     -1.379429    11A     -1.095857    12A     -1.034453
      13A     -0.983017    14A     -0.873612    15A     -0.777440
      16A     -0.741671    17A     -0.674909    18A     -0.666181
      19A     -0.656635    20A     -0.625323    21A     -0.614268
      22A     -0.610531    23A     -0.571354    24A     -0.562783
      25A     -0.515940    26A     -0.509863    27A     -0.506438
      28A     -0.490985    29A     -0.486259    30A     -0.430440
      31A     -0.411784

  @DF-RHF Final Energy:  -382.89105925584636

   => Energetics <=

    Nuclear Repulsion Energy =            353.1787068477368621
    One-Electron Energy =               -1221.4262442072031263
    Two-Electron Energy =                 485.3564781036199065
    Total Energy =                       -382.8910592558463577
  Basis Set: (AUG-CC-PVTZ AUX)
    Blend: AUG-CC-PVTZ-RI
    Molecular point group: c1

    Geometry (in Angstrom), charge = 0, multiplicity = 1:

       Center              X                  Y                   Z               Mass
    ------------   -----------------  -----------------  -----------------  -----------------
         O            1.926059596329     1.377953491877    -0.000010025508    15.994914619570
         O           -3.138809403671     0.922785491877     0.000016974492    15.994914619570
         C           -0.464539603671    -0.006552308123    -0.000012525508    12.000000000000
         C            0.851944596329    -0.770704508123     0.000017974492    12.000000000000
         C           -1.659164403671    -0.989310508123    -0.000014025508    12.000000000000
         C            2.054631596329     0.156753491877     0.000000974492    12.000000000000
         C            3.417873596329    -0.500972508123     0.000001974492    12.000000000000
         C           -2.995879403671    -0.292721508123    -0.000003025508    12.000000000000
         H           -0.535062403671     0.629584491877     0.870398974492     1.007825032230
         H           -0.535036403671     0.629556491877    -0.870445025508     1.007825032230
         H            0.933789596329    -1.433602508123    -0.873552025508     1.007825032230
         H            0.933778596329    -1.433546508123     0.873631974492     1.007825032230
         H           -1.634820403671    -1.657727508123     0.873556974492     1.007825032230
         H           -1.634826403671    -1.657716508123    -0.873593025508     1.007825032230
         H            3.532137596329    -1.139714508123    -0.881860025508     1.007825032230
         H            3.532148596329    -1.139682508123     0.881885974492     1.007825032230
         H            4.191461596329     0.267685491877    -0.000016025508     1.007825032230
         H           -3.882488403671    -0.961077508123    -0.000015025508     1.007825032230

  Basis Set: AUG-CC-PVTZ
    Blend: AUG-CC-PVTZ
  Basis Set: (AUG-CC-PVTZ AUX)
    Blend: AUG-CC-PVTZ-JKFIT
	 Reference Energy          =    -382.8910592558463577 [Eh]
	 Singles Energy            =      -0.0000000000000000 [Eh]
	 Same-Spin Energy          =      -0.3793204571030739 [Eh]
	 Opposite-Spin Energy      =      -1.2545096859629261 [Eh]
	 Correlation Energy        =      -1.6338301430660001 [Eh]
	 Total Energy              =    -384.5248893989123644 [Eh]

	 ================> DF-SCS-MP2 Energies <==================
	-----------------------------------------------------------
	 SCS Same-Spin Scale       =       0.3333333333333333 [-]
	 SCS Opposite-Spin Scale   =       1.2000000000000000 [-]
	 SCS Same-Spin Energy      =      -0.1264401523676913 [Eh]
	 SCS Opposite-Spin Energy  =      -1.5054116231555112 [Eh]
	 SCS Correlation Energy    =      -1.6318517755232025 [Eh]
	 SCS Total Energy          =    -384.5229110313695742 [Eh]
	-----------------------------------------------------------

  Dipole Moment: [D]
     X:     1.1459      Y:    -5.1516      Z:    -0.0000     Total:     5.2775

*** Psi4 exiting successfully. Buy a developer a beer!
