                               Psi4 1.4a3.dev225

  ==> Input File <==

--------------------------------------------------------------------------
#psi4
#
memory 32 gb

molecule  {
0 1
  O        1.8881650     1.4432750    -0.0000100
  O       -3.1767040     0.9881070     0.0000170
  C       -0.5406227    -0.0111775    -0.0000109
  C        0.8140500    -0.7053830     0.0000180
  C       -1.6970590    -0.9239890    -0.0000140
  C        2.0167370     0.2220750     0.0000010
  C        3.3799790    -0.4356510     0.0000020
  C       -3.0337740    -0.2274000    -0.0000030
  H       -0.5729570     0.6949060     0.8703990
  H       -0.5729310     0.6948780    -0.8704450
  H        0.8958950    -1.3682810    -0.8735520
  H        0.8958840    -1.3682250     0.8736320
  H       -1.6727150    -1.5924060     0.8735570
  H       -1.6727210    -1.5923950    -0.8735930
  H        3.4942430    -1.0743930    -0.8818600
  H        3.4942540    -1.0743610     0.8818860
  H        4.1535670     0.3330070    -0.0000160
  H       -3.9203830    -0.8957560    -0.0000150
units angstrom
no_reorient  #important for SAPT in psi4, default
symmetry c1  #important for SAPT in psi4, default
}

set PROPERTIES_ORIGIN ["COM"]
properties('MP2/aug-cc-pvtz', properties = ['dipole'])
--------------------------------------------------------------------------

    Molecular point group: c1
  Charge       = 0
  Multiplicity = 1
  Basis Set: AUG-CC-PVTZ
    Blend: AUG-CC-PVTZ
  Basis Set: (AUG-CC-PVTZ AUX)
    Blend: AUG-CC-PVTZ-JKFIT

    Orbital Energies [Eh]
    ---------------------

    Doubly Occupied:

       1A    -20.561401     2A    -20.549136     3A    -11.338976
       4A    -11.338123     5A    -11.249816     6A    -11.248253
       7A    -11.241012     8A    -11.232628     9A     -1.386107
      10A     -1.379572    11A     -1.103887    12A     -1.038248
      13A     -0.983472    14A     -0.872654    15A     -0.776288
      16A     -0.742734    17A     -0.677906    18A     -0.665173
      19A     -0.658155    20A     -0.624927    21A     -0.616038
      22A     -0.614046    23A     -0.570119    24A     -0.565891
      25A     -0.530024    26A     -0.506694    27A     -0.501749
      28A     -0.487366    29A     -0.473967    30A     -0.432084
      31A     -0.413887

  @DF-RHF Final Energy:  -382.88778472366459

   => Energetics <=

    Nuclear Repulsion Energy =            353.4921435661457281
    One-Electron Energy =               -1221.9991921955640919
    Two-Electron Energy =                 485.6192639057537690
    Total Energy =                       -382.8877847236645948
  Basis Set: (AUG-CC-PVTZ AUX)
    Blend: AUG-CC-PVTZ-RI
    Molecular point group: c1

    Geometry (in Angstrom), charge = 0, multiplicity = 1:

       Center              X                  Y                   Z               Mass
    ------------   -----------------  -----------------  -----------------  -----------------
         O            1.930077039261     1.385311908037    -0.000010193828    15.994914619570
         O           -3.134791960739     0.930143908037     0.000016806172    15.994914619570
         C           -0.498710660739    -0.069140591963    -0.000011093828    12.000000000000
         C            0.855962039261    -0.763346091963     0.000017806172    12.000000000000
         C           -1.655146960739    -0.981952091963    -0.000014193828    12.000000000000
         C            2.058649039261     0.164111908037     0.000000806172    12.000000000000
         C            3.421891039261    -0.493614091963     0.000001806172    12.000000000000
         C           -2.991861960739    -0.285363091963    -0.000003193828    12.000000000000
         H           -0.531044960739     0.636942908037     0.870398806172     1.007825032230
         H           -0.531018960739     0.636914908037    -0.870445193828     1.007825032230
         H            0.937807039261    -1.426244091963    -0.873552193828     1.007825032230
         H            0.937796039261    -1.426188091963     0.873631806172     1.007825032230
         H           -1.630802960739    -1.650369091963     0.873556806172     1.007825032230
         H           -1.630808960739    -1.650358091963    -0.873593193828     1.007825032230
         H            3.536155039261    -1.132356091963    -0.881860193828     1.007825032230
         H            3.536166039261    -1.132324091963     0.881885806172     1.007825032230
         H            4.195479039261     0.275043908037    -0.000016193828     1.007825032230
         H           -3.878470960739    -0.953719091963    -0.000015193828     1.007825032230

  Basis Set: AUG-CC-PVTZ
    Blend: AUG-CC-PVTZ
  Basis Set: (AUG-CC-PVTZ AUX)
    Blend: AUG-CC-PVTZ-JKFIT
	 Reference Energy          =    -382.8877847236645948 [Eh]
	 Singles Energy            =      -0.0000000000000000 [Eh]
	 Same-Spin Energy          =      -0.3799378629890369 [Eh]
	 Opposite-Spin Energy      =      -1.2552975408625981 [Eh]
	 Correlation Energy        =      -1.6352354038516350 [Eh]
	 Total Energy              =    -384.5230201275162472 [Eh]

	 ================> DF-SCS-MP2 Energies <==================
	-----------------------------------------------------------
	 SCS Same-Spin Scale       =       0.3333333333333333 [-]
	 SCS Opposite-Spin Scale   =       1.2000000000000000 [-]
	 SCS Same-Spin Energy      =      -0.1266459543296790 [Eh]
	 SCS Opposite-Spin Energy  =      -1.5063570490351177 [Eh]
	 SCS Correlation Energy    =      -1.6330030033647966 [Eh]
	 SCS Total Energy          =    -384.5207877270294148 [Eh]
	-----------------------------------------------------------

  Dipole Moment: [D]
     X:     1.1283      Y:    -5.1587      Z:    -0.0000     Total:     5.2807

*** Psi4 exiting successfully. Buy a developer a beer!
