                               Psi4 1.4a3.dev225

  ==> Input File <==

--------------------------------------------------------------------------
#psi4
#
memory 32 gb

molecule  {
0 1
  O        1.8881650     1.4432750    -0.0000100
  O       -3.1767040     0.9881070     0.0000170
  C       -0.5155700     0.0356770    -0.0000120
  C        0.8140500    -0.7053830     0.0000180
  C       -1.6970590    -0.9239890    -0.0000140
  C        2.0167370     0.2220750     0.0000010
  C        3.3799790    -0.4356510     0.0000020
  C       -3.0337740    -0.2274000    -0.0000030
  H       -0.5729570     0.6949060     0.8703990
  H       -0.5729310     0.6948780    -0.8704450
  H        0.8958950    -1.3682810    -0.8735520
  H        0.8958840    -1.3682250     0.8736320
  H       -1.6727150    -1.5924060     0.8735570
  H       -1.6727210    -1.5923950    -0.8735930
  H        3.4733703    -0.9577134    -0.7207694
  H        3.4942540    -1.0743610     0.8818860
  H        4.1535670     0.3330070    -0.0000160
  H       -3.9203830    -0.8957560    -0.0000150
units angstrom
no_reorient  #important for SAPT in psi4, default
symmetry c1  #important for SAPT in psi4, default
}

set PROPERTIES_ORIGIN ["COM"]
properties('MP2/aug-cc-pvtz', properties = ['dipole'])
--------------------------------------------------------------------------

    Molecular point group: c1
  Charge       = 0
  Multiplicity = 1
  Basis Set: AUG-CC-PVTZ
    Blend: AUG-CC-PVTZ
  Basis Set: (AUG-CC-PVTZ AUX)
    Blend: AUG-CC-PVTZ-JKFIT

    Orbital Energies [Eh]
    ---------------------

    Doubly Occupied:

       1A    -20.560561     2A    -20.547778     3A    -11.338049
       4A    -11.335768     5A    -11.250841     6A    -11.248188
       7A    -11.231085     8A    -11.216036     9A     -1.385340
      10A     -1.378495    11A     -1.098986    12A     -1.048625
      13A     -0.992694    14A     -0.876114    15A     -0.777560
      16A     -0.747541    17A     -0.677473    18A     -0.669431
      19A     -0.662330    20A     -0.631463    21A     -0.621816
      22A     -0.610990    23A     -0.583228    24A     -0.564215
      25A     -0.519537    26A     -0.509255    27A     -0.507133
      28A     -0.489390    29A     -0.484692    30A     -0.430912
      31A     -0.411892

  @DF-RHF Final Energy:  -382.85749276122954

   => Energetics <=

    Nuclear Repulsion Energy =            354.2334451707175731
    One-Electron Energy =               -1223.3670348080729582
    Two-Electron Energy =                 486.2760968761258482
    Total Energy =                       -382.8574927612295369
  Basis Set: (AUG-CC-PVTZ AUX)
    Blend: AUG-CC-PVTZ-RI
    Molecular point group: c1

    Geometry (in Angstrom), charge = 0, multiplicity = 1:

       Center              X                  Y                   Z               Mass
    ------------   -----------------  -----------------  -----------------  -----------------
         O            1.927625903312     1.379351900432    -0.001433360938    15.994914619570
         O           -3.137243096688     0.924183900432    -0.001406360938    15.994914619570
         C           -0.476109096688    -0.028246099568    -0.001435360938    12.000000000000
         C            0.853510903312    -0.769306099568    -0.001405360938    12.000000000000
         C           -1.657598096688    -0.987912099568    -0.001437360938    12.000000000000
         C            2.056197903312     0.158151900432    -0.001422360938    12.000000000000
         C            3.419439903312    -0.499574099568    -0.001421360938    12.000000000000
         C           -2.994313096688    -0.291323099568    -0.001426360938    12.000000000000
         H           -0.533496096688     0.630982900432     0.868975639062     1.007825032230
         H           -0.533470096688     0.630954900432    -0.871868360938     1.007825032230
         H            0.935355903312    -1.432204099568    -0.874975360938     1.007825032230
         H            0.935344903312    -1.432148099568     0.872208639062     1.007825032230
         H           -1.633254096688    -1.656329099568     0.872133639062     1.007825032230
         H           -1.633260096688    -1.656318099568    -0.875016360938     1.007825032230
         H            3.512831203312    -1.021636499568    -0.722192760938     1.007825032230
         H            3.533714903312    -1.138284099568     0.880462639062     1.007825032230
         H            4.193027903312     0.269083900432    -0.001439360938     1.007825032230
         H           -3.880922096688    -0.959679099568    -0.001438360938     1.007825032230

  Basis Set: AUG-CC-PVTZ
    Blend: AUG-CC-PVTZ
  Basis Set: (AUG-CC-PVTZ AUX)
    Blend: AUG-CC-PVTZ-JKFIT
	 Reference Energy          =    -382.8574927612295369 [Eh]
	 Singles Energy            =      -0.0000000000000000 [Eh]
	 Same-Spin Energy          =      -0.3796199939210124 [Eh]
	 Opposite-Spin Energy      =      -1.2541899063320807 [Eh]
	 Correlation Energy        =      -1.6338099002530933 [Eh]
	 Total Energy              =    -384.4913026614826208 [Eh]

	 ================> DF-SCS-MP2 Energies <==================
	-----------------------------------------------------------
	 SCS Same-Spin Scale       =       0.3333333333333333 [-]
	 SCS Opposite-Spin Scale   =       1.2000000000000000 [-]
	 SCS Same-Spin Energy      =      -0.1265399979736708 [Eh]
	 SCS Opposite-Spin Energy  =      -1.5050278875984968 [Eh]
	 SCS Correlation Energy    =      -1.6315678855721676 [Eh]
	 SCS Total Energy          =    -384.4890606468017040 [Eh]
	-----------------------------------------------------------

  Dipole Moment: [D]
     X:     1.1359      Y:    -5.1835      Z:    -0.0264     Total:     5.3066

*** Psi4 exiting successfully. Buy a developer a beer!
