                               Psi4 1.4a3.dev225

  ==> Input File <==

--------------------------------------------------------------------------
#psi4
#
memory 32 gb

molecule  {
0 1
  O        1.8881650     1.4432750    -0.0000100
  O       -3.1767040     0.9881070     0.0000170
  C       -0.5155700     0.0356770    -0.0000120
  C        0.8140500    -0.7053830     0.0000180
  C       -1.6970590    -0.9239890    -0.0000140
  C        1.9771426     0.1915416     0.0000016
  C        3.3799790    -0.4356510     0.0000020
  C       -3.0337740    -0.2274000    -0.0000030
  H       -0.5729570     0.6949060     0.8703990
  H       -0.5729310     0.6948780    -0.8704450
  H        0.8958950    -1.3682810    -0.8735520
  H        0.8958840    -1.3682250     0.8736320
  H       -1.6727150    -1.5924060     0.8735570
  H       -1.6727210    -1.5923950    -0.8735930
  H        3.4942430    -1.0743930    -0.8818600
  H        3.4942540    -1.0743610     0.8818860
  H        4.1535670     0.3330070    -0.0000160
  H       -3.9203830    -0.8957560    -0.0000150
units angstrom
no_reorient  #important for SAPT in psi4, default
symmetry c1  #important for SAPT in psi4, default
}

set PROPERTIES_ORIGIN ["COM"]
properties('MP2/aug-cc-pvtz', properties = ['dipole'])
--------------------------------------------------------------------------

    Molecular point group: c1
  Charge       = 0
  Multiplicity = 1
  Basis Set: AUG-CC-PVTZ
    Blend: AUG-CC-PVTZ
  Basis Set: (AUG-CC-PVTZ AUX)
    Blend: AUG-CC-PVTZ-JKFIT

    Orbital Energies [Eh]
    ---------------------

    Doubly Occupied:

       1A    -20.561611     2A    -20.546447     3A    -11.339155
       4A    -11.339131     5A    -11.252299     6A    -11.249935
       7A    -11.240769     8A    -11.233218     9A     -1.386356
      10A     -1.361686    11A     -1.104165    12A     -1.038049
      13A     -0.982877    14A     -0.879345    15A     -0.778819
      16A     -0.743178    17A     -0.676470    18A     -0.669205
      19A     -0.654983    20A     -0.622492    21A     -0.614622
      22A     -0.609449    23A     -0.571200    24A     -0.560920
      25A     -0.520416    26A     -0.509567    27A     -0.508768
      28A     -0.488781    29A     -0.475814    30A     -0.431348
      31A     -0.415773

  @DF-RHF Final Energy:  -382.88547581981118

   => Energetics <=

    Nuclear Repulsion Energy =            353.3904256993429840
    One-Electron Energy =               -1221.8181051084172850
    Two-Electron Energy =                 485.5422035892630674
    Total Energy =                       -382.8854758198111767
  Basis Set: (AUG-CC-PVTZ AUX)
    Blend: AUG-CC-PVTZ-RI
    Molecular point group: c1

    Geometry (in Angstrom), charge = 0, multiplicity = 1:

       Center              X                  Y                   Z               Mass
    ------------   -----------------  -----------------  -----------------  -----------------
         O            1.931606830949     1.383594922876    -0.000010141228    15.994914619570
         O           -3.133262169051     0.928426922876     0.000016858772    15.994914619570
         C           -0.472128169051    -0.024003077124    -0.000012141228    12.000000000000
         C            0.857491830949    -0.765063077124     0.000017858772    12.000000000000
         C           -1.653617169051    -0.983669077124    -0.000014141228    12.000000000000
         C            2.020584430949     0.131861522876     0.000001458772    12.000000000000
         C            3.423420830949    -0.495331077124     0.000001858772    12.000000000000
         C           -2.990332169051    -0.287080077124    -0.000003141228    12.000000000000
         H           -0.529515169051     0.635225922876     0.870398858772     1.007825032230
         H           -0.529489169051     0.635197922876    -0.870445141228     1.007825032230
         H            0.939336830949    -1.427961077124    -0.873552141228     1.007825032230
         H            0.939325830949    -1.427905077124     0.873631858772     1.007825032230
         H           -1.629273169051    -1.652086077124     0.873556858772     1.007825032230
         H           -1.629279169051    -1.652075077124    -0.873593141228     1.007825032230
         H            3.537684830949    -1.134073077124    -0.881860141228     1.007825032230
         H            3.537695830949    -1.134041077124     0.881885858772     1.007825032230
         H            4.197008830949     0.273326922876    -0.000016141228     1.007825032230
         H           -3.876941169051    -0.955436077124    -0.000015141228     1.007825032230

  Basis Set: AUG-CC-PVTZ
    Blend: AUG-CC-PVTZ
  Basis Set: (AUG-CC-PVTZ AUX)
    Blend: AUG-CC-PVTZ-JKFIT
	 Reference Energy          =    -382.8854758198111767 [Eh]
	 Singles Energy            =      -0.0000000000000000 [Eh]
	 Same-Spin Energy          =      -0.3803599819183710 [Eh]
	 Opposite-Spin Energy      =      -1.2565312665223269 [Eh]
	 Correlation Energy        =      -1.6368912484406979 [Eh]
	 Total Energy              =    -384.5223670682518673 [Eh]

	 ================> DF-SCS-MP2 Energies <==================
	-----------------------------------------------------------
	 SCS Same-Spin Scale       =       0.3333333333333333 [-]
	 SCS Opposite-Spin Scale   =       1.2000000000000000 [-]
	 SCS Same-Spin Energy      =      -0.1267866606394570 [Eh]
	 SCS Opposite-Spin Energy  =      -1.5078375198267924 [Eh]
	 SCS Correlation Energy    =      -1.6346241804662494 [Eh]
	 SCS Total Energy          =    -384.5201000002774094 [Eh]
	-----------------------------------------------------------

  Dipole Moment: [D]
     X:     0.9218      Y:    -5.2774      Z:    -0.0000     Total:     5.3573

*** Psi4 exiting successfully. Buy a developer a beer!
