                               Psi4 1.4a3.dev225

  ==> Input File <==

--------------------------------------------------------------------------
#psi4
#
memory 32 gb

molecule  {
0 1
  O        1.8881650     1.4432750    -0.0000100
  O       -3.1767040     0.9881070     0.0000170
  C       -0.5155700     0.0356770    -0.0000120
  C        0.7965802    -0.6956462     0.0000176
  C       -1.6970590    -0.9239890    -0.0000140
  C        2.0167370     0.2220750     0.0000010
  C        3.3799790    -0.4356510     0.0000020
  C       -3.0337740    -0.2274000    -0.0000030
  H       -0.5729570     0.6949060     0.8703990
  H       -0.5729310     0.6948780    -0.8704450
  H        0.8958950    -1.3682810    -0.8735520
  H        0.8958840    -1.3682250     0.8736320
  H       -1.6727150    -1.5924060     0.8735570
  H       -1.6727210    -1.5923950    -0.8735930
  H        3.4942430    -1.0743930    -0.8818600
  H        3.4942540    -1.0743610     0.8818860
  H        4.1535670     0.3330070    -0.0000160
  H       -3.9203830    -0.8957560    -0.0000150
units angstrom
no_reorient  #important for SAPT in psi4, default
symmetry c1  #important for SAPT in psi4, default
}

set PROPERTIES_ORIGIN ["COM"]
properties('MP2/aug-cc-pvtz', properties = ['dipole'])
--------------------------------------------------------------------------

    Molecular point group: c1
  Charge       = 0
  Multiplicity = 1
  Basis Set: AUG-CC-PVTZ
    Blend: AUG-CC-PVTZ
  Basis Set: (AUG-CC-PVTZ AUX)
    Blend: AUG-CC-PVTZ-JKFIT

    Orbital Energies [Eh]
    ---------------------

    Doubly Occupied:

       1A    -20.560574     2A    -20.548352     3A    -11.338058
       4A    -11.337266     5A    -11.250915     6A    -11.248736
       7A    -11.241046     8A    -11.230023     9A     -1.385360
      10A     -1.379201    11A     -1.100160    12A     -1.034623
      13A     -0.984247    14A     -0.872587    15A     -0.777670
      16A     -0.741088    17A     -0.676255    18A     -0.665649
      19A     -0.656896    20A     -0.625189    21A     -0.614112
      22A     -0.611032    23A     -0.570400    24A     -0.563716
      25A     -0.522975    26A     -0.508000    27A     -0.507343
      28A     -0.488426    29A     -0.482839    30A     -0.431095
      31A     -0.411692

  @DF-RHF Final Energy:  -382.89091542494265

   => Energetics <=

    Nuclear Repulsion Energy =            353.4191009298143058
    One-Electron Energy =               -1221.8889810116163517
    Two-Electron Energy =                 485.5789646568594549
    Total Energy =                       -382.8909154249426479
  Basis Set: (AUG-CC-PVTZ AUX)
    Blend: AUG-CC-PVTZ-RI
    Molecular point group: c1

    Geometry (in Angstrom), charge = 0, multiplicity = 1:

       Center              X                  Y                   Z               Mass
    ------------   -----------------  -----------------  -----------------  -----------------
         O            1.929279315653     1.379358484410    -0.000010036028    15.994914619570
         O           -3.135589684347     0.924190484410     0.000016963972    15.994914619570
         C           -0.474455684347    -0.028239515590    -0.000012036028    12.000000000000
         C            0.837694515653    -0.759562715590     0.000017563972    12.000000000000
         C           -1.655944684347    -0.987905515590    -0.000014036028    12.000000000000
         C            2.057851315653     0.158158484410     0.000000963972    12.000000000000
         C            3.421093315653    -0.499567515590     0.000001963972    12.000000000000
         C           -2.992659684347    -0.291316515590    -0.000003036028    12.000000000000
         H           -0.531842684347     0.630989484410     0.870398963972     1.007825032230
         H           -0.531816684347     0.630961484410    -0.870445036028     1.007825032230
         H            0.937009315653    -1.432197515590    -0.873552036028     1.007825032230
         H            0.936998315653    -1.432141515590     0.873631963972     1.007825032230
         H           -1.631600684347    -1.656322515590     0.873556963972     1.007825032230
         H           -1.631606684347    -1.656311515590    -0.873593036028     1.007825032230
         H            3.535357315653    -1.138309515590    -0.881860036028     1.007825032230
         H            3.535368315653    -1.138277515590     0.881885963972     1.007825032230
         H            4.194681315653     0.269090484410    -0.000016036028     1.007825032230
         H           -3.879268684347    -0.959672515590    -0.000015036028     1.007825032230

  Basis Set: AUG-CC-PVTZ
    Blend: AUG-CC-PVTZ
  Basis Set: (AUG-CC-PVTZ AUX)
    Blend: AUG-CC-PVTZ-JKFIT
	 Reference Energy          =    -382.8909154249426479 [Eh]
	 Singles Energy            =      -0.0000000000000000 [Eh]
	 Same-Spin Energy          =      -0.3795888013510844 [Eh]
	 Opposite-Spin Energy      =      -1.2547712434213485 [Eh]
	 Correlation Energy        =      -1.6343600447724329 [Eh]
	 Total Energy              =    -384.5252754697150976 [Eh]

	 ================> DF-SCS-MP2 Energies <==================
	-----------------------------------------------------------
	 SCS Same-Spin Scale       =       0.3333333333333333 [-]
	 SCS Opposite-Spin Scale   =       1.2000000000000000 [-]
	 SCS Same-Spin Energy      =      -0.1265296004503614 [Eh]
	 SCS Opposite-Spin Energy  =      -1.5057254921056182 [Eh]
	 SCS Correlation Energy    =      -1.6322550925559798 [Eh]
	 SCS Total Energy          =    -384.5231705174986132 [Eh]
	-----------------------------------------------------------

  Dipole Moment: [D]
     X:     1.1451      Y:    -5.1478      Z:    -0.0000     Total:     5.2737

*** Psi4 exiting successfully. Buy a developer a beer!
