                               Psi4 1.4a3.dev225

  ==> Input File <==

--------------------------------------------------------------------------
#psi4
#
memory 32 gb

molecule  {
0 1
  O        1.8881650     1.4432750    -0.0000100
  O       -3.1767040     0.9881070     0.0000170
  C       -0.5155700     0.0356770    -0.0000120
  C        0.8140500    -0.7053830     0.0000180
  C       -1.6970590    -0.9239890    -0.0000140
  C        2.0167370     0.2220750     0.0000010
  C        3.3799790    -0.4356510     0.0000020
  C       -3.0337740    -0.2274000    -0.0000030
  H       -0.5729570     0.6949060     0.8703990
  H       -0.5729310     0.6948780    -0.8704450
  H        0.8958950    -1.3682810    -0.8735520
  H        0.8973723    -1.3802804     0.8895208
  H       -1.6727150    -1.5924060     0.8735570
  H       -1.6727210    -1.5923950    -0.8735930
  H        3.4942430    -1.0743930    -0.8818600
  H        3.4942540    -1.0743610     0.8818860
  H        4.1535670     0.3330070    -0.0000160
  H       -3.9203830    -0.8957560    -0.0000150
units angstrom
no_reorient  #important for SAPT in psi4, default
symmetry c1  #important for SAPT in psi4, default
}

set PROPERTIES_ORIGIN ["COM"]
properties('MP2/aug-cc-pvtz', properties = ['dipole'])
--------------------------------------------------------------------------

    Molecular point group: c1
  Charge       = 0
  Multiplicity = 1
  Basis Set: AUG-CC-PVTZ
    Blend: AUG-CC-PVTZ
  Basis Set: (AUG-CC-PVTZ AUX)
    Blend: AUG-CC-PVTZ-JKFIT

    Orbital Energies [Eh]
    ---------------------

    Doubly Occupied:

       1A    -20.560556     2A    -20.548939     3A    -11.338046
       4A    -11.337259     5A    -11.250813     6A    -11.250368
       7A    -11.240374     8A    -11.231207     9A     -1.385345
      10A     -1.379557    11A     -1.097803    12A     -1.035455
      13A     -0.982723    14A     -0.872739    15A     -0.777116
      16A     -0.741314    17A     -0.675862    18A     -0.664876
      19A     -0.656875    20A     -0.625163    21A     -0.614540
      22A     -0.611382    23A     -0.570024    24A     -0.563510
      25A     -0.519126    26A     -0.507953    27A     -0.506800
      28A     -0.488374    29A     -0.484072    30A     -0.431089
      31A     -0.412603

  @DF-RHF Final Energy:  -382.89092622663344

   => Energetics <=

    Nuclear Repulsion Energy =            353.1849972720230539
    One-Electron Energy =               -1221.4281169501771274
    Two-Electron Energy =                 485.3521934515205771
    Total Energy =                       -382.8909262266334395
  Basis Set: (AUG-CC-PVTZ AUX)
    Blend: AUG-CC-PVTZ-RI
    Molecular point group: c1

    Geometry (in Angstrom), charge = 0, multiplicity = 1:

       Center              X                  Y                   Z               Mass
    ------------   -----------------  -----------------  -----------------  -----------------
         O            1.927428337301     1.380489312020    -0.000150460329    15.994914619570
         O           -3.137440662699     0.925321312020    -0.000123460329    15.994914619570
         C           -0.476306662699    -0.027108687980    -0.000152460329    12.000000000000
         C            0.853313337301    -0.768168687980    -0.000122460329    12.000000000000
         C           -1.657795662699    -0.986774687980    -0.000154460329    12.000000000000
         C            2.056000337301     0.159289312020    -0.000139460329    12.000000000000
         C            3.419242337301    -0.498436687980    -0.000138460329    12.000000000000
         C           -2.994510662699    -0.290185687980    -0.000143460329    12.000000000000
         H           -0.533693662699     0.632120312020     0.870258539671     1.007825032230
         H           -0.533667662699     0.632092312020    -0.870585460329     1.007825032230
         H            0.935158337301    -1.431066687980    -0.873692460329     1.007825032230
         H            0.936635637301    -1.443066087980     0.889380339671     1.007825032230
         H           -1.633451662699    -1.655191687980     0.873416539671     1.007825032230
         H           -1.633457662699    -1.655180687980    -0.873733460329     1.007825032230
         H            3.533506337301    -1.137178687980    -0.882000460329     1.007825032230
         H            3.533517337301    -1.137146687980     0.881745539671     1.007825032230
         H            4.192830337301     0.270221312020    -0.000156460329     1.007825032230
         H           -3.881119662699    -0.958541687980    -0.000155460329     1.007825032230

  Basis Set: AUG-CC-PVTZ
    Blend: AUG-CC-PVTZ
  Basis Set: (AUG-CC-PVTZ AUX)
    Blend: AUG-CC-PVTZ-JKFIT
	 Reference Energy          =    -382.8909262266334395 [Eh]
	 Singles Energy            =      -0.0000000000000000 [Eh]
	 Same-Spin Energy          =      -0.3794840591814808 [Eh]
	 Opposite-Spin Energy      =      -1.2548009199427392 [Eh]
	 Correlation Energy        =      -1.6342849791242200 [Eh]
	 Total Energy              =    -384.5252112057576710 [Eh]

	 ================> DF-SCS-MP2 Energies <==================
	-----------------------------------------------------------
	 SCS Same-Spin Scale       =       0.3333333333333333 [-]
	 SCS Opposite-Spin Scale   =       1.2000000000000000 [-]
	 SCS Same-Spin Energy      =      -0.1264946863938269 [Eh]
	 SCS Opposite-Spin Energy  =      -1.5057611039312870 [Eh]
	 SCS Correlation Energy    =      -1.6322557903251140 [Eh]
	 SCS Total Energy          =    -384.5231820169585717 [Eh]
	-----------------------------------------------------------

  Dipole Moment: [D]
     X:     1.1339      Y:    -5.1470      Z:    -0.0060     Total:     5.2704

*** Psi4 exiting successfully. Buy a developer a beer!
