                               Psi4 1.4a3.dev225

  ==> Input File <==

--------------------------------------------------------------------------
#psi4
#
memory 32 gb

molecule  {
0 1
  O        1.8881650     1.4432750    -0.0000100
  O       -3.1767040     0.9881070     0.0000170
  C       -0.5857481    -0.1073657    -0.0000086
  C        0.8140500    -0.7053830     0.0000180
  C       -1.6970590    -0.9239890    -0.0000140
  C        2.0167370     0.2220750     0.0000010
  C        3.3799790    -0.4356510     0.0000020
  C       -3.0337740    -0.2274000    -0.0000030
  H       -0.5729570     0.6949060     0.8703990
  H       -0.5729310     0.6948780    -0.8704450
  H        0.8958950    -1.3682810    -0.8735520
  H        0.8958840    -1.3682250     0.8736320
  H       -1.6727150    -1.5924060     0.8735570
  H       -1.6727210    -1.5923950    -0.8735930
  H        3.4942430    -1.0743930    -0.8818600
  H        3.4942540    -1.0743610     0.8818860
  H        4.1535670     0.3330070    -0.0000160
  H       -3.9203830    -0.8957560    -0.0000150
units angstrom
no_reorient  #important for SAPT in psi4, default
symmetry c1  #important for SAPT in psi4, default
}

set PROPERTIES_ORIGIN ["COM"]
properties('MP2/aug-cc-pvtz', properties = ['dipole'])
--------------------------------------------------------------------------

    Molecular point group: c1
  Charge       = 0
  Multiplicity = 1
  Basis Set: AUG-CC-PVTZ
    Blend: AUG-CC-PVTZ
  Basis Set: (AUG-CC-PVTZ AUX)
    Blend: AUG-CC-PVTZ-JKFIT

    Orbital Energies [Eh]
    ---------------------

    Doubly Occupied:

       1A    -20.563172     2A    -20.550239     3A    -11.341004
       4A    -11.340686     5A    -11.250075     6A    -11.247093
       7A    -11.242502     8A    -11.237958     9A     -1.387627
      10A     -1.380371    11A     -1.119271    12A     -1.043234
      13A     -0.984528    14A     -0.873868    15A     -0.773762
      16A     -0.744243    17A     -0.682441    18A     -0.667037
      19A     -0.660161    20A     -0.625385    21A     -0.621350
      22A     -0.618874    23A     -0.573236    24A     -0.569454
      25A     -0.546750    26A     -0.507318    27A     -0.487849
      28A     -0.487246    29A     -0.445047    30A     -0.433585
      31A     -0.416567

  @DF-RHF Final Energy:  -382.86052497086007

   => Energetics <=

    Nuclear Repulsion Energy =            353.9637062339059526
    One-Electron Energy =               -1222.8045937943663830
    Two-Electron Energy =                 485.9803625896004178
    Total Energy =                       -382.8605249708600695
  Basis Set: (AUG-CC-PVTZ AUX)
    Blend: AUG-CC-PVTZ-RI
    Molecular point group: c1

    Geometry (in Angstrom), charge = 0, multiplicity = 1:

       Center              X                  Y                   Z               Mass
    ------------   -----------------  -----------------  -----------------  -----------------
         O            1.934824246386     1.395430938746    -0.000010435789    15.994914619570
         O           -3.130044753614     0.940262938746     0.000016564211    15.994914619570
         C           -0.539088853614    -0.155209761254    -0.000009035789    12.000000000000
         C            0.860709246386    -0.753227061254     0.000017564211    12.000000000000
         C           -1.650399753614    -0.971833061254    -0.000014435789    12.000000000000
         C            2.063396246386     0.174230938746     0.000000564211    12.000000000000
         C            3.426638246386    -0.483495061254     0.000001564211    12.000000000000
         C           -2.987114753614    -0.275244061254    -0.000003435789    12.000000000000
         H           -0.526297753614     0.647061938746     0.870398564211     1.007825032230
         H           -0.526271753614     0.647033938746    -0.870445435789     1.007825032230
         H            0.942554246386    -1.416125061254    -0.873552435789     1.007825032230
         H            0.942543246386    -1.416069061254     0.873631564211     1.007825032230
         H           -1.626055753614    -1.640250061254     0.873556564211     1.007825032230
         H           -1.626061753614    -1.640239061254    -0.873593435789     1.007825032230
         H            3.540902246386    -1.122237061254    -0.881860435789     1.007825032230
         H            3.540913246386    -1.122205061254     0.881885564211     1.007825032230
         H            4.200226246386     0.285162938746    -0.000016435789     1.007825032230
         H           -3.873723753614    -0.943600061254    -0.000015435789     1.007825032230

  Basis Set: AUG-CC-PVTZ
    Blend: AUG-CC-PVTZ
  Basis Set: (AUG-CC-PVTZ AUX)
    Blend: AUG-CC-PVTZ-JKFIT
	 Reference Energy          =    -382.8605249708600695 [Eh]
	 Singles Energy            =      -0.0000000000000000 [Eh]
	 Same-Spin Energy          =      -0.3815252009114440 [Eh]
	 Opposite-Spin Energy      =      -1.2578232345605491 [Eh]
	 Correlation Energy        =      -1.6393484354719932 [Eh]
	 Total Energy              =    -384.4998734063320853 [Eh]

	 ================> DF-SCS-MP2 Energies <==================
	-----------------------------------------------------------
	 SCS Same-Spin Scale       =       0.3333333333333333 [-]
	 SCS Opposite-Spin Scale   =       1.2000000000000000 [-]
	 SCS Same-Spin Energy      =      -0.1271750669704813 [Eh]
	 SCS Opposite-Spin Energy  =      -1.5093878814726589 [Eh]
	 SCS Correlation Energy    =      -1.6365629484431403 [Eh]
	 SCS Total Energy          =    -384.4970879193032260 [Eh]
	-----------------------------------------------------------

  Dipole Moment: [D]
     X:     1.1275      Y:    -5.1676      Z:    -0.0000     Total:     5.2892

*** Psi4 exiting successfully. Buy a developer a beer!
