                               Psi4 1.4a3.dev225

  ==> Input File <==

--------------------------------------------------------------------------
#psi4
#
memory 32 gb

molecule  {
0 1
  O        1.8881650     1.4432750    -0.0000100
  O       -3.1767040     0.9881070     0.0000170
  C       -0.5155700     0.0356770    -0.0000120
  C        0.8140500    -0.7053830     0.0000180
  C       -1.6970590    -0.9239890    -0.0000140
  C        2.0167370     0.2220750     0.0000010
  C        3.3799790    -0.4356510     0.0000020
  C       -3.0337740    -0.2274000    -0.0000030
  H       -0.5729570     0.6949060     0.8703990
  H       -0.5729310     0.6948780    -0.8704450
  H        0.8958950    -1.3682810    -0.8735520
  H        0.8958840    -1.3682250     0.8736320
  H       -1.6727150    -1.5924060     0.8735570
  H       -1.6727210    -1.5923950    -0.8735930
  H        3.5151157    -1.1910726    -1.0429506
  H        3.4942540    -1.0743610     0.8818860
  H        4.1535670     0.3330070    -0.0000160
  H       -3.9203830    -0.8957560    -0.0000150
units angstrom
no_reorient  #important for SAPT in psi4, default
symmetry c1  #important for SAPT in psi4, default
}

set PROPERTIES_ORIGIN ["COM"]
properties('MP2/aug-cc-pvtz', properties = ['dipole'])
--------------------------------------------------------------------------

    Molecular point group: c1
  Charge       = 0
  Multiplicity = 1
  Basis Set: AUG-CC-PVTZ
    Blend: AUG-CC-PVTZ
  Basis Set: (AUG-CC-PVTZ AUX)
    Blend: AUG-CC-PVTZ-JKFIT

    Orbital Energies [Eh]
    ---------------------

    Doubly Occupied:

       1A    -20.560584     2A    -20.550925     3A    -11.339334
       4A    -11.338077     5A    -11.262744     6A    -11.250845
       7A    -11.247956     8A    -11.231070     9A     -1.385374
      10A     -1.381304    11A     -1.098113    12A     -1.031351
      13A     -0.977373    14A     -0.871678    15A     -0.777094
      16A     -0.740382    17A     -0.675883    18A     -0.665268
      19A     -0.655198    20A     -0.626106    21A     -0.613086
      22A     -0.606666    23A     -0.568522    24A     -0.546083
      25A     -0.518577    26A     -0.507228    27A     -0.505058
      28A     -0.486033    29A     -0.483268    30A     -0.431360
      31A     -0.413693

  @DF-RHF Final Energy:  -382.87142851278327

   => Energetics <=

    Nuclear Repulsion Energy =            352.5391670228709131
    One-Electron Energy =               -1220.1287246776264510
    Two-Electron Energy =                 484.7181291419722129
    Total Energy =                       -382.8714285127832682
  Basis Set: (AUG-CC-PVTZ AUX)
    Blend: AUG-CC-PVTZ-RI
    Molecular point group: c1

    Geometry (in Angstrom), charge = 0, multiplicity = 1:

       Center              X                  Y                   Z               Mass
    ------------   -----------------  -----------------  -----------------  -----------------
         O            1.927257070425     1.381413697599     0.001413204722    15.994914619570
         O           -3.137611929575     0.926245697599     0.001440204722    15.994914619570
         C           -0.476477929575    -0.026184302401     0.001411204722    12.000000000000
         C            0.853142070425    -0.767244302401     0.001441204722    12.000000000000
         C           -1.657966929575    -0.985850302401     0.001409204722    12.000000000000
         C            2.055829070425     0.160213697599     0.001424204722    12.000000000000
         C            3.419071070425    -0.497512302401     0.001425204722    12.000000000000
         C           -2.994681929575    -0.289261302401     0.001420204722    12.000000000000
         H           -0.533864929575     0.633044697599     0.871822204722     1.007825032230
         H           -0.533838929575     0.633016697599    -0.869021795278     1.007825032230
         H            0.934987070425    -1.430142302401    -0.872128795278     1.007825032230
         H            0.934976070425    -1.430086302401     0.875055204722     1.007825032230
         H           -1.633622929575    -1.654267302401     0.874980204722     1.007825032230
         H           -1.633628929575    -1.654256302401    -0.872169795278     1.007825032230
         H            3.554207770425    -1.252933902401    -1.041527395278     1.007825032230
         H            3.533346070425    -1.136222302401     0.883309204722     1.007825032230
         H            4.192659070425     0.271145697599     0.001407204722     1.007825032230
         H           -3.881290929575    -0.957617302401     0.001408204722     1.007825032230

  Basis Set: AUG-CC-PVTZ
    Blend: AUG-CC-PVTZ
  Basis Set: (AUG-CC-PVTZ AUX)
    Blend: AUG-CC-PVTZ-JKFIT
	 Reference Energy          =    -382.8714285127832682 [Eh]
	 Singles Energy            =      -0.0000000000000000 [Eh]
	 Same-Spin Energy          =      -0.3794529904153195 [Eh]
	 Opposite-Spin Energy      =      -1.2562027476794948 [Eh]
	 Correlation Energy        =      -1.6356557380948145 [Eh]
	 Total Energy              =    -384.5070842508781084 [Eh]

	 ================> DF-SCS-MP2 Energies <==================
	-----------------------------------------------------------
	 SCS Same-Spin Scale       =       0.3333333333333333 [-]
	 SCS Opposite-Spin Scale   =       1.2000000000000000 [-]
	 SCS Same-Spin Energy      =      -0.1264843301384398 [Eh]
	 SCS Opposite-Spin Energy  =      -1.5074432972153937 [Eh]
	 SCS Correlation Energy    =      -1.6339276273538335 [Eh]
	 SCS Total Energy          =    -384.5053561401371098 [Eh]
	-----------------------------------------------------------

  Dipole Moment: [D]
     X:     1.1211      Y:    -5.0951      Z:     0.0577     Total:     5.2173

*** Psi4 exiting successfully. Buy a developer a beer!
