                               Psi4 1.4a3.dev225

  ==> Input File <==

--------------------------------------------------------------------------
#psi4
#
memory 32 gb

molecule  {
0 1
  O        1.8881650     1.4432750    -0.0000100
  O       -3.1767040     0.9881070     0.0000170
  C       -0.5155700     0.0356770    -0.0000120
  C        0.8140500    -0.7053830     0.0000180
  C       -1.6970590    -0.9239890    -0.0000140
  C        2.0325747     0.2342884     0.0000008
  C        3.3799790    -0.4356510     0.0000020
  C       -3.0337740    -0.2274000    -0.0000030
  H       -0.5729570     0.6949060     0.8703990
  H       -0.5729310     0.6948780    -0.8704450
  H        0.8958950    -1.3682810    -0.8735520
  H        0.8958840    -1.3682250     0.8736320
  H       -1.6727150    -1.5924060     0.8735570
  H       -1.6727210    -1.5923950    -0.8735930
  H        3.4942430    -1.0743930    -0.8818600
  H        3.4942540    -1.0743610     0.8818860
  H        4.1535670     0.3330070    -0.0000160
  H       -3.9203830    -0.8957560    -0.0000150
units angstrom
no_reorient  #important for SAPT in psi4, default
symmetry c1  #important for SAPT in psi4, default
}

set PROPERTIES_ORIGIN ["COM"]
properties('MP2/aug-cc-pvtz', properties = ['dipole'])
--------------------------------------------------------------------------

    Molecular point group: c1
  Charge       = 0
  Multiplicity = 1
  Basis Set: AUG-CC-PVTZ
    Blend: AUG-CC-PVTZ
  Basis Set: (AUG-CC-PVTZ AUX)
    Blend: AUG-CC-PVTZ-JKFIT

    Orbital Energies [Eh]
    ---------------------

    Doubly Occupied:

       1A    -20.560072     2A    -20.549765     3A    -11.337546
       4A    -11.336357     5A    -11.250151     6A    -11.246919
       7A    -11.240401     8A    -11.230068     9A     -1.386595
      10A     -1.384842    11A     -1.096122    12A     -1.035498
      13A     -0.982746    14A     -0.870630    15A     -0.776476
      16A     -0.741707    17A     -0.675696    18A     -0.664270
      19A     -0.657984    20A     -0.626835    21A     -0.615214
      22A     -0.612157    23A     -0.570560    24A     -0.564501
      25A     -0.518486    26A     -0.507729    27A     -0.506371
      28A     -0.491030    29A     -0.484885    30A     -0.430679
      31A     -0.410501

  @DF-RHF Final Energy:  -382.89211970155725

   => Energetics <=

    Nuclear Repulsion Energy =            353.2418188732694944
    One-Electron Energy =               -1221.5422813240006690
    Two-Electron Energy =                 485.4083427491739258
    Total Energy =                       -382.8921197015572488
  Basis Set: (AUG-CC-PVTZ AUX)
    Blend: AUG-CC-PVTZ-RI
    Molecular point group: c1

    Geometry (in Angstrom), charge = 0, multiplicity = 1:

       Center              X                  Y                   Z               Mass
    ------------   -----------------  -----------------  -----------------  -----------------
         O            1.925775355548     1.379097945264    -0.000010057068    15.994914619570
         O           -3.139093644452     0.923929945264     0.000016942932    15.994914619570
         C           -0.477959644452    -0.028500054736    -0.000012057068    12.000000000000
         C            0.851660355548    -0.769560054736     0.000017942932    12.000000000000
         C           -1.659448644452    -0.988166054736    -0.000014057068    12.000000000000
         C            2.070185055548     0.170111345264     0.000000742932    12.000000000000
         C            3.417589355548    -0.499828054736     0.000001942932    12.000000000000
         C           -2.996163644452    -0.291577054736    -0.000003057068    12.000000000000
         H           -0.535346644452     0.630728945264     0.870398942932     1.007825032230
         H           -0.535320644452     0.630700945264    -0.870445057068     1.007825032230
         H            0.933505355548    -1.432458054736    -0.873552057068     1.007825032230
         H            0.933494355548    -1.432402054736     0.873631942932     1.007825032230
         H           -1.635104644452    -1.656583054736     0.873556942932     1.007825032230
         H           -1.635110644452    -1.656572054736    -0.873593057068     1.007825032230
         H            3.531853355548    -1.138570054736    -0.881860057068     1.007825032230
         H            3.531864355548    -1.138538054736     0.881885942932     1.007825032230
         H            4.191177355548     0.268829945264    -0.000016057068     1.007825032230
         H           -3.882772644452    -0.959933054736    -0.000015057068     1.007825032230

  Basis Set: AUG-CC-PVTZ
    Blend: AUG-CC-PVTZ
  Basis Set: (AUG-CC-PVTZ AUX)
    Blend: AUG-CC-PVTZ-JKFIT
	 Reference Energy          =    -382.8921197015572488 [Eh]
	 Singles Energy            =      -0.0000000000000000 [Eh]
	 Same-Spin Energy          =      -0.3791979040882409 [Eh]
	 Opposite-Spin Energy      =      -1.2540693275564214 [Eh]
	 Correlation Energy        =      -1.6332672316446624 [Eh]
	 Total Energy              =    -384.5253869332019008 [Eh]

	 ================> DF-SCS-MP2 Energies <==================
	-----------------------------------------------------------
	 SCS Same-Spin Scale       =       0.3333333333333333 [-]
	 SCS Opposite-Spin Scale   =       1.2000000000000000 [-]
	 SCS Same-Spin Energy      =      -0.1263993013627470 [Eh]
	 SCS Opposite-Spin Energy  =      -1.5048831930677056 [Eh]
	 SCS Correlation Energy    =      -1.6312824944304525 [Eh]
	 SCS Total Energy          =    -384.5234021959877282 [Eh]
	-----------------------------------------------------------

  Dipole Moment: [D]
     X:     1.2283      Y:    -5.1024      Z:    -0.0000     Total:     5.2481

*** Psi4 exiting successfully. Buy a developer a beer!
