                               Psi4 1.4a3.dev225

  ==> Input File <==

--------------------------------------------------------------------------
#psi4
#
memory 32 gb

molecule  {
0 1
  O        1.8881650     1.4432750    -0.0000100
  O       -3.1767040     0.9881070     0.0000170
  C       -0.5155700     0.0356770    -0.0000120
  C        0.8140500    -0.7053830     0.0000180
  C       -1.6970590    -0.9239890    -0.0000140
  C        2.0167370     0.2220750     0.0000010
  C        3.3799790    -0.4356510     0.0000020
  C       -3.0337740    -0.2274000    -0.0000030
  H       -0.5729570     0.6949060     0.8703990
  H       -0.5729310     0.6948780    -0.8704450
  H        0.8958950    -1.3682810    -0.8735520
  H        0.8958840    -1.3682250     0.8736320
  H       -1.6727150    -1.5924060     0.8735570
  H       -1.6727210    -1.5923950    -0.8735930
  H        3.4942430    -1.0743930    -0.8818600
  H        3.4942540    -1.0743610     0.8818860
  H        4.1677543     0.3471039    -0.0000163
  H       -3.9203830    -0.8957560    -0.0000150
units angstrom
no_reorient  #important for SAPT in psi4, default
symmetry c1  #important for SAPT in psi4, default
}

set PROPERTIES_ORIGIN ["COM"]
properties('MP2/aug-cc-pvtz', properties = ['dipole'])
--------------------------------------------------------------------------

    Molecular point group: c1
  Charge       = 0
  Multiplicity = 1
  Basis Set: AUG-CC-PVTZ
    Blend: AUG-CC-PVTZ
  Basis Set: (AUG-CC-PVTZ AUX)
    Blend: AUG-CC-PVTZ-JKFIT

    Orbital Energies [Eh]
    ---------------------

    Doubly Occupied:

       1A    -20.560565     2A    -20.548805     3A    -11.338057
       4A    -11.337201     5A    -11.250840     6A    -11.248119
       7A    -11.242628     8A    -11.231068     9A     -1.385347
      10A     -1.379415    11A     -1.098298    12A     -1.035221
      13A     -0.982284    14A     -0.872815    15A     -0.777176
      16A     -0.741696    17A     -0.675879    18A     -0.665703
      19A     -0.657141    20A     -0.624846    21A     -0.614937
      22A     -0.610366    23A     -0.571001    24A     -0.561469
      25A     -0.518112    26A     -0.508125    27A     -0.507157
      28A     -0.488341    29A     -0.484680    30A     -0.431074
      31A     -0.412601

  @DF-RHF Final Energy:  -382.89090507499617

   => Energetics <=

    Nuclear Repulsion Energy =            353.1941511566103031
    One-Electron Energy =               -1221.4481778533790930
    Two-Electron Energy =                 485.3631216217725637
    Total Energy =                       -382.8909050749961693
  Basis Set: (AUG-CC-PVTZ AUX)
    Blend: AUG-CC-PVTZ-RI
    Molecular point group: c1

    Geometry (in Angstrom), charge = 0, multiplicity = 1:

       Center              X                  Y                   Z               Mass
    ------------   -----------------  -----------------  -----------------  -----------------
         O            1.927316137901     1.380258248758    -0.000010075457    15.994914619570
         O           -3.137552862099     0.925090248758     0.000016924543    15.994914619570
         C           -0.476418862099    -0.027339751242    -0.000012075457    12.000000000000
         C            0.853201137901    -0.768399751242     0.000017924543    12.000000000000
         C           -1.657907862099    -0.987005751242    -0.000014075457    12.000000000000
         C            2.055888137901     0.159058248758     0.000000924543    12.000000000000
         C            3.419130137901    -0.498667751242     0.000001924543    12.000000000000
         C           -2.994622862099    -0.290416751242    -0.000003075457    12.000000000000
         H           -0.533805862099     0.631889248758     0.870398924543     1.007825032230
         H           -0.533779862099     0.631861248758    -0.870445075457     1.007825032230
         H            0.935046137901    -1.431297751242    -0.873552075457     1.007825032230
         H            0.935035137901    -1.431241751242     0.873631924543     1.007825032230
         H           -1.633563862099    -1.655422751242     0.873556924543     1.007825032230
         H           -1.633569862099    -1.655411751242    -0.873593075457     1.007825032230
         H            3.533394137901    -1.137409751242    -0.881860075457     1.007825032230
         H            3.533405137901    -1.137377751242     0.881885924543     1.007825032230
         H            4.206905437901     0.284087148758    -0.000016375457     1.007825032230
         H           -3.881231862099    -0.958772751242    -0.000015075457     1.007825032230

  Basis Set: AUG-CC-PVTZ
    Blend: AUG-CC-PVTZ
  Basis Set: (AUG-CC-PVTZ AUX)
    Blend: AUG-CC-PVTZ-JKFIT
	 Reference Energy          =    -382.8909050749961693 [Eh]
	 Singles Energy            =      -0.0000000000000000 [Eh]
	 Same-Spin Energy          =      -0.3794821070747404 [Eh]
	 Opposite-Spin Energy      =      -1.2548083798126697 [Eh]
	 Correlation Energy        =      -1.6342904868874102 [Eh]
	 Total Energy              =    -384.5251955618836064 [Eh]

	 ================> DF-SCS-MP2 Energies <==================
	-----------------------------------------------------------
	 SCS Same-Spin Scale       =       0.3333333333333333 [-]
	 SCS Opposite-Spin Scale   =       1.2000000000000000 [-]
	 SCS Same-Spin Energy      =      -0.1264940356915801 [Eh]
	 SCS Opposite-Spin Energy  =      -1.5057700557752036 [Eh]
	 SCS Correlation Energy    =      -1.6322640914667839 [Eh]
	 SCS Total Energy          =    -384.5231691664629352 [Eh]
	-----------------------------------------------------------

  Dipole Moment: [D]
     X:     1.1294      Y:    -5.1553      Z:    -0.0000     Total:     5.2776

*** Psi4 exiting successfully. Buy a developer a beer!
