                               Psi4 1.4a3.dev225

  ==> Input File <==

--------------------------------------------------------------------------
#psi4
#
memory 32 gb

molecule  {
0 1
  O        1.8881650     1.4432750    -0.0000100
  O       -3.1767040     0.9881070     0.0000170
  C       -0.5155700     0.0356770    -0.0000120
  C        0.8140500    -0.7053830     0.0000180
  C       -1.6970590    -0.9239890    -0.0000140
  C        2.0293200     0.2460334     0.0453765
  C        3.3799790    -0.4356510     0.0000020
  C       -3.0337740    -0.2274000    -0.0000030
  H       -0.5729570     0.6949060     0.8703990
  H       -0.5729310     0.6948780    -0.8704450
  H        0.8958950    -1.3682810    -0.8735520
  H        0.8958840    -1.3682250     0.8736320
  H       -1.6727150    -1.5924060     0.8735570
  H       -1.6727210    -1.5923950    -0.8735930
  H        3.4942430    -1.0743930    -0.8818600
  H        3.4942540    -1.0743610     0.8818860
  H        4.1535670     0.3330070    -0.0000160
  H       -3.9203830    -0.8957560    -0.0000150
units angstrom
no_reorient  #important for SAPT in psi4, default
symmetry c1  #important for SAPT in psi4, default
}

set PROPERTIES_ORIGIN ["COM"]
properties('MP2/aug-cc-pvtz', properties = ['dipole'])
--------------------------------------------------------------------------

    Molecular point group: c1
  Charge       = 0
  Multiplicity = 1
  Basis Set: AUG-CC-PVTZ
    Blend: AUG-CC-PVTZ
  Basis Set: (AUG-CC-PVTZ AUX)
    Blend: AUG-CC-PVTZ-JKFIT

    Orbital Energies [Eh]
    ---------------------

    Doubly Occupied:

       1A    -20.559987     2A    -20.550996     3A    -11.337427
       4A    -11.335673     5A    -11.249964     6A    -11.246318
       7A    -11.239758     8A    -11.229812     9A     -1.394575
      10A     -1.384780    11A     -1.095603    12A     -1.033192
      13A     -0.981462    14A     -0.869690    15A     -0.776343
      16A     -0.741706    17A     -0.675815    18A     -0.664076
      19A     -0.658844    20A     -0.628046    21A     -0.615032
      22A     -0.611671    23A     -0.569858    24A     -0.565504
      25A     -0.518367    26A     -0.508465    27A     -0.506519
      28A     -0.494495    29A     -0.484965    30A     -0.430456
      31A     -0.408342

  @DF-RHF Final Energy:  -382.89173915054937

   => Energetics <=

    Nuclear Repulsion Energy =            353.3069670458208975
    One-Electron Energy =               -1221.6619291038375650
    Two-Electron Energy =                 485.4632229074672978
    Total Energy =                       -382.8917391505493697
  Basis Set: (AUG-CC-PVTZ AUX)
    Blend: AUG-CC-PVTZ-RI
    Molecular point group: c1

    Geometry (in Angstrom), charge = 0, multiplicity = 1:

       Center              X                  Y                   Z               Mass
    ------------   -----------------  -----------------  -----------------  -----------------
         O            1.926117751074     1.377862367348    -0.004783595836    15.994914619570
         O           -3.138751248926     0.922694367348    -0.004756595836    15.994914619570
         C           -0.477617248926    -0.029735632652    -0.004785595836    12.000000000000
         C            0.852002751074    -0.770795632652    -0.004755595836    12.000000000000
         C           -1.659106248926    -0.989401632652    -0.004787595836    12.000000000000
         C            2.067272751074     0.180620767348     0.040602904164    12.000000000000
         C            3.417931751074    -0.501063632652    -0.004771595836    12.000000000000
         C           -2.995821248926    -0.292812632652    -0.004776595836    12.000000000000
         H           -0.535004248926     0.629493367348     0.865625404164     1.007825032230
         H           -0.534978248926     0.629465367348    -0.875218595836     1.007825032230
         H            0.933847751074    -1.433693632652    -0.878325595836     1.007825032230
         H            0.933836751074    -1.433637632652     0.868858404164     1.007825032230
         H           -1.634762248926    -1.657818632652     0.868783404164     1.007825032230
         H           -1.634768248926    -1.657807632652    -0.878366595836     1.007825032230
         H            3.532195751074    -1.139805632652    -0.886633595836     1.007825032230
         H            3.532206751074    -1.139773632652     0.877112404164     1.007825032230
         H            4.191519751074     0.267594367348    -0.004789595836     1.007825032230
         H           -3.882430248926    -0.961168632652    -0.004788595836     1.007825032230

  Basis Set: AUG-CC-PVTZ
    Blend: AUG-CC-PVTZ
  Basis Set: (AUG-CC-PVTZ AUX)
    Blend: AUG-CC-PVTZ-JKFIT
	 Reference Energy          =    -382.8917391505493697 [Eh]
	 Singles Energy            =      -0.0000000000000000 [Eh]
	 Same-Spin Energy          =      -0.3789131177973767 [Eh]
	 Opposite-Spin Energy      =      -1.2535475398072693 [Eh]
	 Correlation Energy        =      -1.6324606576046461 [Eh]
	 Total Energy              =    -384.5241998081540373 [Eh]

	 ================> DF-SCS-MP2 Energies <==================
	-----------------------------------------------------------
	 SCS Same-Spin Scale       =       0.3333333333333333 [-]
	 SCS Opposite-Spin Scale   =       1.2000000000000000 [-]
	 SCS Same-Spin Energy      =      -0.1263043725991256 [Eh]
	 SCS Opposite-Spin Energy  =      -1.5042570477687232 [Eh]
	 SCS Correlation Energy    =      -1.6305614203678487 [Eh]
	 SCS Total Energy          =    -384.5223005709171957 [Eh]
	-----------------------------------------------------------

  Dipole Moment: [D]
     X:     1.2148      Y:    -5.0443      Z:     0.0167     Total:     5.1886

*** Psi4 exiting successfully. Buy a developer a beer!
