                               Psi4 1.4a3.dev225

  ==> Input File <==

--------------------------------------------------------------------------
#psi4
#
memory 32 gb

molecule  {
0 1
  O        1.8881650     1.4432750    -0.0000100
  O       -3.1767040     0.9881070     0.0000170
  C       -0.5155700     0.0356770    -0.0000120
  C        0.8140500    -0.7053830     0.0000180
  C       -1.6970590    -0.9239890    -0.0000140
  C        2.0146429     0.2419651     0.0000008
  C        3.3799790    -0.4356510     0.0000020
  C       -3.0337740    -0.2274000    -0.0000030
  H       -0.5729570     0.6949060     0.8703990
  H       -0.5729310     0.6948780    -0.8704450
  H        0.8958950    -1.3682810    -0.8735520
  H        0.8958840    -1.3682250     0.8736320
  H       -1.6727150    -1.5924060     0.8735570
  H       -1.6727210    -1.5923950    -0.8735930
  H        3.4942430    -1.0743930    -0.8818600
  H        3.4942540    -1.0743610     0.8818860
  H        4.1535670     0.3330070    -0.0000160
  H       -3.9203830    -0.8957560    -0.0000150
units angstrom
no_reorient  #important for SAPT in psi4, default
symmetry c1  #important for SAPT in psi4, default
}

set PROPERTIES_ORIGIN ["COM"]
properties('MP2/aug-cc-pvtz', properties = ['dipole'])
--------------------------------------------------------------------------

    Molecular point group: c1
  Charge       = 0
  Multiplicity = 1
  Basis Set: AUG-CC-PVTZ
    Blend: AUG-CC-PVTZ
  Basis Set: (AUG-CC-PVTZ AUX)
    Blend: AUG-CC-PVTZ-JKFIT

    Orbital Energies [Eh]
    ---------------------

    Doubly Occupied:

       1A    -20.560330     2A    -20.550488     3A    -11.337767
       4A    -11.335522     5A    -11.250415     6A    -11.246824
       7A    -11.239233     8A    -11.230456     9A     -1.393256
      10A     -1.385114    11A     -1.097118    12A     -1.032550
      13A     -0.981152    14A     -0.871331    15A     -0.776856
      16A     -0.741811    17A     -0.676061    18A     -0.664982
      19A     -0.658943    20A     -0.627098    21A     -0.614399
      22A     -0.611679    23A     -0.569751    24A     -0.565452
      25A     -0.518733    26A     -0.508808    27A     -0.507188
      28A     -0.494112    29A     -0.485621    30A     -0.430695
      31A     -0.409237

  @DF-RHF Final Energy:  -382.89298996084648

   => Energetics <=

    Nuclear Repulsion Energy =            353.4123988179657090
    One-Electron Energy =               -1221.8648140690984292
    Two-Electron Energy =                 485.5594252902862422
    Total Energy =                       -382.8929899608464780
  Basis Set: (AUG-CC-PVTZ AUX)
    Blend: AUG-CC-PVTZ-RI
    Molecular point group: c1

    Geometry (in Angstrom), charge = 0, multiplicity = 1:

       Center              X                  Y                   Z               Mass
    ------------   -----------------  -----------------  -----------------  -----------------
         O            1.927661786887     1.378290353864    -0.000010057068    15.994914619570
         O           -3.137207213113     0.923122353864     0.000016942932    15.994914619570
         C           -0.476073213113    -0.029307646136    -0.000012057068    12.000000000000
         C            0.853546786887    -0.770367646136     0.000017942932    12.000000000000
         C           -1.657562213113    -0.988973646136    -0.000014057068    12.000000000000
         C            2.054139686887     0.176980453864     0.000000742932    12.000000000000
         C            3.419475786887    -0.500635646136     0.000001942932    12.000000000000
         C           -2.994277213113    -0.292384646136    -0.000003057068    12.000000000000
         H           -0.533460213113     0.629921353864     0.870398942932     1.007825032230
         H           -0.533434213113     0.629893353864    -0.870445057068     1.007825032230
         H            0.935391786887    -1.433265646136    -0.873552057068     1.007825032230
         H            0.935380786887    -1.433209646136     0.873631942932     1.007825032230
         H           -1.633218213113    -1.657390646136     0.873556942932     1.007825032230
         H           -1.633224213113    -1.657379646136    -0.873593057068     1.007825032230
         H            3.533739786887    -1.139377646136    -0.881860057068     1.007825032230
         H            3.533750786887    -1.139345646136     0.881885942932     1.007825032230
         H            4.193063786887     0.268022353864    -0.000016057068     1.007825032230
         H           -3.880886213113    -0.960740646136    -0.000015057068     1.007825032230

  Basis Set: AUG-CC-PVTZ
    Blend: AUG-CC-PVTZ
  Basis Set: (AUG-CC-PVTZ AUX)
    Blend: AUG-CC-PVTZ-JKFIT
	 Reference Energy          =    -382.8929899608464780 [Eh]
	 Singles Energy            =      -0.0000000000000000 [Eh]
	 Same-Spin Energy          =      -0.3789010314015010 [Eh]
	 Opposite-Spin Energy      =      -1.2534996407699679 [Eh]
	 Correlation Energy        =      -1.6324006721714688 [Eh]
	 Total Energy              =    -384.5253906330179348 [Eh]

	 ================> DF-SCS-MP2 Energies <==================
	-----------------------------------------------------------
	 SCS Same-Spin Scale       =       0.3333333333333333 [-]
	 SCS Opposite-Spin Scale   =       1.2000000000000000 [-]
	 SCS Same-Spin Energy      =      -0.1263003438005003 [Eh]
	 SCS Opposite-Spin Energy  =      -1.5041995689239613 [Eh]
	 SCS Correlation Energy    =      -1.6304999127244617 [Eh]
	 SCS Total Energy          =    -384.5234898735709521 [Eh]
	-----------------------------------------------------------

  Dipole Moment: [D]
     X:     1.1325      Y:    -5.0640      Z:    -0.0000     Total:     5.1891

*** Psi4 exiting successfully. Buy a developer a beer!
