                               Psi4 1.4a3.dev225

  ==> Input File <==

--------------------------------------------------------------------------
#psi4
#
memory 32 gb

molecule  {
0 1
  O        1.8881650     1.4432750    -0.0000100
  O       -3.1767040     0.9881070     0.0000170
  C       -0.5155700     0.0356770    -0.0000120
  C        0.8140500    -0.7053830     0.0000180
  C       -1.6970590    -0.9239890    -0.0000140
  C        2.0167370     0.2220750     0.0000010
  C        3.3799790    -0.4356510     0.0000020
  C       -3.0337740    -0.2274000    -0.0000030
  H       -0.5755813     0.7250522     0.9102025
  H       -0.5729310     0.6948780    -0.8704450
  H        0.8958950    -1.3682810    -0.8735520
  H        0.8958840    -1.3682250     0.8736320
  H       -1.6727150    -1.5924060     0.8735570
  H       -1.6727210    -1.5923950    -0.8735930
  H        3.4942430    -1.0743930    -0.8818600
  H        3.4942540    -1.0743610     0.8818860
  H        4.1535670     0.3330070    -0.0000160
  H       -3.9203830    -0.8957560    -0.0000150
units angstrom
no_reorient  #important for SAPT in psi4, default
symmetry c1  #important for SAPT in psi4, default
}

set PROPERTIES_ORIGIN ["COM"]
properties('MP2/aug-cc-pvtz', properties = ['dipole'])
--------------------------------------------------------------------------

    Molecular point group: c1
  Charge       = 0
  Multiplicity = 1
  Basis Set: AUG-CC-PVTZ
    Blend: AUG-CC-PVTZ
  Basis Set: (AUG-CC-PVTZ AUX)
    Blend: AUG-CC-PVTZ-JKFIT

    Orbital Energies [Eh]
    ---------------------

    Doubly Occupied:

       1A    -20.560451     2A    -20.548716     3A    -11.337985
       4A    -11.337057     5A    -11.251186     6A    -11.248370
       7A    -11.240431     8A    -11.236686     9A     -1.385205
      10A     -1.379326    11A     -1.097178    12A     -1.035728
      13A     -0.983031    14A     -0.870514    15A     -0.775595
      16A     -0.741619    17A     -0.675914    18A     -0.663674
      19A     -0.657023    20A     -0.624623    21A     -0.614686
      22A     -0.611616    23A     -0.570599    24A     -0.563662
      25A     -0.519399    26A     -0.507931    27A     -0.503874
      28A     -0.487390    29A     -0.481583    30A     -0.430981
      31A     -0.412523

  @DF-RHF Final Energy:  -382.88923173110334

   => Energetics <=

    Nuclear Repulsion Energy =            353.0553119920547829
    One-Electron Energy =               -1221.1799789390497608
    Two-Electron Energy =                 485.2354352158915844
    Total Energy =                       -382.8892317311033366
  Basis Set: (AUG-CC-PVTZ AUX)
    Blend: AUG-CC-PVTZ-RI
    Molecular point group: c1

    Geometry (in Angstrom), charge = 0, multiplicity = 1:

       Center              X                  Y                   Z               Mass
    ------------   -----------------  -----------------  -----------------  -----------------
         O            1.927464673331     1.380116448472    -0.000361753737    15.994914619570
         O           -3.137404326669     0.924948448472    -0.000334753737    15.994914619570
         C           -0.476270326669    -0.027481551528    -0.000363753737    12.000000000000
         C            0.853349673331    -0.768541551528    -0.000333753737    12.000000000000
         C           -1.657759326669    -0.987147551528    -0.000365753737    12.000000000000
         C            2.056036673331     0.158916448472    -0.000350753737    12.000000000000
         C            3.419278673331    -0.498809551528    -0.000349753737    12.000000000000
         C           -2.994474326669    -0.290558551528    -0.000354753737    12.000000000000
         H           -0.536281626669     0.661893648472     0.909850746263     1.007825032230
         H           -0.533631326669     0.631719448472    -0.870796753737     1.007825032230
         H            0.935194673331    -1.431439551528    -0.873903753737     1.007825032230
         H            0.935183673331    -1.431383551528     0.873280246263     1.007825032230
         H           -1.633415326669    -1.655564551528     0.873205246263     1.007825032230
         H           -1.633421326669    -1.655553551528    -0.873944753737     1.007825032230
         H            3.533542673331    -1.137551551528    -0.882211753737     1.007825032230
         H            3.533553673331    -1.137519551528     0.881534246263     1.007825032230
         H            4.192866673331     0.269848448472    -0.000367753737     1.007825032230
         H           -3.881083326669    -0.958914551528    -0.000366753737     1.007825032230

  Basis Set: AUG-CC-PVTZ
    Blend: AUG-CC-PVTZ
  Basis Set: (AUG-CC-PVTZ AUX)
    Blend: AUG-CC-PVTZ-JKFIT
	 Reference Energy          =    -382.8892317311033366 [Eh]
	 Singles Energy            =      -0.0000000000000000 [Eh]
	 Same-Spin Energy          =      -0.3795372824848336 [Eh]
	 Opposite-Spin Energy      =      -1.2550896457890484 [Eh]
	 Correlation Energy        =      -1.6346269282738819 [Eh]
	 Total Energy              =    -384.5238586593771970 [Eh]

	 ================> DF-SCS-MP2 Energies <==================
	-----------------------------------------------------------
	 SCS Same-Spin Scale       =       0.3333333333333333 [-]
	 SCS Opposite-Spin Scale   =       1.2000000000000000 [-]
	 SCS Same-Spin Energy      =      -0.1265124274949445 [Eh]
	 SCS Opposite-Spin Energy  =      -1.5061075749468580 [Eh]
	 SCS Correlation Energy    =      -1.6326200024418025 [Eh]
	 SCS Total Energy          =    -384.5218517335451338 [Eh]
	-----------------------------------------------------------

  Dipole Moment: [D]
     X:     1.1394      Y:    -5.1633      Z:    -0.0139     Total:     5.2875

*** Psi4 exiting successfully. Buy a developer a beer!
