                               Psi4 1.4a3.dev225

  ==> Input File <==

--------------------------------------------------------------------------
#psi4
#
memory 32 gb

molecule  {
0 1
  O        1.8881650     1.4432750    -0.0000100
  O       -3.1767040     0.9881070     0.0000170
  C       -0.5155700     0.0356770    -0.0000120
  C        0.8140500    -0.7053830     0.0000180
  C       -1.6970590    -0.9239890    -0.0000140
  C        2.0167370     0.2220750     0.0000010
  C        3.3799790    -0.4356510     0.0000020
  C       -3.0337740    -0.2274000    -0.0000030
  H       -0.5729570     0.6949060     0.8703990
  H       -0.5729310     0.6948780    -0.8704450
  H        0.8958950    -1.3682810    -0.8735520
  H        0.8958840    -1.3682250     0.8736320
  H       -1.6727150    -1.5924060     0.8735570
  H       -1.6727210    -1.5923950    -0.8735930
  H        3.4942430    -1.0743930    -0.8818600
  H        3.4942540    -1.0743610     0.8818860
  H        4.1180988     0.2977649    -0.0000152
  H       -3.9203830    -0.8957560    -0.0000150
units angstrom
no_reorient  #important for SAPT in psi4, default
symmetry c1  #important for SAPT in psi4, default
}

set PROPERTIES_ORIGIN ["COM"]
properties('MP2/aug-cc-pvtz', properties = ['dipole'])
--------------------------------------------------------------------------

    Molecular point group: c1
  Charge       = 0
  Multiplicity = 1
  Basis Set: AUG-CC-PVTZ
    Blend: AUG-CC-PVTZ
  Basis Set: (AUG-CC-PVTZ AUX)
    Blend: AUG-CC-PVTZ-JKFIT

    Orbital Energies [Eh]
    ---------------------

    Doubly Occupied:

       1A    -20.560425     2A    -20.548802     3A    -11.337908
       4A    -11.336811     5A    -11.250643     6A    -11.247582
       7A    -11.234735     8A    -11.230773     9A     -1.385209
      10A     -1.379472    11A     -1.098056    12A     -1.037288
      13A     -0.985503    14A     -0.874025    15A     -0.777119
      16A     -0.742918    17A     -0.675916    18A     -0.665410
      19A     -0.657131    20A     -0.626481    21A     -0.614692
      22A     -0.614563    23A     -0.570582    24A     -0.568588
      25A     -0.520890    26A     -0.507931    27A     -0.506893
      28A     -0.488231    29A     -0.484533    30A     -0.430901
      31A     -0.412290

  @DF-RHF Final Energy:  -382.89048961904251

   => Energetics <=

    Nuclear Repulsion Energy =            353.5020344976702518
    One-Electron Energy =               -1222.0404466345262335
    Two-Electron Energy =                 485.6479225178134698
    Total Energy =                       -382.8904896190425120
  Basis Set: (AUG-CC-PVTZ AUX)
    Blend: AUG-CC-PVTZ-RI
    Molecular point group: c1

    Geometry (in Angstrom), charge = 0, multiplicity = 1:

       Center              X                  Y                   Z               Mass
    ------------   -----------------  -----------------  -----------------  -----------------
         O            1.927754858848     1.380694173335    -0.000010085176    15.994914619570
         O           -3.137114141152     0.925526173335     0.000016914824    15.994914619570
         C           -0.475980141152    -0.026903826665    -0.000012085176    12.000000000000
         C            0.853639858848    -0.767963826665     0.000017914824    12.000000000000
         C           -1.657469141152    -0.986569826665    -0.000014085176    12.000000000000
         C            2.056326858848     0.159494173335     0.000000914824    12.000000000000
         C            3.419568858848    -0.498231826665     0.000001914824    12.000000000000
         C           -2.994184141152    -0.289980826665    -0.000003085176    12.000000000000
         H           -0.533367141152     0.632325173335     0.870398914824     1.007825032230
         H           -0.533341141152     0.632297173335    -0.870445085176     1.007825032230
         H            0.935484858848    -1.430861826665    -0.873552085176     1.007825032230
         H            0.935473858848    -1.430805826665     0.873631914824     1.007825032230
         H           -1.633125141152    -1.654986826665     0.873556914824     1.007825032230
         H           -1.633131141152    -1.654975826665    -0.873593085176     1.007825032230
         H            3.533832858848    -1.136973826665    -0.881860085176     1.007825032230
         H            3.533843858848    -1.136941826665     0.881885914824     1.007825032230
         H            4.157688658848     0.235184073335    -0.000015285176     1.007825032230
         H           -3.880793141152    -0.958336826665    -0.000015085176     1.007825032230

  Basis Set: AUG-CC-PVTZ
    Blend: AUG-CC-PVTZ
  Basis Set: (AUG-CC-PVTZ AUX)
    Blend: AUG-CC-PVTZ-JKFIT
	 Reference Energy          =    -382.8904896190425120 [Eh]
	 Singles Energy            =      -0.0000000000000000 [Eh]
	 Same-Spin Energy          =      -0.3794596147038771 [Eh]
	 Opposite-Spin Energy      =      -1.2543719578319217 [Eh]
	 Correlation Energy        =      -1.6338315725357988 [Eh]
	 Total Energy              =    -384.5243211915783377 [Eh]

	 ================> DF-SCS-MP2 Energies <==================
	-----------------------------------------------------------
	 SCS Same-Spin Scale       =       0.3333333333333333 [-]
	 SCS Opposite-Spin Scale   =       1.2000000000000000 [-]
	 SCS Same-Spin Energy      =      -0.1264865382346257 [Eh]
	 SCS Opposite-Spin Energy  =      -1.5052463493983059 [Eh]
	 SCS Correlation Energy    =      -1.6317328876329316 [Eh]
	 SCS Total Energy          =    -384.5222225066754618 [Eh]
	-----------------------------------------------------------

  Dipole Moment: [D]
     X:     1.1572      Y:    -5.1530      Z:    -0.0000     Total:     5.2813

*** Psi4 exiting successfully. Buy a developer a beer!
