                               Psi4 1.4a3.dev225

  ==> Input File <==

--------------------------------------------------------------------------
#psi4
#
memory 32 gb

molecule  {
0 1
  O        1.8881650     1.4432750    -0.0000100
  O       -3.1767040     0.9881070     0.0000170
  C       -0.5155700     0.0356770    -0.0000120
  C        0.8140500    -0.7053830     0.0000180
  C       -1.6970590    -0.9239890    -0.0000140
  C        2.0167370     0.2220750     0.0000010
  C        3.3799790    -0.4356510     0.0000020
  C       -3.0337740    -0.2274000    -0.0000030
  H       -0.5729570     0.6949060     0.8703990
  H       -0.5729310     0.6948780    -0.8704450
  H        0.8958950    -1.3682810    -0.8735520
  H        0.9107675    -1.4887787     1.0325197
  H       -1.6727150    -1.5924060     0.8735570
  H       -1.6727210    -1.5923950    -0.8735930
  H        3.4942430    -1.0743930    -0.8818600
  H        3.4942540    -1.0743610     0.8818860
  H        4.1535670     0.3330070    -0.0000160
  H       -3.9203830    -0.8957560    -0.0000150
units angstrom
no_reorient  #important for SAPT in psi4, default
symmetry c1  #important for SAPT in psi4, default
}

set PROPERTIES_ORIGIN ["COM"]
properties('MP2/aug-cc-pvtz', properties = ['dipole'])
--------------------------------------------------------------------------

    Molecular point group: c1
  Charge       = 0
  Multiplicity = 1
  Basis Set: AUG-CC-PVTZ
    Blend: AUG-CC-PVTZ
  Basis Set: (AUG-CC-PVTZ AUX)
    Blend: AUG-CC-PVTZ-JKFIT

    Orbital Energies [Eh]
    ---------------------

    Doubly Occupied:

       1A    -20.560956     2A    -20.550709     3A    -11.339305
       4A    -11.338459     5A    -11.270589     6A    -11.251227
       7A    -11.240215     8A    -11.233702     9A     -1.385806
      10A     -1.381176    11A     -1.095907    12A     -1.034071
      13A     -0.980418    14A     -0.870718    15A     -0.777232
      16A     -0.737655    17A     -0.676312    18A     -0.662610
      19A     -0.652887    20A     -0.625826    21A     -0.613765
      22A     -0.608847    23A     -0.566220    24A     -0.559431
      25A     -0.520369    26A     -0.509163    27A     -0.503005
      28A     -0.489219    29A     -0.474883    30A     -0.431870
      31A     -0.413698

  @DF-RHF Final Energy:  -382.87186851869842

   => Energetics <=

    Nuclear Repulsion Energy =            352.4139805603771833
    One-Electron Energy =               -1219.8592030107802202
    Two-Electron Energy =                 484.5733539317045597
    Total Energy =                       -382.8718685186984203
  Basis Set: (AUG-CC-PVTZ AUX)
    Blend: AUG-CC-PVTZ-RI
    Molecular point group: c1

    Geometry (in Angstrom), charge = 0, multiplicity = 1:

       Center              X                  Y                   Z               Mass
    ------------   -----------------  -----------------  -----------------  -----------------
         O            1.927309986769     1.381447926412    -0.001413897669    15.994914619570
         O           -3.137559013231     0.926279926412    -0.001386897669    15.994914619570
         C           -0.476425013231    -0.026150073588    -0.001415897669    12.000000000000
         C            0.853194986769    -0.767210073588    -0.001385897669    12.000000000000
         C           -1.657914013231    -0.985816073588    -0.001417897669    12.000000000000
         C            2.055881986769     0.160247926412    -0.001402897669    12.000000000000
         C            3.419123986769    -0.497478073588    -0.001401897669    12.000000000000
         C           -2.994629013231    -0.289227073588    -0.001406897669    12.000000000000
         H           -0.533812013231     0.633078926412     0.868995102331     1.007825032230
         H           -0.533786013231     0.633050926412    -0.871848897669     1.007825032230
         H            0.935039986769    -1.430108073588    -0.874955897669     1.007825032230
         H            0.949912486769    -1.550605773588     1.031115802331     1.007825032230
         H           -1.633570013231    -1.654233073588     0.872153102331     1.007825032230
         H           -1.633576013231    -1.654222073588    -0.874996897669     1.007825032230
         H            3.533387986769    -1.136220073588    -0.883263897669     1.007825032230
         H            3.533398986769    -1.136188073588     0.880482102331     1.007825032230
         H            4.192711986769     0.271179926412    -0.001419897669     1.007825032230
         H           -3.881238013231    -0.957583073588    -0.001418897669     1.007825032230

  Basis Set: AUG-CC-PVTZ
    Blend: AUG-CC-PVTZ
  Basis Set: (AUG-CC-PVTZ AUX)
    Blend: AUG-CC-PVTZ-JKFIT
	 Reference Energy          =    -382.8718685186984203 [Eh]
	 Singles Energy            =      -0.0000000000000000 [Eh]
	 Same-Spin Energy          =      -0.3795975566457704 [Eh]
	 Opposite-Spin Energy      =      -1.2563150495442192 [Eh]
	 Correlation Energy        =      -1.6359126061899896 [Eh]
	 Total Energy              =    -384.5077811248884245 [Eh]

	 ================> DF-SCS-MP2 Energies <==================
	-----------------------------------------------------------
	 SCS Same-Spin Scale       =       0.3333333333333333 [-]
	 SCS Opposite-Spin Scale   =       1.2000000000000000 [-]
	 SCS Same-Spin Energy      =      -0.1265325188819235 [Eh]
	 SCS Opposite-Spin Energy  =      -1.5075780594530630 [Eh]
	 SCS Correlation Energy    =      -1.6341105783349865 [Eh]
	 SCS Total Energy          =    -384.5059790970333893 [Eh]
	-----------------------------------------------------------

  Dipole Moment: [D]
     X:     1.0945      Y:    -5.0613      Z:    -0.0778     Total:     5.1788

*** Psi4 exiting successfully. Buy a developer a beer!
