                               Psi4 1.4a3.dev225

  ==> Input File <==

--------------------------------------------------------------------------
#psi4
#
memory 32 gb

molecule  {
0 1
  O        1.8881650     1.4432750    -0.0000100
  O       -3.1767040     0.9881070     0.0000170
  C       -0.4308243     0.1706005    -0.0000151
  C        0.8140500    -0.7053830     0.0000180
  C       -1.6970590    -0.9239890    -0.0000140
  C        2.0167370     0.2220750     0.0000010
  C        3.3799790    -0.4356510     0.0000020
  C       -3.0337740    -0.2274000    -0.0000030
  H       -0.5729570     0.6949060     0.8703990
  H       -0.5729310     0.6948780    -0.8704450
  H        0.8958950    -1.3682810    -0.8735520
  H        0.8958840    -1.3682250     0.8736320
  H       -1.6727150    -1.5924060     0.8735570
  H       -1.6727210    -1.5923950    -0.8735930
  H        3.4942430    -1.0743930    -0.8818600
  H        3.4942540    -1.0743610     0.8818860
  H        4.1535670     0.3330070    -0.0000160
  H       -3.9203830    -0.8957560    -0.0000150
units angstrom
no_reorient  #important for SAPT in psi4, default
symmetry c1  #important for SAPT in psi4, default
}

set PROPERTIES_ORIGIN ["COM"]
properties('MP2/aug-cc-pvtz', properties = ['dipole'])
--------------------------------------------------------------------------

    Molecular point group: c1
  Charge       = 0
  Multiplicity = 1
  Basis Set: AUG-CC-PVTZ
    Blend: AUG-CC-PVTZ
  Basis Set: (AUG-CC-PVTZ AUX)
    Blend: AUG-CC-PVTZ-JKFIT

    Orbital Energies [Eh]
    ---------------------

    Doubly Occupied:

       1A    -20.557563     2A    -20.548974     3A    -11.335200
       4A    -11.334996     5A    -11.251036     6A    -11.249465
       7A    -11.239277     8A    -11.231188     9A     -1.382490
      10A     -1.380405    11A     -1.088093    12A     -1.028502
      13A     -0.982612    14A     -0.877702    15A     -0.777412
      16A     -0.740529    17A     -0.672344    18A     -0.670307
      19A     -0.654954    20A     -0.627012    21A     -0.612290
      22A     -0.606662    23A     -0.574720    24A     -0.561597
      25A     -0.528572    26A     -0.525489    27A     -0.496255
      28A     -0.487413    29A     -0.472524    30A     -0.427204
      31A     -0.407125

  @DF-RHF Final Energy:  -382.87048351964535

   => Energetics <=

    Nuclear Repulsion Energy =            352.7270283669799937
    One-Electron Energy =               -1220.5352073823955834
    Two-Electron Energy =                 484.9376954957702424
    Total Energy =                       -382.8704835196453473
  Basis Set: (AUG-CC-PVTZ AUX)
    Blend: AUG-CC-PVTZ-RI
    Molecular point group: c1

    Geometry (in Angstrom), charge = 0, multiplicity = 1:

       Center              X                  Y                   Z               Mass
    ------------   -----------------  -----------------  -----------------  -----------------
         O            1.918526210975     1.366188801832    -0.000009751987    15.994914619570
         O           -3.146342789025     0.911020801832     0.000017248013    15.994914619570
         C           -0.400463089025     0.093514301832    -0.000014851987    12.000000000000
         C            0.844411210975    -0.782469198168     0.000018248013    12.000000000000
         C           -1.666697789025    -1.001075198168    -0.000013751987    12.000000000000
         C            2.047098210975     0.144988801832     0.000001248013    12.000000000000
         C            3.410340210975    -0.512737198168     0.000002248013    12.000000000000
         C           -3.003412789025    -0.304486198168    -0.000002751987    12.000000000000
         H           -0.542595789025     0.617819801832     0.870399248013     1.007825032230
         H           -0.542569789025     0.617791801832    -0.870444751987     1.007825032230
         H            0.926256210975    -1.445367198168    -0.873551751987     1.007825032230
         H            0.926245210975    -1.445311198168     0.873632248013     1.007825032230
         H           -1.642353789025    -1.669492198168     0.873557248013     1.007825032230
         H           -1.642359789025    -1.669481198168    -0.873592751987     1.007825032230
         H            3.524604210975    -1.151479198168    -0.881859751987     1.007825032230
         H            3.524615210975    -1.151447198168     0.881886248013     1.007825032230
         H            4.183928210975     0.255920801832    -0.000015751987     1.007825032230
         H           -3.890021789025    -0.972842198168    -0.000014751987     1.007825032230

  Basis Set: AUG-CC-PVTZ
    Blend: AUG-CC-PVTZ
  Basis Set: (AUG-CC-PVTZ AUX)
    Blend: AUG-CC-PVTZ-JKFIT
	 Reference Energy          =    -382.8704835196453473 [Eh]
	 Singles Energy            =      -0.0000000000000000 [Eh]
	 Same-Spin Energy          =      -0.3793196079655425 [Eh]
	 Opposite-Spin Energy      =      -1.2552001096289724 [Eh]
	 Correlation Energy        =      -1.6345197175945150 [Eh]
	 Total Energy              =    -384.5050032372398618 [Eh]

	 ================> DF-SCS-MP2 Energies <==================
	-----------------------------------------------------------
	 SCS Same-Spin Scale       =       0.3333333333333333 [-]
	 SCS Opposite-Spin Scale   =       1.2000000000000000 [-]
	 SCS Same-Spin Energy      =      -0.1264398693218475 [Eh]
	 SCS Opposite-Spin Energy  =      -1.5062401315547669 [Eh]
	 SCS Correlation Energy    =      -1.6326800008766145 [Eh]
	 SCS Total Energy          =    -384.5031635205219800 [Eh]
	-----------------------------------------------------------

  Dipole Moment: [D]
     X:     1.2201      Y:    -5.1260      Z:    -0.0000     Total:     5.2692

*** Psi4 exiting successfully. Buy a developer a beer!
