                               Psi4 1.4a3.dev225

  ==> Input File <==

--------------------------------------------------------------------------
#psi4
#
memory 32 gb

molecule  {
0 1
  O        1.8881650     1.4432750    -0.0000100
  O       -3.1767040     0.9881070     0.0000170
  C       -0.5155700     0.0356770    -0.0000120
  C        0.8140500    -0.7053830     0.0000180
  C       -1.6970590    -0.9239890    -0.0000140
  C        2.0228218     0.2341562     0.0226922
  C        3.3799790    -0.4356510     0.0000020
  C       -3.0337740    -0.2274000    -0.0000030
  H       -0.5729570     0.6949060     0.8703990
  H       -0.5729310     0.6948780    -0.8704450
  H        0.8958950    -1.3682810    -0.8735520
  H        0.8958840    -1.3682250     0.8736320
  H       -1.6727150    -1.5924060     0.8735570
  H       -1.6727210    -1.5923950    -0.8735930
  H        3.4942430    -1.0743930    -0.8818600
  H        3.4942540    -1.0743610     0.8818860
  H        4.1535670     0.3330070    -0.0000160
  H       -3.9203830    -0.8957560    -0.0000150
units angstrom
no_reorient  #important for SAPT in psi4, default
symmetry c1  #important for SAPT in psi4, default
}

set PROPERTIES_ORIGIN ["COM"]
properties('MP2/aug-cc-pvtz', properties = ['dipole'])
--------------------------------------------------------------------------

    Molecular point group: c1
  Charge       = 0
  Multiplicity = 1
  Basis Set: AUG-CC-PVTZ
    Blend: AUG-CC-PVTZ
  Basis Set: (AUG-CC-PVTZ AUX)
    Blend: AUG-CC-PVTZ-JKFIT

    Orbital Energies [Eh]
    ---------------------

    Doubly Occupied:

       1A    -20.560261     2A    -20.549847     3A    -11.337726
       4A    -11.336289     5A    -11.250382     6A    -11.247148
       7A    -11.240028     8A    -11.230404     9A     -1.387140
      10A     -1.385030    11A     -1.096914    12A     -1.034431
      13A     -0.982315    14A     -0.871428    15A     -0.776757
      16A     -0.741811    17A     -0.675847    18A     -0.664819
      19A     -0.658036    20A     -0.626509    21A     -0.614846
      22A     -0.611730    23A     -0.570361    24A     -0.564648
      25A     -0.518672    26A     -0.508095    27A     -0.506827
      28A     -0.491276    29A     -0.485254    30A     -0.430767
      31A     -0.410556

  @DF-RHF Final Energy:  -382.89215512124042

   => Energetics <=

    Nuclear Repulsion Energy =            353.3009465761695083
    One-Electron Energy =               -1221.6538949340317686
    Two-Electron Energy =                 485.4607932366218392
    Total Energy =                       -382.8921551212404211
  Basis Set: (AUG-CC-PVTZ AUX)
    Blend: AUG-CC-PVTZ-RI
    Molecular point group: c1

    Geometry (in Angstrom), charge = 0, multiplicity = 1:

       Center              X                  Y                   Z               Mass
    ------------   -----------------  -----------------  -----------------  -----------------
         O            1.926801363880     1.379111852748    -0.002397199913    15.994914619570
         O           -3.138067636120     0.923943852748    -0.002370199913    15.994914619570
         C           -0.476933636120    -0.028486147252    -0.002399199913    12.000000000000
         C            0.852686363880    -0.769546147252    -0.002369199913    12.000000000000
         C           -1.658422636120    -0.988152147252    -0.002401199913    12.000000000000
         C            2.061458163880     0.169993052748     0.020305000087    12.000000000000
         C            3.418615363880    -0.499814147252    -0.002385199913    12.000000000000
         C           -2.995137636120    -0.291563147252    -0.002390199913    12.000000000000
         H           -0.534320636120     0.630742852748     0.868011800087     1.007825032230
         H           -0.534294636120     0.630714852748    -0.872832199913     1.007825032230
         H            0.934531363880    -1.432444147252    -0.875939199913     1.007825032230
         H            0.934520363880    -1.432388147252     0.871244800087     1.007825032230
         H           -1.634078636120    -1.656569147252     0.871169800087     1.007825032230
         H           -1.634084636120    -1.656558147252    -0.875980199913     1.007825032230
         H            3.532879363880    -1.138556147252    -0.884247199913     1.007825032230
         H            3.532890363880    -1.138524147252     0.879498800087     1.007825032230
         H            4.192203363880     0.268843852748    -0.002403199913     1.007825032230
         H           -3.881746636120    -0.959919147252    -0.002402199913     1.007825032230

  Basis Set: AUG-CC-PVTZ
    Blend: AUG-CC-PVTZ
  Basis Set: (AUG-CC-PVTZ AUX)
    Blend: AUG-CC-PVTZ-JKFIT
	 Reference Energy          =    -382.8921551212404211 [Eh]
	 Singles Energy            =      -0.0000000000000000 [Eh]
	 Same-Spin Energy          =      -0.3791656831402790 [Eh]
	 Opposite-Spin Energy      =      -1.2540407292489832 [Eh]
	 Correlation Energy        =      -1.6332064123892622 [Eh]
	 Total Energy              =    -384.5253615336296775 [Eh]

	 ================> DF-SCS-MP2 Energies <==================
	-----------------------------------------------------------
	 SCS Same-Spin Scale       =       0.3333333333333333 [-]
	 SCS Opposite-Spin Scale   =       1.2000000000000000 [-]
	 SCS Same-Spin Energy      =      -0.1263885610467597 [Eh]
	 SCS Opposite-Spin Energy  =      -1.5048488750987798 [Eh]
	 SCS Correlation Energy    =      -1.6312374361455395 [Eh]
	 SCS Total Energy          =    -384.5233925573859324 [Eh]
	-----------------------------------------------------------

  Dipole Moment: [D]
     X:     1.1749      Y:    -5.1006      Z:     0.0078     Total:     5.2342

*** Psi4 exiting successfully. Buy a developer a beer!
