                               Psi4 1.4a3.dev225

  ==> Input File <==

--------------------------------------------------------------------------
#psi4
#
memory 32 gb

molecule  {
0 1
  O        1.8881650     1.4432750    -0.0000100
  O       -3.1767040     0.9881070     0.0000170
  C       -0.5155700     0.0356770    -0.0000120
  C        0.8140500    -0.7053830     0.0000180
  C       -1.6970590    -0.9239890    -0.0000140
  C        2.0167370     0.2220750     0.0000010
  C        3.3799790    -0.4356510     0.0000020
  C       -3.0337740    -0.2274000    -0.0000030
  H       -0.5729570     0.6949060     0.8703990
  H       -0.5729310     0.6948780    -0.8704450
  H        0.8958950    -1.3682810    -0.8735520
  H        0.8958840    -1.3682250     0.8736320
  H       -1.6727150    -1.5924060     0.8735570
  H       -1.6727210    -1.5923950    -0.8735930
  H        3.4942430    -1.0743930    -0.8818600
  H        3.4942540    -1.0743610     0.8818860
  H        4.1535670     0.3330070    -0.0000160
  H       -3.8804566    -0.8656581    -0.0000145
units angstrom
no_reorient  #important for SAPT in psi4, default
symmetry c1  #important for SAPT in psi4, default
}

set PROPERTIES_ORIGIN ["COM"]
properties('MP2/aug-cc-pvtz', properties = ['dipole'])
--------------------------------------------------------------------------

    Molecular point group: c1
  Charge       = 0
  Multiplicity = 1
  Basis Set: AUG-CC-PVTZ
    Blend: AUG-CC-PVTZ
  Basis Set: (AUG-CC-PVTZ AUX)
    Blend: AUG-CC-PVTZ-JKFIT

    Orbital Energies [Eh]
    ---------------------

    Doubly Occupied:

       1A    -20.559285     2A    -20.548555     3A    -11.336812
       4A    -11.332039     5A    -11.249775     6A    -11.247599
       7A    -11.240213     8A    -11.230503     9A     -1.384554
      10A     -1.379180    11A     -1.097825    12A     -1.035628
      13A     -0.983545    14A     -0.876241    15A     -0.784360
      16A     -0.742146    17A     -0.678931    18A     -0.665200
      19A     -0.656816    20A     -0.625478    21A     -0.614490
      22A     -0.611171    23A     -0.570535    24A     -0.563592
      25A     -0.518803    26A     -0.507331    27A     -0.506744
      28A     -0.487824    29A     -0.484281    30A     -0.432220
      31A     -0.412706

  @DF-RHF Final Energy:  -382.89102378538496

   => Energetics <=

    Nuclear Repulsion Energy =            353.5250347873929968
    One-Electron Energy =               -1222.1033543616338193
    Two-Electron Energy =                 485.6872957888558631
    Total Energy =                       -382.8910237853849594
  Basis Set: (AUG-CC-PVTZ AUX)
    Blend: AUG-CC-PVTZ-RI
    Molecular point group: c1

    Geometry (in Angstrom), charge = 0, multiplicity = 1:

       Center              X                  Y                   Z               Mass
    ------------   -----------------  -----------------  -----------------  -----------------
         O            1.927088725382     1.380116875217    -0.000010082526    15.994914619570
         O           -3.137780274618     0.924948875217     0.000016917474    15.994914619570
         C           -0.476646274618    -0.027481124783    -0.000012082526    12.000000000000
         C            0.852973725382    -0.768541124783     0.000017917474    12.000000000000
         C           -1.658135274618    -0.987147124783    -0.000014082526    12.000000000000
         C            2.055660725382     0.158916875217     0.000000917474    12.000000000000
         C            3.418902725382    -0.498809124783     0.000001917474    12.000000000000
         C           -2.994850274618    -0.290558124783    -0.000003082526    12.000000000000
         H           -0.534033274618     0.631747875217     0.870398917474     1.007825032230
         H           -0.534007274618     0.631719875217    -0.870445082526     1.007825032230
         H            0.934818725382    -1.431439124783    -0.873552082526     1.007825032230
         H            0.934807725382    -1.431383124783     0.873631917474     1.007825032230
         H           -1.633791274618    -1.655564124783     0.873556917474     1.007825032230
         H           -1.633797274618    -1.655553124783    -0.873593082526     1.007825032230
         H            3.533166725382    -1.137551124783    -0.881860082526     1.007825032230
         H            3.533177725382    -1.137519124783     0.881885917474     1.007825032230
         H            4.192490725382     0.269848875217    -0.000016082526     1.007825032230
         H           -3.841532874618    -0.928816224783    -0.000014582526     1.007825032230

  Basis Set: AUG-CC-PVTZ
    Blend: AUG-CC-PVTZ
  Basis Set: (AUG-CC-PVTZ AUX)
    Blend: AUG-CC-PVTZ-JKFIT
	 Reference Energy          =    -382.8910237853849594 [Eh]
	 Singles Energy            =      -0.0000000000000000 [Eh]
	 Same-Spin Energy          =      -0.3793132644049881 [Eh]
	 Opposite-Spin Energy      =      -1.2543172344705253 [Eh]
	 Correlation Energy        =      -1.6336304988755135 [Eh]
	 Total Energy              =    -384.5246542842604640 [Eh]

	 ================> DF-SCS-MP2 Energies <==================
	-----------------------------------------------------------
	 SCS Same-Spin Scale       =       0.3333333333333333 [-]
	 SCS Opposite-Spin Scale   =       1.2000000000000000 [-]
	 SCS Same-Spin Energy      =      -0.1264377548016627 [Eh]
	 SCS Opposite-Spin Energy  =      -1.5051806813646305 [Eh]
	 SCS Correlation Energy    =      -1.6316184361662931 [Eh]
	 SCS Total Energy          =    -384.5226422215512798 [Eh]
	-----------------------------------------------------------

  Dipole Moment: [D]
     X:     1.0820      Y:    -5.1940      Z:    -0.0000     Total:     5.3055

*** Psi4 exiting successfully. Buy a developer a beer!
