                               Psi4 1.4a3.dev225

  ==> Input File <==

--------------------------------------------------------------------------
#psi4
#
memory 32 gb

molecule  {
0 1
  O        1.8881650     1.4432750    -0.0000100
  O       -3.1767040     0.9881070     0.0000170
  C       -0.5155700     0.0356770    -0.0000120
  C        0.8140500    -0.7053830     0.0000180
  C       -1.6970590    -0.9239890    -0.0000140
  C        2.0167370     0.2220750     0.0000010
  C        3.3799790    -0.4356510     0.0000020
  C       -3.0337740    -0.2274000    -0.0000030
  H       -0.5729570     0.6949060     0.8703990
  H       -0.5729310     0.6948780    -0.8704450
  H        0.8958950    -1.3682810    -0.8735520
  H        0.8958840    -1.3682250     0.8736320
  H       -1.6727150    -1.5924060     0.8735570
  H       -1.6727210    -1.5923950    -0.8735930
  H        3.4942430    -1.0743930    -0.8818600
  H        3.4942540    -1.0743610     0.8818860
  H        4.0826306     0.2625227    -0.0000143
  H       -3.9203830    -0.8957560    -0.0000150
units angstrom
no_reorient  #important for SAPT in psi4, default
symmetry c1  #important for SAPT in psi4, default
}

set PROPERTIES_ORIGIN ["COM"]
properties('MP2/aug-cc-pvtz', properties = ['dipole'])
--------------------------------------------------------------------------

    Molecular point group: c1
  Charge       = 0
  Multiplicity = 1
  Basis Set: AUG-CC-PVTZ
    Blend: AUG-CC-PVTZ
  Basis Set: (AUG-CC-PVTZ AUX)
    Blend: AUG-CC-PVTZ-JKFIT

    Orbital Energies [Eh]
    ---------------------

    Doubly Occupied:

       1A    -20.560342     2A    -20.548839     3A    -11.337819
       4A    -11.336597     5A    -11.250527     6A    -11.247253
       7A    -11.230596     8A    -11.228962     9A     -1.385127
      10A     -1.379549    11A     -1.097936    12A     -1.039470
      13A     -0.988135    14A     -0.875052    15A     -0.777126
      16A     -0.744066    17A     -0.676017    18A     -0.665237
      19A     -0.657235    20A     -0.629324    21A     -0.617399
      22A     -0.614364    23A     -0.572861    24A     -0.570360
      25A     -0.522211    26A     -0.507822    27A     -0.506732
      28A     -0.488186    29A     -0.484454    30A     -0.430802
      31A     -0.412108

  @DF-RHF Final Energy:  -382.88533824645953

   => Energetics <=

    Nuclear Repulsion Energy =            353.7398004173391541
    One-Electron Energy =               -1222.4852584919631227
    Two-Electron Energy =                 485.8601198281643860
    Total Energy =                       -382.8853382464595256
  Basis Set: (AUG-CC-PVTZ AUX)
    Blend: AUG-CC-PVTZ-RI
    Molecular point group: c1

    Geometry (in Angstrom), charge = 0, multiplicity = 1:

       Center              X                  Y                   Z               Mass
    ------------   -----------------  -----------------  -----------------  -----------------
         O            1.928068230826     1.381005548537    -0.000010093128    15.994914619570
         O           -3.136800769174     0.925837548537     0.000016906872    15.994914619570
         C           -0.475666769174    -0.026592451463    -0.000012093128    12.000000000000
         C            0.853953230826    -0.767652451463     0.000017906872    12.000000000000
         C           -1.657155769174    -0.986258451463    -0.000014093128    12.000000000000
         C            2.056640230826     0.159805548537     0.000000906872    12.000000000000
         C            3.419882230826    -0.497920451463     0.000001906872    12.000000000000
         C           -2.993870769174    -0.289669451463    -0.000003093128    12.000000000000
         H           -0.533053769174     0.632636548537     0.870398906872     1.007825032230
         H           -0.533027769174     0.632608548537    -0.870445093128     1.007825032230
         H            0.935798230826    -1.430550451463    -0.873552093128     1.007825032230
         H            0.935787230826    -1.430494451463     0.873631906872     1.007825032230
         H           -1.632811769174    -1.654675451463     0.873556906872     1.007825032230
         H           -1.632817769174    -1.654664451463    -0.873593093128     1.007825032230
         H            3.534146230826    -1.136662451463    -0.881860093128     1.007825032230
         H            3.534157230826    -1.136630451463     0.881885906872     1.007825032230
         H            4.122533830826     0.200253248537    -0.000014393128     1.007825032230
         H           -3.880479769174    -0.958025451463    -0.000015093128     1.007825032230

  Basis Set: AUG-CC-PVTZ
    Blend: AUG-CC-PVTZ
  Basis Set: (AUG-CC-PVTZ AUX)
    Blend: AUG-CC-PVTZ-JKFIT
	 Reference Energy          =    -382.8853382464595256 [Eh]
	 Singles Energy            =      -0.0000000000000000 [Eh]
	 Same-Spin Energy          =      -0.3794618493978783 [Eh]
	 Opposite-Spin Energy      =      -1.2541612743859347 [Eh]
	 Correlation Energy        =      -1.6336231237838130 [Eh]
	 Total Energy              =    -384.5189613702433462 [Eh]

	 ================> DF-SCS-MP2 Energies <==================
	-----------------------------------------------------------
	 SCS Same-Spin Scale       =       0.3333333333333333 [-]
	 SCS Opposite-Spin Scale   =       1.2000000000000000 [-]
	 SCS Same-Spin Energy      =      -0.1264872831326261 [Eh]
	 SCS Opposite-Spin Energy  =      -1.5049935292631216 [Eh]
	 SCS Correlation Energy    =      -1.6314808123957476 [Eh]
	 SCS Total Energy          =    -384.5168190588552761 [Eh]
	-----------------------------------------------------------

  Dipole Moment: [D]
     X:     1.1730      Y:    -5.1529      Z:    -0.0000     Total:     5.2847

*** Psi4 exiting successfully. Buy a developer a beer!
