                               Psi4 1.4a3.dev225

  ==> Input File <==

--------------------------------------------------------------------------
#psi4
#
memory 32 gb

molecule  {
0 1
  O        1.8881650     1.4432750    -0.0000100
  O       -3.1767040     0.9881070     0.0000170
  C       -0.5155700     0.0356770    -0.0000120
  C        0.8140500    -0.7053830     0.0000180
  C       -1.6970590    -0.9239890    -0.0000140
  C        2.0167370     0.2220750     0.0000010
  C        3.3799790    -0.4356510     0.0000020
  C       -3.0337740    -0.2274000    -0.0000030
  H       -0.5719073     0.6828475     0.8544776
  H       -0.5729310     0.6948780    -0.8704450
  H        0.8958950    -1.3682810    -0.8735520
  H        0.8958840    -1.3682250     0.8736320
  H       -1.6727150    -1.5924060     0.8735570
  H       -1.6727210    -1.5923950    -0.8735930
  H        3.4942430    -1.0743930    -0.8818600
  H        3.4942540    -1.0743610     0.8818860
  H        4.1535670     0.3330070    -0.0000160
  H       -3.9203830    -0.8957560    -0.0000150
units angstrom
no_reorient  #important for SAPT in psi4, default
symmetry c1  #important for SAPT in psi4, default
}

set PROPERTIES_ORIGIN ["COM"]
properties('MP2/aug-cc-pvtz', properties = ['dipole'])
--------------------------------------------------------------------------

    Molecular point group: c1
  Charge       = 0
  Multiplicity = 1
  Basis Set: AUG-CC-PVTZ
    Blend: AUG-CC-PVTZ
  Basis Set: (AUG-CC-PVTZ AUX)
    Blend: AUG-CC-PVTZ-JKFIT

    Orbital Energies [Eh]
    ---------------------

    Doubly Occupied:

       1A    -20.560552     2A    -20.548831     3A    -11.338025
       4A    -11.337090     5A    -11.250633     6A    -11.247807
       7A    -11.240396     8A    -11.228647     9A     -1.385346
      10A     -1.379465    11A     -1.098726    12A     -1.035719
      13A     -0.983209    14A     -0.874343    15A     -0.777852
      16A     -0.742168    17A     -0.675870    18A     -0.666466
      19A     -0.657151    20A     -0.625356    21A     -0.614873
      22A     -0.611533    23A     -0.570997    24A     -0.563571
      25A     -0.518926    26A     -0.509413    27A     -0.507408
      28A     -0.488844    29A     -0.485244    30A     -0.431035
      31A     -0.412502

  @DF-RHF Final Energy:  -382.89152769169164

   => Energetics <=

    Nuclear Repulsion Energy =            353.3723257636125936
    One-Electron Energy =               -1221.7917132669290368
    Two-Electron Energy =                 485.5278598116248077
    Total Energy =                       -382.8915276916916355
  Basis Set: (AUG-CC-PVTZ AUX)
    Blend: AUG-CC-PVTZ-RI
    Molecular point group: c1

    Geometry (in Angstrom), charge = 0, multiplicity = 1:

       Center              X                  Y                   Z               Mass
    ------------   -----------------  -----------------  -----------------  -----------------
         O            1.927432212461     1.380489339410     0.000130592144    15.994914619570
         O           -3.137436787539     0.925321339410     0.000157592144    15.994914619570
         C           -0.476302787539    -0.027108660590     0.000128592144    12.000000000000
         C            0.853317212461    -0.768168660590     0.000158592144    12.000000000000
         C           -1.657791787539    -0.986774660590     0.000126592144    12.000000000000
         C            2.056004212461     0.159289339410     0.000141592144    12.000000000000
         C            3.419246212461    -0.498436660590     0.000142592144    12.000000000000
         C           -2.994506787539    -0.290185660590     0.000137592144    12.000000000000
         H           -0.532640087539     0.620061839410     0.854618192144     1.007825032230
         H           -0.533663787539     0.632092339410    -0.870304407856     1.007825032230
         H            0.935162212461    -1.431066660590    -0.873411407856     1.007825032230
         H            0.935151212461    -1.431010660590     0.873772592144     1.007825032230
         H           -1.633447787539    -1.655191660590     0.873697592144     1.007825032230
         H           -1.633453787539    -1.655180660590    -0.873452407856     1.007825032230
         H            3.533510212461    -1.137178660590    -0.881719407856     1.007825032230
         H            3.533521212461    -1.137146660590     0.882026592144     1.007825032230
         H            4.192834212461     0.270221339410     0.000124592144     1.007825032230
         H           -3.881115787539    -0.958541660590     0.000125592144     1.007825032230

  Basis Set: AUG-CC-PVTZ
    Blend: AUG-CC-PVTZ
  Basis Set: (AUG-CC-PVTZ AUX)
    Blend: AUG-CC-PVTZ-JKFIT
	 Reference Energy          =    -382.8915276916916355 [Eh]
	 Singles Energy            =      -0.0000000000000000 [Eh]
	 Same-Spin Energy          =      -0.3794501154279111 [Eh]
	 Opposite-Spin Energy      =      -1.2545192263962308 [Eh]
	 Correlation Energy        =      -1.6339693418241419 [Eh]
	 Total Energy              =    -384.5254970335157623 [Eh]

	 ================> DF-SCS-MP2 Energies <==================
	-----------------------------------------------------------
	 SCS Same-Spin Scale       =       0.3333333333333333 [-]
	 SCS Opposite-Spin Scale   =       1.2000000000000000 [-]
	 SCS Same-Spin Energy      =      -0.1264833718093037 [Eh]
	 SCS Opposite-Spin Energy  =      -1.5054230716754768 [Eh]
	 SCS Correlation Energy    =      -1.6319064434847805 [Eh]
	 SCS Total Energy          =    -384.5234341351764442 [Eh]
	-----------------------------------------------------------

  Dipole Moment: [D]
     X:     1.1375      Y:    -5.1514      Z:     0.0048     Total:     5.2755

*** Psi4 exiting successfully. Buy a developer a beer!
