                               Psi4 1.4a3.dev225

  ==> Input File <==

--------------------------------------------------------------------------
#psi4
#
memory 32 gb

molecule  {
0 1
  O        1.8881650     1.4432750    -0.0000100
  O       -3.1767040     0.9881070     0.0000170
  C       -0.5155700     0.0356770    -0.0000120
  C        0.7703754    -0.6810411     0.0000170
  C       -1.6970590    -0.9239890    -0.0000140
  C        2.0167370     0.2220750     0.0000010
  C        3.3799790    -0.4356510     0.0000020
  C       -3.0337740    -0.2274000    -0.0000030
  H       -0.5729570     0.6949060     0.8703990
  H       -0.5729310     0.6948780    -0.8704450
  H        0.8958950    -1.3682810    -0.8735520
  H        0.8958840    -1.3682250     0.8736320
  H       -1.6727150    -1.5924060     0.8735570
  H       -1.6727210    -1.5923950    -0.8735930
  H        3.4942430    -1.0743930    -0.8818600
  H        3.4942540    -1.0743610     0.8818860
  H        4.1535670     0.3330070    -0.0000160
  H       -3.9203830    -0.8957560    -0.0000150
units angstrom
no_reorient  #important for SAPT in psi4, default
symmetry c1  #important for SAPT in psi4, default
}

set PROPERTIES_ORIGIN ["COM"]
properties('MP2/aug-cc-pvtz', properties = ['dipole'])
--------------------------------------------------------------------------

    Molecular point group: c1
  Charge       = 0
  Multiplicity = 1
  Basis Set: AUG-CC-PVTZ
    Blend: AUG-CC-PVTZ
  Basis Set: (AUG-CC-PVTZ AUX)
    Blend: AUG-CC-PVTZ-JKFIT

    Orbital Energies [Eh]
    ---------------------

    Doubly Occupied:

       1A    -20.560671     2A    -20.547701     3A    -11.338147
       4A    -11.337594     5A    -11.251162     6A    -11.250057
       7A    -11.242005     8A    -11.228544     9A     -1.385461
      10A     -1.378867    11A     -1.103498    12A     -1.033044
      13A     -0.985984    14A     -0.871610    15A     -0.778510
      16A     -0.739845    17A     -0.676871    18A     -0.665924
      19A     -0.656634    20A     -0.625277    21A     -0.613139
      22A     -0.610337    23A     -0.569783    24A     -0.563987
      25A     -0.529889    26A     -0.508044    27A     -0.506337
      28A     -0.488636    29A     -0.479687    30A     -0.431237
      31A     -0.410162

  @DF-RHF Final Energy:  -382.88844599151446

   => Energetics <=

    Nuclear Repulsion Energy =            353.6353982613858307
    One-Electron Energy =               -1222.3103979844079277
    Two-Electron Energy =                 485.7865537315076381
    Total Energy =                       -382.8884459915144589
  Basis Set: (AUG-CC-PVTZ AUX)
    Blend: AUG-CC-PVTZ-RI
    Molecular point group: c1

    Geometry (in Angstrom), charge = 0, multiplicity = 1:

       Center              X                  Y                   Z               Mass
    ------------   -----------------  -----------------  -----------------  -----------------
         O            1.932036069350     1.377822023020    -0.000009972908    15.994914619570
         O           -3.132832930650     0.922654023020     0.000017027092    15.994914619570
         C           -0.471698930650    -0.029775976980    -0.000011972908    12.000000000000
         C            0.814246469350    -0.746494076980     0.000017027092    12.000000000000
         C           -1.653187930650    -0.989441976980    -0.000013972908    12.000000000000
         C            2.060608069350     0.156622023020     0.000001027092    12.000000000000
         C            3.423850069350    -0.501103976980     0.000002027092    12.000000000000
         C           -2.989902930650    -0.292852976980    -0.000002972908    12.000000000000
         H           -0.529085930650     0.629453023020     0.870399027092     1.007825032230
         H           -0.529059930650     0.629425023020    -0.870444972908     1.007825032230
         H            0.939766069350    -1.433733976980    -0.873551972908     1.007825032230
         H            0.939755069350    -1.433677976980     0.873632027092     1.007825032230
         H           -1.628843930650    -1.657858976980     0.873557027092     1.007825032230
         H           -1.628849930650    -1.657847976980    -0.873592972908     1.007825032230
         H            3.538114069350    -1.139845976980    -0.881859972908     1.007825032230
         H            3.538125069350    -1.139813976980     0.881886027092     1.007825032230
         H            4.197438069350     0.267554023020    -0.000015972908     1.007825032230
         H           -3.876511930650    -0.961208976980    -0.000014972908     1.007825032230

  Basis Set: AUG-CC-PVTZ
    Blend: AUG-CC-PVTZ
  Basis Set: (AUG-CC-PVTZ AUX)
    Blend: AUG-CC-PVTZ-JKFIT
	 Reference Energy          =    -382.8884459915144589 [Eh]
	 Singles Energy            =      -0.0000000000000000 [Eh]
	 Same-Spin Energy          =      -0.3798330379407203 [Eh]
	 Opposite-Spin Energy      =      -1.2550501751540479 [Eh]
	 Correlation Energy        =      -1.6348832130947684 [Eh]
	 Total Energy              =    -384.5233292046092402 [Eh]

	 ================> DF-SCS-MP2 Energies <==================
	-----------------------------------------------------------
	 SCS Same-Spin Scale       =       0.3333333333333333 [-]
	 SCS Opposite-Spin Scale   =       1.2000000000000000 [-]
	 SCS Same-Spin Energy      =      -0.1266110126469068 [Eh]
	 SCS Opposite-Spin Energy  =      -1.5060602101848575 [Eh]
	 SCS Correlation Energy    =      -1.6326712228317641 [Eh]
	 SCS Total Energy          =    -384.5211172143462477 [Eh]
	-----------------------------------------------------------

  Dipole Moment: [D]
     X:     1.1533      Y:    -5.1358      Z:    -0.0000     Total:     5.2637

*** Psi4 exiting successfully. Buy a developer a beer!
