                               Psi4 1.4a3.dev225

  ==> Input File <==

--------------------------------------------------------------------------
#psi4
#
memory 32 gb

molecule  {
0 1
  O        1.8881650     1.4432750    -0.0000100
  O       -3.1767040     0.9881070     0.0000170
  C       -0.5155700     0.0356770    -0.0000120
  C        0.8140500    -0.7053830     0.0000180
  C       -1.6970590    -0.9239890    -0.0000140
  C        2.0167370     0.2220750     0.0000010
  C        3.3799790    -0.4356510     0.0000020
  C       -3.0337740    -0.2274000    -0.0000030
  H       -0.5677084     0.6346135     0.7907920
  H       -0.5729310     0.6948780    -0.8704450
  H        0.8958950    -1.3682810    -0.8735520
  H        0.8958840    -1.3682250     0.8736320
  H       -1.6727150    -1.5924060     0.8735570
  H       -1.6727210    -1.5923950    -0.8735930
  H        3.4942430    -1.0743930    -0.8818600
  H        3.4942540    -1.0743610     0.8818860
  H        4.1535670     0.3330070    -0.0000160
  H       -3.9203830    -0.8957560    -0.0000150
units angstrom
no_reorient  #important for SAPT in psi4, default
symmetry c1  #important for SAPT in psi4, default
}

set PROPERTIES_ORIGIN ["COM"]
properties('MP2/aug-cc-pvtz', properties = ['dipole'])
--------------------------------------------------------------------------

    Molecular point group: c1
  Charge       = 0
  Multiplicity = 1
  Basis Set: AUG-CC-PVTZ
    Blend: AUG-CC-PVTZ
  Basis Set: (AUG-CC-PVTZ AUX)
    Blend: AUG-CC-PVTZ-JKFIT

    Orbital Energies [Eh]
    ---------------------

    Doubly Occupied:

       1A    -20.560675     2A    -20.548965     3A    -11.338096
       4A    -11.337152     5A    -11.250139     6A    -11.247301
       7A    -11.240379     8A    -11.219124     9A     -1.385507
      10A     -1.379623    11A     -1.101337    12A     -1.035809
      13A     -0.983619    14A     -0.880223    15A     -0.781076
      16A     -0.742880    17A     -0.675858    18A     -0.670215
      19A     -0.657228    20A     -0.626280    21A     -0.615095
      22A     -0.611469    23A     -0.571635    24A     -0.563515
      25A     -0.518660    26A     -0.517263    27A     -0.507272
      28A     -0.490783    29A     -0.486163    30A     -0.431094
      31A     -0.412502

  @DF-RHF Final Energy:  -382.88561568097418

   => Energetics <=

    Nuclear Repulsion Energy =            353.7656252951879310
    One-Electron Energy =               -1222.5286143319913208
    Two-Electron Energy =                 485.8773733558292633
    Total Energy =                       -382.8856156809741833
  Basis Set: (AUG-CC-PVTZ AUX)
    Blend: AUG-CC-PVTZ-RI
    Molecular point group: c1

    Geometry (in Angstrom), charge = 0, multiplicity = 1:

       Center              X                  Y                   Z               Mass
    ------------   -----------------  -----------------  -----------------  -----------------
         O            1.927395113944     1.380915500986     0.000693273151    15.994914619570
         O           -3.137473886056     0.925747500986     0.000720273151    15.994914619570
         C           -0.476339886056    -0.026682499014     0.000691273151    12.000000000000
         C            0.853280113944    -0.767742499014     0.000721273151    12.000000000000
         C           -1.657828886056    -0.986348499014     0.000689273151    12.000000000000
         C            2.055967113944     0.159715500986     0.000704273151    12.000000000000
         C            3.419209113944    -0.498010499014     0.000705273151    12.000000000000
         C           -2.994543886056    -0.289759499014     0.000700273151    12.000000000000
         H           -0.528478286056     0.572254000986     0.791495273151     1.007825032230
         H           -0.533700886056     0.632518500986    -0.869741726849     1.007825032230
         H            0.935125113944    -1.430640499014    -0.872848726849     1.007825032230
         H            0.935114113944    -1.430584499014     0.874335273151     1.007825032230
         H           -1.633484886056    -1.654765499014     0.874260273151     1.007825032230
         H           -1.633490886056    -1.654754499014    -0.872889726849     1.007825032230
         H            3.533473113944    -1.136752499014    -0.881156726849     1.007825032230
         H            3.533484113944    -1.136720499014     0.882589273151     1.007825032230
         H            4.192797113944     0.270647500986     0.000687273151     1.007825032230
         H           -3.881152886056    -0.958115499014     0.000688273151     1.007825032230

  Basis Set: AUG-CC-PVTZ
    Blend: AUG-CC-PVTZ
  Basis Set: (AUG-CC-PVTZ AUX)
    Blend: AUG-CC-PVTZ-JKFIT
	 Reference Energy          =    -382.8856156809741833 [Eh]
	 Singles Energy            =      -0.0000000000000000 [Eh]
	 Same-Spin Energy          =      -0.3793790652558753 [Eh]
	 Opposite-Spin Energy      =      -1.2540522706249402 [Eh]
	 Correlation Energy        =      -1.6334313358808155 [Eh]
	 Total Energy              =    -384.5190470168549837 [Eh]

	 ================> DF-SCS-MP2 Energies <==================
	-----------------------------------------------------------
	 SCS Same-Spin Scale       =       0.3333333333333333 [-]
	 SCS Opposite-Spin Scale   =       1.2000000000000000 [-]
	 SCS Same-Spin Energy      =      -0.1264596884186251 [Eh]
	 SCS Opposite-Spin Energy  =      -1.5048627247499282 [Eh]
	 SCS Correlation Energy    =      -1.6313224131685533 [Eh]
	 SCS Total Energy          =    -384.5169380941427448 [Eh]
	-----------------------------------------------------------

  Dipole Moment: [D]
     X:     1.1361      Y:    -5.1430      Z:     0.0197     Total:     5.2670

*** Psi4 exiting successfully. Buy a developer a beer!
