                               Psi4 1.4a3.dev225

  ==> Input File <==

--------------------------------------------------------------------------
#psi4
#
memory 32 gb

molecule  {
0 1
  O        1.8881650     1.4432750    -0.0000100
  O       -3.1767040     0.9881070     0.0000170
  C       -0.5155700     0.0356770    -0.0000120
  C        0.8140500    -0.7053830     0.0000180
  C       -1.6970590    -0.9239890    -0.0000140
  C        2.0058149     0.1973153    -0.0453745
  C        3.3799790    -0.4356510     0.0000020
  C       -3.0337740    -0.2274000    -0.0000030
  H       -0.5729570     0.6949060     0.8703990
  H       -0.5729310     0.6948780    -0.8704450
  H        0.8958950    -1.3682810    -0.8735520
  H        0.8958840    -1.3682250     0.8736320
  H       -1.6727150    -1.5924060     0.8735570
  H       -1.6727210    -1.5923950    -0.8735930
  H        3.4942430    -1.0743930    -0.8818600
  H        3.4942540    -1.0743610     0.8818860
  H        4.1535670     0.3330070    -0.0000160
  H       -3.9203830    -0.8957560    -0.0000150
units angstrom
no_reorient  #important for SAPT in psi4, default
symmetry c1  #important for SAPT in psi4, default
}

set PROPERTIES_ORIGIN ["COM"]
properties('MP2/aug-cc-pvtz', properties = ['dipole'])
--------------------------------------------------------------------------

    Molecular point group: c1
  Charge       = 0
  Multiplicity = 1
  Basis Set: AUG-CC-PVTZ
    Blend: AUG-CC-PVTZ
  Basis Set: (AUG-CC-PVTZ AUX)
    Blend: AUG-CC-PVTZ-JKFIT

    Orbital Energies [Eh]
    ---------------------

    Doubly Occupied:

       1A    -20.561002     2A    -20.546991     3A    -11.339143
       4A    -11.338538     5A    -11.251516     6A    -11.249508
       7A    -11.241449     8A    -11.232067     9A     -1.385761
      10A     -1.363502    11A     -1.100798    12A     -1.038346
      13A     -0.984733    14A     -0.876428    15A     -0.777888
      16A     -0.742608    17A     -0.675951    18A     -0.667232
      19A     -0.655125    20A     -0.623042    21A     -0.615226
      22A     -0.610499    23A     -0.571849    24A     -0.560802
      25A     -0.519987    26A     -0.508433    27A     -0.507375
      28A     -0.487658    29A     -0.476814    30A     -0.431320
      31A     -0.415665

  @DF-RHF Final Energy:  -382.88663058323618

   => Energetics <=

    Nuclear Repulsion Energy =            353.1918109371310948
    One-Electron Energy =               -1221.4423715365903718
    Two-Electron Energy =                 485.3639300162230938
    Total Energy =                       -382.8866305832361832
  Basis Set: (AUG-CC-PVTZ AUX)
    Blend: AUG-CC-PVTZ-RI
    Molecular point group: c1

    Geometry (in Angstrom), charge = 0, multiplicity = 1:

       Center              X                  Y                   Z               Mass
    ------------   -----------------  -----------------  -----------------  -----------------
         O            1.928590495430     1.382987527711     0.004763439620    15.994914619570
         O           -3.136278504570     0.927819527711     0.004790439620    15.994914619570
         C           -0.475144504570    -0.024610472289     0.004761439620    12.000000000000
         C            0.854475495430    -0.765670472289     0.004791439620    12.000000000000
         C           -1.656633504570    -0.984276472289     0.004759439620    12.000000000000
         C            2.046240395430     0.137027827711    -0.040601060380    12.000000000000
         C            3.420404495430    -0.495938472289     0.004775439620    12.000000000000
         C           -2.993348504570    -0.287687472289     0.004770439620    12.000000000000
         H           -0.532531504570     0.634618527711     0.875172439620     1.007825032230
         H           -0.532505504570     0.634590527711    -0.865671560380     1.007825032230
         H            0.936320495430    -1.428568472289    -0.868778560380     1.007825032230
         H            0.936309495430    -1.428512472289     0.878405439620     1.007825032230
         H           -1.632289504570    -1.652693472289     0.878330439620     1.007825032230
         H           -1.632295504570    -1.652682472289    -0.868819560380     1.007825032230
         H            3.534668495430    -1.134680472289    -0.877086560380     1.007825032230
         H            3.534679495430    -1.134648472289     0.886659439620     1.007825032230
         H            4.193992495430     0.272719527711     0.004757439620     1.007825032230
         H           -3.879957504570    -0.956043472289     0.004758439620     1.007825032230

  Basis Set: AUG-CC-PVTZ
    Blend: AUG-CC-PVTZ
  Basis Set: (AUG-CC-PVTZ AUX)
    Blend: AUG-CC-PVTZ-JKFIT
	 Reference Energy          =    -382.8866305832361832 [Eh]
	 Singles Energy            =      -0.0000000000000000 [Eh]
	 Same-Spin Energy          =      -0.3802524233576199 [Eh]
	 Opposite-Spin Energy      =      -1.2563307684220382 [Eh]
	 Correlation Energy        =      -1.6365831917796581 [Eh]
	 Total Energy              =    -384.5232137750158472 [Eh]

	 ================> DF-SCS-MP2 Energies <==================
	-----------------------------------------------------------
	 SCS Same-Spin Scale       =       0.3333333333333333 [-]
	 SCS Opposite-Spin Scale   =       1.2000000000000000 [-]
	 SCS Same-Spin Energy      =      -0.1267508077858733 [Eh]
	 SCS Opposite-Spin Energy  =      -1.5075969221064458 [Eh]
	 SCS Correlation Energy    =      -1.6343477298923190 [Eh]
	 SCS Total Energy          =    -384.5209783131285235 [Eh]
	-----------------------------------------------------------

  Dipole Moment: [D]
     X:     1.0730      Y:    -5.2532      Z:    -0.0119     Total:     5.3617

*** Psi4 exiting successfully. Buy a developer a beer!
