                               Psi4 1.4a3.dev225

  ==> Input File <==

--------------------------------------------------------------------------
#psi4
#
memory 32 gb

molecule  {
0 1
  O        1.8881650     1.4432750    -0.0000100
  O       -3.1767040     0.9881070     0.0000170
  C       -0.5155700     0.0356770    -0.0000120
  C        0.8140500    -0.7053830     0.0000180
  C       -1.6784993    -0.9453681     0.0449440
  C        2.0167370     0.2220750     0.0000010
  C        3.3799790    -0.4356510     0.0000020
  C       -3.0337740    -0.2274000    -0.0000030
  H       -0.5729570     0.6949060     0.8703990
  H       -0.5729310     0.6948780    -0.8704450
  H        0.8958950    -1.3682810    -0.8735520
  H        0.8958840    -1.3682250     0.8736320
  H       -1.6727150    -1.5924060     0.8735570
  H       -1.6727210    -1.5923950    -0.8735930
  H        3.4942430    -1.0743930    -0.8818600
  H        3.4942540    -1.0743610     0.8818860
  H        4.1535670     0.3330070    -0.0000160
  H       -3.9203830    -0.8957560    -0.0000150
units angstrom
no_reorient  #important for SAPT in psi4, default
symmetry c1  #important for SAPT in psi4, default
}

set PROPERTIES_ORIGIN ["COM"]
properties('MP2/aug-cc-pvtz', properties = ['dipole'])
--------------------------------------------------------------------------

    Molecular point group: c1
  Charge       = 0
  Multiplicity = 1
  Basis Set: AUG-CC-PVTZ
    Blend: AUG-CC-PVTZ
  Basis Set: (AUG-CC-PVTZ AUX)
    Blend: AUG-CC-PVTZ-JKFIT

    Orbital Energies [Eh]
    ---------------------

    Doubly Occupied:

       1A    -20.561408     2A    -20.548558     3A    -11.339234
       4A    -11.336614     5A    -11.250091     6A    -11.247300
       7A    -11.240109     8A    -11.230960     9A     -1.385152
      10A     -1.379180    11A     -1.097915    12A     -1.034520
      13A     -0.981320    14A     -0.871227    15A     -0.779839
      16A     -0.741561    17A     -0.673936    18A     -0.665940
      19A     -0.657086    20A     -0.625416    21A     -0.616229
      22A     -0.608505    23A     -0.572113    24A     -0.563222
      25A     -0.518920    26A     -0.510580    27A     -0.508043
      28A     -0.488852    29A     -0.484632    30A     -0.429309
      31A     -0.410533

  @DF-RHF Final Energy:  -382.88858280964990

   => Energetics <=

    Nuclear Repulsion Energy =            353.0880030745413478
    One-Electron Energy =               -1221.2365637677207815
    Two-Electron Energy =                 485.2599778835295297
    Total Energy =                       -382.8885828096499040
  Basis Set: (AUG-CC-PVTZ AUX)
    Blend: AUG-CC-PVTZ-RI
    Molecular point group: c1

    Geometry (in Angstrom), charge = 0, multiplicity = 1:

       Center              X                  Y                   Z               Mass
    ------------   -----------------  -----------------  -----------------  -----------------
         O            1.925489000241     1.382631887464    -0.004739674697    15.994914619570
         O           -3.139379999759     0.927463887464    -0.004712674697    15.994914619570
         C           -0.478245999759    -0.024966112536    -0.004741674697    12.000000000000
         C            0.851374000241    -0.766026112536    -0.004711674697    12.000000000000
         C           -1.641175299759    -1.006011212536     0.040214325303    12.000000000000
         C            2.054061000241     0.161431887464    -0.004728674697    12.000000000000
         C            3.417303000241    -0.496294112536    -0.004727674697    12.000000000000
         C           -2.996449999759    -0.288043112536    -0.004732674697    12.000000000000
         H           -0.535632999759     0.634262887464     0.865669325303     1.007825032230
         H           -0.535606999759     0.634234887464    -0.875174674697     1.007825032230
         H            0.933219000241    -1.428924112536    -0.878281674697     1.007825032230
         H            0.933208000241    -1.428868112536     0.868902325303     1.007825032230
         H           -1.635390999759    -1.653049112536     0.868827325303     1.007825032230
         H           -1.635396999759    -1.653038112536    -0.878322674697     1.007825032230
         H            3.531567000241    -1.135036112536    -0.886589674697     1.007825032230
         H            3.531578000241    -1.135004112536     0.877156325303     1.007825032230
         H            4.190891000241     0.272363887464    -0.004745674697     1.007825032230
         H           -3.883058999759    -0.956399112536    -0.004744674697     1.007825032230

  Basis Set: AUG-CC-PVTZ
    Blend: AUG-CC-PVTZ
  Basis Set: (AUG-CC-PVTZ AUX)
    Blend: AUG-CC-PVTZ-JKFIT
	 Reference Energy          =    -382.8885828096499040 [Eh]
	 Singles Energy            =      -0.0000000000000000 [Eh]
	 Same-Spin Energy          =      -0.3793925200078750 [Eh]
	 Opposite-Spin Energy      =      -1.2547359460818686 [Eh]
	 Correlation Energy        =      -1.6341284660897437 [Eh]
	 Total Energy              =    -384.5227112757396526 [Eh]

	 ================> DF-SCS-MP2 Energies <==================
	-----------------------------------------------------------
	 SCS Same-Spin Scale       =       0.3333333333333333 [-]
	 SCS Opposite-Spin Scale   =       1.2000000000000000 [-]
	 SCS Same-Spin Energy      =      -0.1264641733359583 [Eh]
	 SCS Opposite-Spin Energy  =      -1.5056831352982423 [Eh]
	 SCS Correlation Energy    =      -1.6321473086342007 [Eh]
	 SCS Total Energy          =    -384.5207301182841206 [Eh]
	-----------------------------------------------------------

  Dipole Moment: [D]
     X:     1.0906      Y:    -5.1306      Z:     0.0362     Total:     5.2453

*** Psi4 exiting successfully. Buy a developer a beer!
