                               Psi4 1.4a3.dev225

  ==> Input File <==

--------------------------------------------------------------------------
#psi4
#
memory 32 gb

molecule  {
0 1
  O        1.8881650     1.4432750    -0.0000100
  O       -3.1767040     0.9881070     0.0000170
  C       -0.5155700     0.0356770    -0.0000120
  C        0.8140500    -0.7053830     0.0000180
  C       -1.6970590    -0.9239890    -0.0000140
  C        2.0110675     0.2097934    -0.0226902
  C        3.3799790    -0.4356510     0.0000020
  C       -3.0337740    -0.2274000    -0.0000030
  H       -0.5729570     0.6949060     0.8703990
  H       -0.5729310     0.6948780    -0.8704450
  H        0.8958950    -1.3682810    -0.8735520
  H        0.8958840    -1.3682250     0.8736320
  H       -1.6727150    -1.5924060     0.8735570
  H       -1.6727210    -1.5923950    -0.8735930
  H        3.4942430    -1.0743930    -0.8818600
  H        3.4942540    -1.0743610     0.8818860
  H        4.1535670     0.3330070    -0.0000160
  H       -3.9203830    -0.8957560    -0.0000150
units angstrom
no_reorient  #important for SAPT in psi4, default
symmetry c1  #important for SAPT in psi4, default
}

set PROPERTIES_ORIGIN ["COM"]
properties('MP2/aug-cc-pvtz', properties = ['dipole'])
--------------------------------------------------------------------------

    Molecular point group: c1
  Charge       = 0
  Multiplicity = 1
  Basis Set: AUG-CC-PVTZ
    Blend: AUG-CC-PVTZ
  Basis Set: (AUG-CC-PVTZ AUX)
    Blend: AUG-CC-PVTZ-JKFIT

    Orbital Energies [Eh]
    ---------------------

    Doubly Occupied:

       1A    -20.560769     2A    -20.547846     3A    -11.338282
       4A    -11.338034     5A    -11.251158     6A    -11.248743
       7A    -11.240880     8A    -11.231533     9A     -1.385539
      10A     -1.371540    11A     -1.099518    12A     -1.037023
      13A     -0.983947    14A     -0.874801    15A     -0.777530
      16A     -0.742271    17A     -0.675914    18A     -0.666424
      19A     -0.656143    20A     -0.623974    21A     -0.614964
      22A     -0.611122    23A     -0.571367    24A     -0.562317
      25A     -0.519489    26A     -0.508202    27A     -0.507271
      28A     -0.487494    29A     -0.481382    30A     -0.431206
      31A     -0.414203

  @DF-RHF Final Energy:  -382.88961719922531

   => Energetics <=

    Nuclear Repulsion Energy =            353.2428412490500023
    One-Electron Energy =               -1221.5431479452106487
    Two-Electron Energy =                 485.4106894969353334
    Total Energy =                       -382.8896171992253130
  Basis Set: (AUG-CC-PVTZ AUX)
    Blend: AUG-CC-PVTZ-RI
    Molecular point group: c1

    Geometry (in Angstrom), charge = 0, multiplicity = 1:

       Center              X                  Y                   Z               Mass
    ------------   -----------------  -----------------  -----------------  -----------------
         O            1.928037920159     1.381674827430     0.002377043697    15.994914619570
         O           -3.136831079841     0.926506827430     0.002404043697    15.994914619570
         C           -0.475697079841    -0.025923172570     0.002375043697    12.000000000000
         C            0.853922920159    -0.766983172570     0.002405043697    12.000000000000
         C           -1.657186079841    -0.985589172570     0.002373043697    12.000000000000
         C            2.050940420159     0.148193227430    -0.020303156303    12.000000000000
         C            3.419851920159    -0.497251172570     0.002389043697    12.000000000000
         C           -2.993901079841    -0.289000172570     0.002384043697    12.000000000000
         H           -0.533084079841     0.633305827430     0.872786043697     1.007825032230
         H           -0.533058079841     0.633277827430    -0.868057956303     1.007825032230
         H            0.935767920159    -1.429881172570    -0.871164956303     1.007825032230
         H            0.935756920159    -1.429825172570     0.876019043697     1.007825032230
         H           -1.632842079841    -1.654006172570     0.875944043697     1.007825032230
         H           -1.632848079841    -1.653995172570    -0.871205956303     1.007825032230
         H            3.534115920159    -1.135993172570    -0.879472956303     1.007825032230
         H            3.534126920159    -1.135961172570     0.884273043697     1.007825032230
         H            4.193439920159     0.271406827430     0.002371043697     1.007825032230
         H           -3.880510079841    -0.957356172570     0.002372043697     1.007825032230

  Basis Set: AUG-CC-PVTZ
    Blend: AUG-CC-PVTZ
  Basis Set: (AUG-CC-PVTZ AUX)
    Blend: AUG-CC-PVTZ-JKFIT
	 Reference Energy          =    -382.8896171992253130 [Eh]
	 Singles Energy            =      -0.0000000000000000 [Eh]
	 Same-Spin Energy          =      -0.3798356317774169 [Eh]
	 Opposite-Spin Energy      =      -1.2554323436906414 [Eh]
	 Correlation Energy        =      -1.6352679754680584 [Eh]
	 Total Energy              =    -384.5248851746933951 [Eh]

	 ================> DF-SCS-MP2 Energies <==================
	-----------------------------------------------------------
	 SCS Same-Spin Scale       =       0.3333333333333333 [-]
	 SCS Opposite-Spin Scale   =       1.2000000000000000 [-]
	 SCS Same-Spin Energy      =      -0.1266118772591390 [Eh]
	 SCS Opposite-Spin Energy  =      -1.5065188124287696 [Eh]
	 SCS Correlation Energy    =      -1.6331306896879085 [Eh]
	 SCS Total Energy          =    -384.5227478889132158 [Eh]
	-----------------------------------------------------------

  Dipole Moment: [D]
     X:     1.1041      Y:    -5.2054      Z:    -0.0066     Total:     5.3212

*** Psi4 exiting successfully. Buy a developer a beer!
