                               Psi4 1.4a3.dev225

  ==> Input File <==

--------------------------------------------------------------------------
#psi4
#
memory 32 gb

molecule  {
0 1
  O        1.8881650     1.4432750    -0.0000100
  O       -3.1767040     0.9881070     0.0000170
  C       -0.5155700     0.0356770    -0.0000120
  C        0.8140500    -0.7053830     0.0000180
  C       -1.6970590    -0.9239890    -0.0000140
  C        2.0167370     0.2220750     0.0000010
  C        3.3799790    -0.4356510     0.0000020
  C       -3.0337740    -0.2274000    -0.0000030
  H       -0.5729570     0.6949060     0.8703990
  H       -0.5729310     0.6948780    -0.8704450
  H        0.8958950    -1.3682810    -0.8735520
  H        0.8958840    -1.3682250     0.8736320
  H       -1.6727150    -1.5924060     0.8735570
  H       -1.6727210    -1.5923950    -0.8735930
  H        3.4942430    -1.0743930    -0.8818600
  H        3.4942540    -1.0743610     0.8818860
  H        4.1535670     0.3330070    -0.0000160
  H       -4.0800886    -1.0161475    -0.0000172
units angstrom
no_reorient  #important for SAPT in psi4, default
symmetry c1  #important for SAPT in psi4, default
}

set PROPERTIES_ORIGIN ["COM"]
properties('MP2/aug-cc-pvtz', properties = ['dipole'])
--------------------------------------------------------------------------

    Molecular point group: c1
  Charge       = 0
  Multiplicity = 1
  Basis Set: AUG-CC-PVTZ
    Blend: AUG-CC-PVTZ
  Basis Set: (AUG-CC-PVTZ AUX)
    Blend: AUG-CC-PVTZ-JKFIT

    Orbital Energies [Eh]
    ---------------------

    Doubly Occupied:

       1A    -20.567548     2A    -20.550097     3A    -11.360038
       4A    -11.338495     5A    -11.255880     6A    -11.249839
       7A    -11.241424     8A    -11.233585     9A     -1.390199
      10A     -1.380734    11A     -1.100593    12A     -1.036946
      13A     -0.983308    14A     -0.867723    15A     -0.759928
      16A     -0.740360    17A     -0.667860    18A     -0.663059
      19A     -0.657421    20A     -0.622137    21A     -0.616637
      22A     -0.613744    23A     -0.572720    24A     -0.563611
      25A     -0.520517    26A     -0.512204    27A     -0.508998
      28A     -0.490909    29A     -0.486370    30A     -0.426128
      31A     -0.409909

  @DF-RHF Final Energy:  -382.87144001347355

   => Energetics <=

    Nuclear Repulsion Energy =            352.4265010403666452
    One-Electron Energy =               -1219.8180439372645196
    Two-Electron Energy =                 484.5201028834242720
    Total Energy =                       -382.8714400134735456
  Basis Set: (AUG-CC-PVTZ AUX)
    Blend: AUG-CC-PVTZ-RI
    Molecular point group: c1

    Geometry (in Angstrom), charge = 0, multiplicity = 1:

       Center              X                  Y                   Z               Mass
    ------------   -----------------  -----------------  -----------------  -----------------
         O            1.928852532817     1.381446493327    -0.000010058670    15.994914619570
         O           -3.136016467183     0.926278493327     0.000016941330    15.994914619570
         C           -0.474882467183    -0.026151506673    -0.000012058670    12.000000000000
         C            0.854737532817    -0.767211506673     0.000017941330    12.000000000000
         C           -1.656371467183    -0.985817506673    -0.000014058670    12.000000000000
         C            2.057424532817     0.160246493327     0.000000941330    12.000000000000
         C            3.420666532817    -0.497479506673     0.000001941330    12.000000000000
         C           -2.993086467183    -0.289228506673    -0.000003058670    12.000000000000
         H           -0.532269467183     0.633077493327     0.870398941330     1.007825032230
         H           -0.532243467183     0.633049493327    -0.870445058670     1.007825032230
         H            0.936582532817    -1.430109506673    -0.873552058670     1.007825032230
         H            0.936571532817    -1.430053506673     0.873631941330     1.007825032230
         H           -1.632027467183    -1.654234506673     0.873556941330     1.007825032230
         H           -1.632033467183    -1.654223506673    -0.873593058670     1.007825032230
         H            3.534930532817    -1.136221506673    -0.881860058670     1.007825032230
         H            3.534941532817    -1.136189506673     0.881885941330     1.007825032230
         H            4.194254532817     0.271178493327    -0.000016058670     1.007825032230
         H           -4.039401067183    -1.077976006673    -0.000017258670     1.007825032230

  Basis Set: AUG-CC-PVTZ
    Blend: AUG-CC-PVTZ
  Basis Set: (AUG-CC-PVTZ AUX)
    Blend: AUG-CC-PVTZ-JKFIT
	 Reference Energy          =    -382.8714400134735456 [Eh]
	 Singles Energy            =      -0.0000000000000000 [Eh]
	 Same-Spin Energy          =      -0.3803884101670184 [Eh]
	 Opposite-Spin Energy      =      -1.2571538170264245 [Eh]
	 Correlation Energy        =      -1.6375422271934430 [Eh]
	 Total Energy              =    -384.5089822406669668 [Eh]

	 ================> DF-SCS-MP2 Energies <==================
	-----------------------------------------------------------
	 SCS Same-Spin Scale       =       0.3333333333333333 [-]
	 SCS Opposite-Spin Scale   =       1.2000000000000000 [-]
	 SCS Same-Spin Energy      =      -0.1267961367223395 [Eh]
	 SCS Opposite-Spin Energy  =      -1.5085845804317093 [Eh]
	 SCS Correlation Energy    =      -1.6353807171540486 [Eh]
	 SCS Total Energy          =    -384.5068207306275667 [Eh]
	-----------------------------------------------------------

  Dipole Moment: [D]
     X:     1.4499      Y:    -4.9357      Z:    -0.0000     Total:     5.1443

*** Psi4 exiting successfully. Buy a developer a beer!
