                               Psi4 1.4a3.dev225

  ==> Input File <==

--------------------------------------------------------------------------
#psi4
#
memory 32 gb

molecule  {
0 1
  O        1.8881650     1.4432750    -0.0000100
  O       -3.1767040     0.9881070     0.0000170
  C       -0.5155700     0.0356770    -0.0000120
  C        0.8140500    -0.7053830     0.0000180
  C       -1.6970590    -0.9239890    -0.0000140
  C        2.0167370     0.2220750     0.0000010
  C        3.3799790    -0.4356510     0.0000020
  C       -3.0337740    -0.2274000    -0.0000030
  H       -0.5729570     0.6949060     0.8703990
  H       -0.5729310     0.6948780    -0.8704450
  H        0.8958950    -1.3682810    -0.8735520
  H        0.8884423    -1.3079481     0.7941882
  H       -1.6727150    -1.5924060     0.8735570
  H       -1.6727210    -1.5923950    -0.8735930
  H        3.4942430    -1.0743930    -0.8818600
  H        3.4942540    -1.0743610     0.8818860
  H        4.1535670     0.3330070    -0.0000160
  H       -3.9203830    -0.8957560    -0.0000150
units angstrom
no_reorient  #important for SAPT in psi4, default
symmetry c1  #important for SAPT in psi4, default
}

set PROPERTIES_ORIGIN ["COM"]
properties('MP2/aug-cc-pvtz', properties = ['dipole'])
--------------------------------------------------------------------------

    Molecular point group: c1
  Charge       = 0
  Multiplicity = 1
  Basis Set: AUG-CC-PVTZ
    Blend: AUG-CC-PVTZ
  Basis Set: (AUG-CC-PVTZ AUX)
    Blend: AUG-CC-PVTZ-JKFIT

    Orbital Energies [Eh]
    ---------------------

    Doubly Occupied:

       1A    -20.560381     2A    -20.548249     3A    -11.337866
       4A    -11.336321     5A    -11.250640     6A    -11.240578
       7A    -11.235561     8A    -11.229979     9A     -1.385138
      10A     -1.378903    11A     -1.101193    12A     -1.037383
      13A     -0.985785    14A     -0.875696    15A     -0.777546
      16A     -0.746450    17A     -0.676582    18A     -0.670151
      19A     -0.657735    20A     -0.625164    21A     -0.616620
      22A     -0.612021    23A     -0.575092    24A     -0.563731
      25A     -0.518872    26A     -0.510039    27A     -0.506947
      28A     -0.488045    29A     -0.486571    30A     -0.430728
      31A     -0.412118

  @DF-RHF Final Energy:  -382.88578158958023

   => Energetics <=

    Nuclear Repulsion Energy =            353.7844142497797293
    One-Electron Energy =               -1222.5842203858996982
    Two-Electron Energy =                 485.9140245465397356
    Total Energy =                       -382.8857815895802332
  Basis Set: (AUG-CC-PVTZ AUX)
    Blend: AUG-CC-PVTZ-RI
    Molecular point group: c1

    Geometry (in Angstrom), charge = 0, multiplicity = 1:

       Center              X                  Y                   Z               Mass
    ------------   -----------------  -----------------  -----------------  -----------------
         O            1.927507236477     1.379850234876     0.000691831231    15.994914619570
         O           -3.137361763523     0.924682234876     0.000718831231    15.994914619570
         C           -0.476227763523    -0.027747765124     0.000689831231    12.000000000000
         C            0.853392236477    -0.768807765124     0.000719831231    12.000000000000
         C           -1.657716763523    -0.987413765124     0.000687831231    12.000000000000
         C            2.056079236477     0.158650234876     0.000702831231    12.000000000000
         C            3.419321236477    -0.499075765124     0.000703831231    12.000000000000
         C           -2.994431763523    -0.290824765124     0.000698831231    12.000000000000
         H           -0.533614763523     0.631481234876     0.871100831231     1.007825032230
         H           -0.533588763523     0.631453234876    -0.869743168769     1.007825032230
         H            0.935237236477    -1.431705765124    -0.872850168769     1.007825032230
         H            0.927784536477    -1.371372865124     0.794890031231     1.007825032230
         H           -1.633372763523    -1.655830765124     0.874258831231     1.007825032230
         H           -1.633378763523    -1.655819765124    -0.872891168769     1.007825032230
         H            3.533585236477    -1.137817765124    -0.881158168769     1.007825032230
         H            3.533596236477    -1.137785765124     0.882587831231     1.007825032230
         H            4.192909236477     0.269582234876     0.000685831231     1.007825032230
         H           -3.881040763523    -0.959180765124     0.000686831231     1.007825032230

  Basis Set: AUG-CC-PVTZ
    Blend: AUG-CC-PVTZ
  Basis Set: (AUG-CC-PVTZ AUX)
    Blend: AUG-CC-PVTZ-JKFIT
	 Reference Energy          =    -382.8857815895802332 [Eh]
	 Singles Energy            =      -0.0000000000000000 [Eh]
	 Same-Spin Energy          =      -0.3794409195061482 [Eh]
	 Opposite-Spin Energy      =      -1.2541824993618973 [Eh]
	 Correlation Energy        =      -1.6336234188680456 [Eh]
	 Total Energy              =    -384.5194050084483024 [Eh]

	 ================> DF-SCS-MP2 Energies <==================
	-----------------------------------------------------------
	 SCS Same-Spin Scale       =       0.3333333333333333 [-]
	 SCS Opposite-Spin Scale   =       1.2000000000000000 [-]
	 SCS Same-Spin Energy      =      -0.1264803065020494 [Eh]
	 SCS Opposite-Spin Energy  =      -1.5050189992342766 [Eh]
	 SCS Correlation Energy    =      -1.6314993057363261 [Eh]
	 SCS Total Energy          =    -384.5172808953165600 [Eh]
	-----------------------------------------------------------

  Dipole Moment: [D]
     X:     1.1581      Y:    -5.1848      Z:     0.0241     Total:     5.3126

*** Psi4 exiting successfully. Buy a developer a beer!
