                               Psi4 1.4a3.dev225

  ==> Input File <==

--------------------------------------------------------------------------
#psi4
#
memory 32 gb

molecule  {
0 1
  O        1.8881650     1.4432750    -0.0000100
  O       -3.1767040     0.9881070     0.0000170
  C       -0.5155700     0.0356770    -0.0000120
  C        0.8140500    -0.7053830     0.0000180
  C       -1.6735627    -0.8769140    -0.0000132
  C        2.0167370     0.2220750     0.0000010
  C        3.3799790    -0.4356510     0.0000020
  C       -3.0337740    -0.2274000    -0.0000030
  H       -0.5729570     0.6949060     0.8703990
  H       -0.5729310     0.6948780    -0.8704450
  H        0.8958950    -1.3682810    -0.8735520
  H        0.8958840    -1.3682250     0.8736320
  H       -1.6727150    -1.5924060     0.8735570
  H       -1.6727210    -1.5923950    -0.8735930
  H        3.4942430    -1.0743930    -0.8818600
  H        3.4942540    -1.0743610     0.8818860
  H        4.1535670     0.3330070    -0.0000160
  H       -3.9203830    -0.8957560    -0.0000150
units angstrom
no_reorient  #important for SAPT in psi4, default
symmetry c1  #important for SAPT in psi4, default
}

set PROPERTIES_ORIGIN ["COM"]
properties('MP2/aug-cc-pvtz', properties = ['dipole'])
--------------------------------------------------------------------------

    Molecular point group: c1
  Charge       = 0
  Multiplicity = 1
  Basis Set: AUG-CC-PVTZ
    Blend: AUG-CC-PVTZ
  Basis Set: (AUG-CC-PVTZ AUX)
    Blend: AUG-CC-PVTZ-JKFIT

    Orbital Energies [Eh]
    ---------------------

    Doubly Occupied:

       1A    -20.558911     2A    -20.549148     3A    -11.337912
       4A    -11.337593     5A    -11.253889     6A    -11.248899
       7A    -11.240763     8A    -11.228848     9A     -1.385121
      10A     -1.379792    11A     -1.103784    12A     -1.036537
      13A     -0.981891    14A     -0.876687    15A     -0.773771
      16A     -0.743176    17A     -0.677705    18A     -0.665671
      19A     -0.657898    20A     -0.625035    21A     -0.612354
      22A     -0.611099    23A     -0.567919    24A     -0.565725
      25A     -0.527719    26A     -0.508569    27A     -0.506986
      28A     -0.486623    29A     -0.477965    30A     -0.431281
      31A     -0.413184

  @DF-RHF Final Energy:  -382.88805583737269

   => Energetics <=

    Nuclear Repulsion Energy =            353.9177704319694158
    One-Electron Energy =               -1222.8667408930580223
    Two-Electron Energy =                 486.0609146237159166
    Total Energy =                       -382.8880558373726899
  Basis Set: (AUG-CC-PVTZ AUX)
    Blend: AUG-CC-PVTZ-RI
    Molecular point group: c1

    Geometry (in Angstrom), charge = 0, multiplicity = 1:

       Center              X                  Y                   Z               Mass
    ------------   -----------------  -----------------  -----------------  -----------------
         O            1.924969668275     1.375430493321    -0.000010162268    15.994914619570
         O           -3.139899331725     0.920262493321     0.000016837732    15.994914619570
         C           -0.478765331725    -0.032167506679    -0.000012162268    12.000000000000
         C            0.850854668275    -0.773227506679     0.000017837732    12.000000000000
         C           -1.636758031725    -0.944758506679    -0.000013362268    12.000000000000
         C            2.053541668275     0.154230493321     0.000000837732    12.000000000000
         C            3.416783668275    -0.503495506679     0.000001837732    12.000000000000
         C           -2.996969331725    -0.295244506679    -0.000003162268    12.000000000000
         H           -0.536152331725     0.627061493321     0.870398837732     1.007825032230
         H           -0.536126331725     0.627033493321    -0.870445162268     1.007825032230
         H            0.932699668275    -1.436125506679    -0.873552162268     1.007825032230
         H            0.932688668275    -1.436069506679     0.873631837732     1.007825032230
         H           -1.635910331725    -1.660250506679     0.873556837732     1.007825032230
         H           -1.635916331725    -1.660239506679    -0.873593162268     1.007825032230
         H            3.531047668275    -1.142237506679    -0.881860162268     1.007825032230
         H            3.531058668275    -1.142205506679     0.881885837732     1.007825032230
         H            4.190371668275     0.265162493321    -0.000016162268     1.007825032230
         H           -3.883578331725    -0.963600506679    -0.000015162268     1.007825032230

  Basis Set: AUG-CC-PVTZ
    Blend: AUG-CC-PVTZ
  Basis Set: (AUG-CC-PVTZ AUX)
    Blend: AUG-CC-PVTZ-JKFIT
	 Reference Energy          =    -382.8880558373726899 [Eh]
	 Singles Energy            =      -0.0000000000000000 [Eh]
	 Same-Spin Energy          =      -0.3799652918938112 [Eh]
	 Opposite-Spin Energy      =      -1.2551224451795313 [Eh]
	 Correlation Energy        =      -1.6350877370733425 [Eh]
	 Total Energy              =    -384.5231435744460100 [Eh]

	 ================> DF-SCS-MP2 Energies <==================
	-----------------------------------------------------------
	 SCS Same-Spin Scale       =       0.3333333333333333 [-]
	 SCS Opposite-Spin Scale   =       1.2000000000000000 [-]
	 SCS Same-Spin Energy      =      -0.1266550972979371 [Eh]
	 SCS Opposite-Spin Energy  =      -1.5061469342154374 [Eh]
	 SCS Correlation Energy    =      -1.6328020315133744 [Eh]
	 SCS Total Energy          =    -384.5208578688860825 [Eh]
	-----------------------------------------------------------

  Dipole Moment: [D]
     X:     1.1681      Y:    -5.1474      Z:    -0.0000     Total:     5.2782

*** Psi4 exiting successfully. Buy a developer a beer!
