                               Psi4 1.4a3.dev225

  ==> Input File <==

--------------------------------------------------------------------------
#psi4
#
memory 32 gb

molecule  {
0 1
  O        1.8881650     1.4432750    -0.0000100
  O       -3.1767040     0.9881070     0.0000170
  C       -0.5155700     0.0356770    -0.0000120
  C        0.8140500    -0.7053830     0.0000180
  C       -1.6851054    -0.9005540    -0.0000136
  C        2.0167370     0.2220750     0.0000010
  C        3.3799790    -0.4356510     0.0000020
  C       -3.0337740    -0.2274000    -0.0000030
  H       -0.5729570     0.6949060     0.8703990
  H       -0.5729310     0.6948780    -0.8704450
  H        0.8958950    -1.3682810    -0.8735520
  H        0.8958840    -1.3682250     0.8736320
  H       -1.6727150    -1.5924060     0.8735570
  H       -1.6727210    -1.5923950    -0.8735930
  H        3.4942430    -1.0743930    -0.8818600
  H        3.4942540    -1.0743610     0.8818860
  H        4.1535670     0.3330070    -0.0000160
  H       -3.9203830    -0.8957560    -0.0000150
units angstrom
no_reorient  #important for SAPT in psi4, default
symmetry c1  #important for SAPT in psi4, default
}

set PROPERTIES_ORIGIN ["COM"]
properties('MP2/aug-cc-pvtz', properties = ['dipole'])
--------------------------------------------------------------------------

    Molecular point group: c1
  Charge       = 0
  Multiplicity = 1
  Basis Set: AUG-CC-PVTZ
    Blend: AUG-CC-PVTZ
  Basis Set: (AUG-CC-PVTZ AUX)
    Blend: AUG-CC-PVTZ-JKFIT

    Orbital Energies [Eh]
    ---------------------

    Doubly Occupied:

       1A    -20.559719     2A    -20.548962     3A    -11.337925
       4A    -11.337324     5A    -11.252253     6A    -11.248401
       7A    -11.240574     8A    -11.229907     9A     -1.385199
      10A     -1.379597    11A     -1.100875    12A     -1.036085
      13A     -0.982504    14A     -0.874873    15A     -0.775446
      16A     -0.742569    17A     -0.676769    18A     -0.665526
      19A     -0.657516    20A     -0.625024    21A     -0.613449
      22A     -0.611235    23A     -0.569379    24A     -0.564616
      25A     -0.523421    26A     -0.508270    27A     -0.507246
      28A     -0.486790    29A     -0.482188    30A     -0.431195
      31A     -0.412888

  @DF-RHF Final Energy:  -382.89051360163268

   => Energetics <=

    Nuclear Repulsion Energy =            353.5973432702660375
    One-Electron Energy =               -1222.2402579905183302
    Two-Electron Energy =                 485.7524011186196162
    Total Energy =                       -382.8905136016326765
  Basis Set: (AUG-CC-PVTZ AUX)
    Blend: AUG-CC-PVTZ-RI
    Molecular point group: c1

    Geometry (in Angstrom), charge = 0, multiplicity = 1:

       Center              X                  Y                   Z               Mass
    ------------   -----------------  -----------------  -----------------  -----------------
         O            1.926183964163     1.377917429203    -0.000010120188    15.994914619570
         O           -3.138685035837     0.922749429203     0.000016879812    15.994914619570
         C           -0.477551035837    -0.029680570797    -0.000012120188    12.000000000000
         C            0.852068964163    -0.770740570797     0.000017879812    12.000000000000
         C           -1.647086435837    -0.965911570797    -0.000013720188    12.000000000000
         C            2.054755964163     0.156717429203     0.000000879812    12.000000000000
         C            3.417997964163    -0.501008570797     0.000001879812    12.000000000000
         C           -2.995755035837    -0.292757570797    -0.000003120188    12.000000000000
         H           -0.534938035837     0.629548429203     0.870398879812     1.007825032230
         H           -0.534912035837     0.629520429203    -0.870445120188     1.007825032230
         H            0.933913964163    -1.433638570797    -0.873552120188     1.007825032230
         H            0.933902964163    -1.433582570797     0.873631879812     1.007825032230
         H           -1.634696035837    -1.657763570797     0.873556879812     1.007825032230
         H           -1.634702035837    -1.657752570797    -0.873593120188     1.007825032230
         H            3.532261964163    -1.139750570797    -0.881860120188     1.007825032230
         H            3.532272964163    -1.139718570797     0.881885879812     1.007825032230
         H            4.191585964163     0.267649429203    -0.000016120188     1.007825032230
         H           -3.882364035837    -0.961113570797    -0.000015120188     1.007825032230

  Basis Set: AUG-CC-PVTZ
    Blend: AUG-CC-PVTZ
  Basis Set: (AUG-CC-PVTZ AUX)
    Blend: AUG-CC-PVTZ-JKFIT
	 Reference Energy          =    -382.8905136016326765 [Eh]
	 Singles Energy            =      -0.0000000000000000 [Eh]
	 Same-Spin Energy          =      -0.3796941413202438 [Eh]
	 Opposite-Spin Energy      =      -1.2548459899694409 [Eh]
	 Correlation Energy        =      -1.6345401312896848 [Eh]
	 Total Energy              =    -384.5250537329223448 [Eh]

	 ================> DF-SCS-MP2 Energies <==================
	-----------------------------------------------------------
	 SCS Same-Spin Scale       =       0.3333333333333333 [-]
	 SCS Opposite-Spin Scale   =       1.2000000000000000 [-]
	 SCS Same-Spin Energy      =      -0.1265647137734146 [Eh]
	 SCS Opposite-Spin Energy  =      -1.5058151879633290 [Eh]
	 SCS Correlation Energy    =      -1.6323799017367435 [Eh]
	 SCS Total Energy          =    -384.5228935033694029 [Eh]
	-----------------------------------------------------------

  Dipole Moment: [D]
     X:     1.1516      Y:    -5.1522      Z:    -0.0000     Total:     5.2794

*** Psi4 exiting successfully. Buy a developer a beer!
