                               Psi4 1.4a3.dev225

  ==> Input File <==

--------------------------------------------------------------------------
#psi4
#
memory 32 gb

molecule  {
0 1
  O        1.8881650     1.4432750    -0.0000100
  O       -3.1767040     0.9881070     0.0000170
  C       -0.5155700     0.0356770    -0.0000120
  C        0.8140500    -0.7053830     0.0000180
  C       -1.6970590    -0.9239890    -0.0000140
  C        2.0167370     0.2220750     0.0000010
  C        3.3799790    -0.4356510     0.0000020
  C       -3.0337740    -0.2274000    -0.0000030
  H       -0.5834541     0.8154909     1.0296130
  H       -0.5729310     0.6948780    -0.8704450
  H        0.8958950    -1.3682810    -0.8735520
  H        0.8958840    -1.3682250     0.8736320
  H       -1.6727150    -1.5924060     0.8735570
  H       -1.6727210    -1.5923950    -0.8735930
  H        3.4942430    -1.0743930    -0.8818600
  H        3.4942540    -1.0743610     0.8818860
  H        4.1535670     0.3330070    -0.0000160
  H       -3.9203830    -0.8957560    -0.0000150
units angstrom
no_reorient  #important for SAPT in psi4, default
symmetry c1  #important for SAPT in psi4, default
}

set PROPERTIES_ORIGIN ["COM"]
properties('MP2/aug-cc-pvtz', properties = ['dipole'])
--------------------------------------------------------------------------

    Molecular point group: c1
  Charge       = 0
  Multiplicity = 1
  Basis Set: AUG-CC-PVTZ
    Blend: AUG-CC-PVTZ
  Basis Set: (AUG-CC-PVTZ AUX)
    Blend: AUG-CC-PVTZ-JKFIT

    Orbital Energies [Eh]
    ---------------------

    Doubly Occupied:

       1A    -20.560287     2A    -20.548514     3A    -11.337995
       4A    -11.337077     5A    -11.253016     6A    -11.252390
       7A    -11.249886     8A    -11.240581     9A     -1.384944
      10A     -1.379061    11A     -1.095603    12A     -1.036016
      13A     -0.983113    14A     -0.865451    15A     -0.772478
      16A     -0.740833    17A     -0.676129    18A     -0.660086
      19A     -0.656043    20A     -0.623428    21A     -0.614366
      22A     -0.611894    23A     -0.570221    24A     -0.564005
      25A     -0.520831    26A     -0.509056    27A     -0.499506
      28A     -0.486706    29A     -0.462484    30A     -0.430818
      31A     -0.412657

  @DF-RHF Final Energy:  -382.87084423903315

   => Energetics <=

    Nuclear Repulsion Energy =            352.4423399241113657
    One-Electron Energy =               -1219.9554162079730304
    Two-Electron Energy =                 484.6422320448285177
    Total Energy =                       -382.8708442390331470
  Basis Set: (AUG-CC-PVTZ AUX)
    Blend: AUG-CC-PVTZ-RI
    Molecular point group: c1

    Geometry (in Angstrom), charge = 0, multiplicity = 1:

       Center              X                  Y                   Z               Mass
    ------------   -----------------  -----------------  -----------------  -----------------
         O            1.927534231835     1.379317395958    -0.001416780625    15.994914619570
         O           -3.137334768165     0.924149395958    -0.001389780625    15.994914619570
         C           -0.476200768165    -0.028280604042    -0.001418780625    12.000000000000
         C            0.853419231835    -0.769340604042    -0.001388780625    12.000000000000
         C           -1.657689768165    -0.987946604042    -0.001420780625    12.000000000000
         C            2.056106231835     0.158117395958    -0.001405780625    12.000000000000
         C            3.419348231835    -0.499608604042    -0.001404780625    12.000000000000
         C           -2.994404768165    -0.291357604042    -0.001409780625    12.000000000000
         H           -0.544084868165     0.751533295958     1.028206219375     1.007825032230
         H           -0.533561768165     0.630920395958    -0.871851780625     1.007825032230
         H            0.935264231835    -1.432238604042    -0.874958780625     1.007825032230
         H            0.935253231835    -1.432182604042     0.872225219375     1.007825032230
         H           -1.633345768165    -1.656363604042     0.872150219375     1.007825032230
         H           -1.633351768165    -1.656352604042    -0.874999780625     1.007825032230
         H            3.533612231835    -1.138350604042    -0.883266780625     1.007825032230
         H            3.533623231835    -1.138318604042     0.880479219375     1.007825032230
         H            4.192936231835     0.269049395958    -0.001422780625     1.007825032230
         H           -3.881013768165    -0.959713604042    -0.001421780625     1.007825032230

  Basis Set: AUG-CC-PVTZ
    Blend: AUG-CC-PVTZ
  Basis Set: (AUG-CC-PVTZ AUX)
    Blend: AUG-CC-PVTZ-JKFIT
	 Reference Energy          =    -382.8708442390331470 [Eh]
	 Singles Energy            =      -0.0000000000000000 [Eh]
	 Same-Spin Energy          =      -0.3797527948069253 [Eh]
	 Opposite-Spin Energy      =      -1.2566496704497518 [Eh]
	 Correlation Energy        =      -1.6364024652566771 [Eh]
	 Total Energy              =    -384.5072467042897983 [Eh]

	 ================> DF-SCS-MP2 Energies <==================
	-----------------------------------------------------------
	 SCS Same-Spin Scale       =       0.3333333333333333 [-]
	 SCS Opposite-Spin Scale   =       1.2000000000000000 [-]
	 SCS Same-Spin Energy      =      -0.1265842649356417 [Eh]
	 SCS Opposite-Spin Energy  =      -1.5079796045397023 [Eh]
	 SCS Correlation Energy    =      -1.6345638694753439 [Eh]
	 SCS Total Energy          =    -384.5054081085085045 [Eh]
	-----------------------------------------------------------

  Dipole Moment: [D]
     X:     1.1449      Y:    -5.2028      Z:    -0.0717     Total:     5.3277

*** Psi4 exiting successfully. Buy a developer a beer!
