                               Psi4 1.4a3.dev225

  ==> Input File <==

--------------------------------------------------------------------------
#psi4
#
memory 32 gb

molecule  {
0 1
  O        1.8881650     1.4432750    -0.0000100
  O       -3.1767040     0.9881070     0.0000170
  C       -0.5155700     0.0356770    -0.0000120
  C        0.8140500    -0.7053830     0.0000180
  C       -1.6970590    -0.9239890    -0.0000140
  C        2.0167370     0.2220750     0.0000010
  C        3.3799790    -0.4356510     0.0000020
  C       -3.0337740    -0.2274000    -0.0000030
  H       -0.5729570     0.6949060     0.8703990
  H       -0.5729310     0.6948780    -0.8704450
  H        0.9033377    -1.4285630    -0.9529919
  H        0.8958840    -1.3682250     0.8736320
  H       -1.6727150    -1.5924060     0.8735570
  H       -1.6727210    -1.5923950    -0.8735930
  H        3.4942430    -1.0743930    -0.8818600
  H        3.4942540    -1.0743610     0.8818860
  H        4.1535670     0.3330070    -0.0000160
  H       -3.9203830    -0.8957560    -0.0000150
units angstrom
no_reorient  #important for SAPT in psi4, default
symmetry c1  #important for SAPT in psi4, default
}

set PROPERTIES_ORIGIN ["COM"]
properties('MP2/aug-cc-pvtz', properties = ['dipole'])
--------------------------------------------------------------------------

    Molecular point group: c1
  Charge       = 0
  Multiplicity = 1
  Basis Set: AUG-CC-PVTZ
    Blend: AUG-CC-PVTZ
  Basis Set: (AUG-CC-PVTZ AUX)
    Blend: AUG-CC-PVTZ-JKFIT

    Orbital Energies [Eh]
    ---------------------

    Doubly Occupied:

       1A    -20.560712     2A    -20.549615     3A    -11.338206
       4A    -11.338076     5A    -11.259697     6A    -11.250971
       7A    -11.240278     8A    -11.232219     9A     -1.385526
      10A     -1.380182    11A     -1.096592    12A     -1.034645
      13A     -0.981392    14A     -0.871523    15A     -0.777080
      16A     -0.739167    17A     -0.675961    18A     -0.663019
      19A     -0.655329    20A     -0.625365    21A     -0.613872
      22A     -0.610374    23A     -0.567265    24A     -0.562555
      25A     -0.519567    26A     -0.508324    27A     -0.504979
      28A     -0.488705    29A     -0.481011    30A     -0.431401
      31A     -0.413051

  @DF-RHF Final Energy:  -382.88503245909806

   => Energetics <=

    Nuclear Repulsion Energy =            352.8261348967868116
    One-Electron Energy =               -1220.7090163792263411
    Two-Electron Energy =                 484.9978490233414732
    Total Energy =                       -382.8850324590980563
  Basis Set: (AUG-CC-PVTZ AUX)
    Blend: AUG-CC-PVTZ-RI
    Molecular point group: c1

    Geometry (in Angstrom), charge = 0, multiplicity = 1:

       Center              X                  Y                   Z               Mass
    ------------   -----------------  -----------------  -----------------  -----------------
         O            1.927375728425     1.380915408216     0.000691796773    15.994914619570
         O           -3.137493271575     0.925747408216     0.000718796773    15.994914619570
         C           -0.476359271575    -0.026682591784     0.000689796773    12.000000000000
         C            0.853260728425    -0.767742591784     0.000719796773    12.000000000000
         C           -1.657848271575    -0.986348591784     0.000687796773    12.000000000000
         C            2.055947728425     0.159715408216     0.000702796773    12.000000000000
         C            3.419189728425    -0.498010591784     0.000703796773    12.000000000000
         C           -2.994563271575    -0.289759591784     0.000698796773    12.000000000000
         H           -0.533746271575     0.632546408216     0.871100796773     1.007825032230
         H           -0.533720271575     0.632518408216    -0.869743203227     1.007825032230
         H            0.942548428425    -1.490922591784    -0.952290103227     1.007825032230
         H            0.935094728425    -1.430584591784     0.874333796773     1.007825032230
         H           -1.633504271575    -1.654765591784     0.874258796773     1.007825032230
         H           -1.633510271575    -1.654754591784    -0.872891203227     1.007825032230
         H            3.533453728425    -1.136752591784    -0.881158203227     1.007825032230
         H            3.533464728425    -1.136720591784     0.882587796773     1.007825032230
         H            4.192777728425     0.270647408216     0.000685796773     1.007825032230
         H           -3.881172271575    -0.958115591784     0.000686796773     1.007825032230

  Basis Set: AUG-CC-PVTZ
    Blend: AUG-CC-PVTZ
  Basis Set: (AUG-CC-PVTZ AUX)
    Blend: AUG-CC-PVTZ-JKFIT
	 Reference Energy          =    -382.8850324590980563 [Eh]
	 Singles Energy            =      -0.0000000000000000 [Eh]
	 Same-Spin Energy          =      -0.3795333309234282 [Eh]
	 Opposite-Spin Energy      =      -1.2554112562592379 [Eh]
	 Correlation Energy        =      -1.6349445871826660 [Eh]
	 Total Energy              =    -384.5199770462807010 [Eh]

	 ================> DF-SCS-MP2 Energies <==================
	-----------------------------------------------------------
	 SCS Same-Spin Scale       =       0.3333333333333333 [-]
	 SCS Opposite-Spin Scale   =       1.2000000000000000 [-]
	 SCS Same-Spin Energy      =      -0.1265111103078094 [Eh]
	 SCS Opposite-Spin Energy  =      -1.5064935075110855 [Eh]
	 SCS Correlation Energy    =      -1.6330046178188948 [Eh]
	 SCS Total Energy          =    -384.5180370769169258 [Eh]
	-----------------------------------------------------------

  Dipole Moment: [D]
     X:     1.1168      Y:    -5.1131      Z:     0.0341     Total:     5.2337

*** Psi4 exiting successfully. Buy a developer a beer!
