                               Psi4 1.4a3.dev225

  ==> Input File <==

--------------------------------------------------------------------------
#psi4
#
memory 32 gb

molecule  {
0 1
  O        1.8881650     1.4432750    -0.0000100
  O       -3.1767040     0.9881070     0.0000170
  C       -0.5155700     0.0356770    -0.0000120
  C        0.7655038    -0.7753624    -0.1346384
  C       -1.6970590    -0.9239890    -0.0000140
  C        2.0167370     0.2220750     0.0000010
  C        3.3799790    -0.4356510     0.0000020
  C       -3.0337740    -0.2274000    -0.0000030
  H       -0.5729570     0.6949060     0.8703990
  H       -0.5729310     0.6948780    -0.8704450
  H        0.8958950    -1.3682810    -0.8735520
  H        0.8958840    -1.3682250     0.8736320
  H       -1.6727150    -1.5924060     0.8735570
  H       -1.6727210    -1.5923950    -0.8735930
  H        3.4942430    -1.0743930    -0.8818600
  H        3.4942540    -1.0743610     0.8818860
  H        4.1535670     0.3330070    -0.0000160
  H       -3.9203830    -0.8957560    -0.0000150
units angstrom
no_reorient  #important for SAPT in psi4, default
symmetry c1  #important for SAPT in psi4, default
}

set PROPERTIES_ORIGIN ["COM"]
properties('MP2/aug-cc-pvtz', properties = ['dipole'])
--------------------------------------------------------------------------

    Molecular point group: c1
  Charge       = 0
  Multiplicity = 1
  Basis Set: AUG-CC-PVTZ
    Blend: AUG-CC-PVTZ
  Basis Set: (AUG-CC-PVTZ AUX)
    Blend: AUG-CC-PVTZ-JKFIT

    Orbital Energies [Eh]
    ---------------------

    Doubly Occupied:

       1A    -20.559864     2A    -20.550995     3A    -11.341265
       4A    -11.336693     5A    -11.249061     6A    -11.247631
       7A    -11.240635     8A    -11.232188     9A     -1.384655
      10A     -1.378778    11A     -1.098082    12A     -1.030972
      13A     -0.982857    14A     -0.872136    15A     -0.777789
      16A     -0.745019    17A     -0.679246    18A     -0.668257
      19A     -0.650152    20A     -0.625610    21A     -0.615821
      22A     -0.608663    23A     -0.578277    24A     -0.559329
      25A     -0.531193    26A     -0.510260    27A     -0.502242
      28A     -0.488734    29A     -0.479246    30A     -0.429690
      31A     -0.401819

  @DF-RHF Final Energy:  -382.86217781222297

   => Energetics <=

    Nuclear Repulsion Energy =            352.5074062082157980
    One-Electron Energy =               -1220.0248534518414090
    Two-Electron Energy =                 484.6552694314026439
    Total Energy =                       -382.8621778122229671
  Basis Set: (AUG-CC-PVTZ AUX)
    Blend: AUG-CC-PVTZ-RI
    Molecular point group: c1

    Geometry (in Angstrom), charge = 0, multiplicity = 1:

       Center              X                  Y                   Z               Mass
    ------------   -----------------  -----------------  -----------------  -----------------
         O            1.932548563294     1.387744655227     0.014155820066    15.994914619570
         O           -3.132320436706     0.932576655227     0.014182820066    15.994914619570
         C           -0.471186436706    -0.019853344773     0.014153820066    12.000000000000
         C            0.809887363294    -0.830892744773    -0.120472579934    12.000000000000
         C           -1.652675436706    -0.979519344773     0.014151820066    12.000000000000
         C            2.061120563294     0.166544655227     0.014166820066    12.000000000000
         C            3.424362563294    -0.491181344773     0.014167820066    12.000000000000
         C           -2.989390436706    -0.282930344773     0.014162820066    12.000000000000
         H           -0.528573436706     0.639375655227     0.884564820066     1.007825032230
         H           -0.528547436706     0.639347655227    -0.856279179934     1.007825032230
         H            0.940278563294    -1.423811344773    -0.859386179934     1.007825032230
         H            0.940267563294    -1.423755344773     0.887797820066     1.007825032230
         H           -1.628331436706    -1.647936344773     0.887722820066     1.007825032230
         H           -1.628337436706    -1.647925344773    -0.859427179934     1.007825032230
         H            3.538626563294    -1.129923344773    -0.867694179934     1.007825032230
         H            3.538637563294    -1.129891344773     0.896051820066     1.007825032230
         H            4.197950563294     0.277476655227     0.014149820066     1.007825032230
         H           -3.875999436706    -0.951286344773     0.014150820066     1.007825032230

  Basis Set: AUG-CC-PVTZ
    Blend: AUG-CC-PVTZ
  Basis Set: (AUG-CC-PVTZ AUX)
    Blend: AUG-CC-PVTZ-JKFIT
	 Reference Energy          =    -382.8621778122229671 [Eh]
	 Singles Energy            =      -0.0000000000000000 [Eh]
	 Same-Spin Energy          =      -0.3797304132740302 [Eh]
	 Opposite-Spin Energy      =      -1.2559949587494632 [Eh]
	 Correlation Energy        =      -1.6357253720234934 [Eh]
	 Total Energy              =    -384.4979031842464678 [Eh]

	 ================> DF-SCS-MP2 Energies <==================
	-----------------------------------------------------------
	 SCS Same-Spin Scale       =       0.3333333333333333 [-]
	 SCS Opposite-Spin Scale   =       1.2000000000000000 [-]
	 SCS Same-Spin Energy      =      -0.1265768044246767 [Eh]
	 SCS Opposite-Spin Energy  =      -1.5071939504993559 [Eh]
	 SCS Correlation Energy    =      -1.6337707549240326 [Eh]
	 SCS Total Energy          =    -384.4959485671470247 [Eh]
	-----------------------------------------------------------

  Dipole Moment: [D]
     X:     1.2491      Y:    -5.0518      Z:    -0.0903     Total:     5.2047

*** Psi4 exiting successfully. Buy a developer a beer!
