                               Psi4 1.4a3.dev225

  ==> Input File <==

--------------------------------------------------------------------------
#psi4
#
memory 32 gb

molecule  {
0 1
  O        1.8881650     1.4432750    -0.0000100
  O       -3.1767040     0.9881070     0.0000170
  C       -0.5155700     0.0356770    -0.0000120
  C        0.8140500    -0.7053830     0.0000180
  C       -1.7298392    -0.8777506    -0.0898753
  C        2.0167370     0.2220750     0.0000010
  C        3.3799790    -0.4356510     0.0000020
  C       -3.0337740    -0.2274000    -0.0000030
  H       -0.5729570     0.6949060     0.8703990
  H       -0.5729310     0.6948780    -0.8704450
  H        0.8958950    -1.3682810    -0.8735520
  H        0.8958840    -1.3682250     0.8736320
  H       -1.6727150    -1.5924060     0.8735570
  H       -1.6727210    -1.5923950    -0.8735930
  H        3.4942430    -1.0743930    -0.8818600
  H        3.4942540    -1.0743610     0.8818860
  H        4.1535670     0.3330070    -0.0000160
  H       -3.9203830    -0.8957560    -0.0000150
units angstrom
no_reorient  #important for SAPT in psi4, default
symmetry c1  #important for SAPT in psi4, default
}

set PROPERTIES_ORIGIN ["COM"]
properties('MP2/aug-cc-pvtz', properties = ['dipole'])
--------------------------------------------------------------------------

    Molecular point group: c1
  Charge       = 0
  Multiplicity = 1
  Basis Set: AUG-CC-PVTZ
    Blend: AUG-CC-PVTZ
  Basis Set: (AUG-CC-PVTZ AUX)
    Blend: AUG-CC-PVTZ-JKFIT

    Orbital Energies [Eh]
    ---------------------

    Doubly Occupied:

       1A    -20.558401     2A    -20.549469     3A    -11.338183
       4A    -11.336053     5A    -11.254394     6A    -11.249607
       7A    -11.241133     8A    -11.232221     9A     -1.385677
      10A     -1.380109    11A     -1.099690    12A     -1.038646
      13A     -0.987068    14A     -0.877469    15A     -0.774958
      16A     -0.743246    17A     -0.684718    18A     -0.662955
      19A     -0.657390    20A     -0.625751    21A     -0.617949
      22A     -0.609462    23A     -0.572456    24A     -0.561766
      25A     -0.523104    26A     -0.507700    27A     -0.506874
      28A     -0.486582    29A     -0.470056    30A     -0.434066
      31A     -0.415428

  @DF-RHF Final Energy:  -382.88108743425528

   => Energetics <=

    Nuclear Repulsion Energy =            353.6554306734849433
    One-Electron Energy =               -1222.3078747725212452
    Two-Electron Energy =                 485.7713566647810239
    Total Energy =                       -382.8810874342552779
  Basis Set: (AUG-CC-PVTZ AUX)
    Blend: AUG-CC-PVTZ-RI
    Molecular point group: c1

    Geometry (in Angstrom), charge = 0, multiplicity = 1:

       Center              X                  Y                   Z               Mass
    ------------   -----------------  -----------------  -----------------  -----------------
         O            1.930889974838     1.375518503920     0.009443360612    15.994914619570
         O           -3.133979025162     0.920350503920     0.009470360612    15.994914619570
         C           -0.472845025162    -0.032079496080     0.009441360612    12.000000000000
         C            0.856774974838    -0.773139496080     0.009471360612    12.000000000000
         C           -1.687114225162    -0.945507096080    -0.080421939388    12.000000000000
         C            2.059461974838     0.154318503920     0.009454360612    12.000000000000
         C            3.422703974838    -0.503407496080     0.009455360612    12.000000000000
         C           -2.991049025162    -0.295156496080     0.009450360612    12.000000000000
         H           -0.530232025162     0.627149503920     0.879852360612     1.007825032230
         H           -0.530206025162     0.627121503920    -0.860991639388     1.007825032230
         H            0.938619974838    -1.436037496080    -0.864098639388     1.007825032230
         H            0.938608974838    -1.435981496080     0.883085360612     1.007825032230
         H           -1.629990025162    -1.660162496080     0.883010360612     1.007825032230
         H           -1.629996025162    -1.660151496080    -0.864139639388     1.007825032230
         H            3.536967974838    -1.142149496080    -0.872406639388     1.007825032230
         H            3.536978974838    -1.142117496080     0.891339360612     1.007825032230
         H            4.196291974838     0.265250503920     0.009437360612     1.007825032230
         H           -3.877658025162    -0.963512496080     0.009438360612     1.007825032230

  Basis Set: AUG-CC-PVTZ
    Blend: AUG-CC-PVTZ
  Basis Set: (AUG-CC-PVTZ AUX)
    Blend: AUG-CC-PVTZ-JKFIT
	 Reference Energy          =    -382.8810874342552779 [Eh]
	 Singles Energy            =      -0.0000000000000000 [Eh]
	 Same-Spin Energy          =      -0.3799967610475268 [Eh]
	 Opposite-Spin Energy      =      -1.2554194672399381 [Eh]
	 Correlation Energy        =      -1.6354162282874649 [Eh]
	 Total Energy              =    -384.5165036625427319 [Eh]

	 ================> DF-SCS-MP2 Energies <==================
	-----------------------------------------------------------
	 SCS Same-Spin Scale       =       0.3333333333333333 [-]
	 SCS Opposite-Spin Scale   =       1.2000000000000000 [-]
	 SCS Same-Spin Energy      =      -0.1266655870158422 [Eh]
	 SCS Opposite-Spin Energy  =      -1.5065033606879257 [Eh]
	 SCS Correlation Energy    =      -1.6331689477037679 [Eh]
	 SCS Total Energy          =    -384.5142563819590578 [Eh]
	-----------------------------------------------------------

  Dipole Moment: [D]
     X:     1.2488      Y:    -5.1846      Z:    -0.0797     Total:     5.3334

*** Psi4 exiting successfully. Buy a developer a beer!
