                               Psi4 1.4a3.dev225

  ==> Input File <==

--------------------------------------------------------------------------
#psi4
#
memory 32 gb

molecule  {
0 1
  O        1.8881650     1.4432750    -0.0000100
  O       -3.1767040     0.9881070     0.0000170
  C       -0.5155700     0.0356770    -0.0000120
  C        0.8140500    -0.7053830     0.0000180
  C       -1.6970590    -0.9239890    -0.0000140
  C        2.0008993     0.2098616     0.0000012
  C        3.3799790    -0.4356510     0.0000020
  C       -3.0337740    -0.2274000    -0.0000030
  H       -0.5729570     0.6949060     0.8703990
  H       -0.5729310     0.6948780    -0.8704450
  H        0.8958950    -1.3682810    -0.8735520
  H        0.8958840    -1.3682250     0.8736320
  H       -1.6727150    -1.5924060     0.8735570
  H       -1.6727210    -1.5923950    -0.8735930
  H        3.4942430    -1.0743930    -0.8818600
  H        3.4942540    -1.0743610     0.8818860
  H        4.1535670     0.3330070    -0.0000160
  H       -3.9203830    -0.8957560    -0.0000150
units angstrom
no_reorient  #important for SAPT in psi4, default
symmetry c1  #important for SAPT in psi4, default
}

set PROPERTIES_ORIGIN ["COM"]
properties('MP2/aug-cc-pvtz', properties = ['dipole'])
--------------------------------------------------------------------------

    Molecular point group: c1
  Charge       = 0
  Multiplicity = 1
  Basis Set: AUG-CC-PVTZ
    Blend: AUG-CC-PVTZ
  Basis Set: (AUG-CC-PVTZ AUX)
    Blend: AUG-CC-PVTZ-JKFIT

    Orbital Energies [Eh]
    ---------------------

    Doubly Occupied:

       1A    -20.560963     2A    -20.547854     3A    -11.338465
       4A    -11.337873     5A    -11.251395     6A    -11.248849
       7A    -11.240492     8A    -11.231878     9A     -1.385729
      10A     -1.372309    11A     -1.100467    12A     -1.036350
      13A     -0.983247    14A     -0.875629    15A     -0.777822
      16A     -0.742402    17A     -0.676092    18A     -0.667007
      19A     -0.656271    20A     -0.623805    21A     -0.614606
      22A     -0.610800    23A     -0.571074    24A     -0.562590
      25A     -0.519619    26A     -0.508589    27A     -0.507773
      28A     -0.487874    29A     -0.481839    30A     -0.431240
      31A     -0.414104

  @DF-RHF Final Energy:  -382.88981916815396

   => Energetics <=

    Nuclear Repulsion Energy =            353.3206312482690237
    One-Electron Energy =               -1221.6908869335945838
    Two-Electron Energy =                 485.4804365171715972
    Total Energy =                       -382.8898191681539629
  Basis Set: (AUG-CC-PVTZ AUX)
    Blend: AUG-CC-PVTZ-RI
    Molecular point group: c1

    Geometry (in Angstrom), charge = 0, multiplicity = 1:

       Center              X                  Y                   Z               Mass
    ------------   -----------------  -----------------  -----------------  -----------------
         O            1.929107618189     1.381667652768    -0.000010099148    15.994914619570
         O           -3.135761381811     0.926499652768     0.000016900852    15.994914619570
         C           -0.474627381811    -0.025930347232    -0.000012099148    12.000000000000
         C            0.854992618189    -0.766990347232     0.000017900852    12.000000000000
         C           -1.656116381811    -0.985596347232    -0.000014099148    12.000000000000
         C            2.041841918189     0.148254252768     0.000001100852    12.000000000000
         C            3.420921618189    -0.497258347232     0.000001900852    12.000000000000
         C           -2.992831381811    -0.289007347232    -0.000003099148    12.000000000000
         H           -0.532014381811     0.633298652768     0.870398900852     1.007825032230
         H           -0.531988381811     0.633270652768    -0.870445099148     1.007825032230
         H            0.936837618189    -1.429888347232    -0.873552099148     1.007825032230
         H            0.936826618189    -1.429832347232     0.873631900852     1.007825032230
         H           -1.631772381811    -1.654013347232     0.873556900852     1.007825032230
         H           -1.631778381811    -1.654002347232    -0.873593099148     1.007825032230
         H            3.535185618189    -1.136000347232    -0.881860099148     1.007825032230
         H            3.535196618189    -1.135968347232     0.881885900852     1.007825032230
         H            4.194509618189     0.271399652768    -0.000016099148     1.007825032230
         H           -3.879440381811    -0.957363347232    -0.000015099148     1.007825032230

  Basis Set: AUG-CC-PVTZ
    Blend: AUG-CC-PVTZ
  Basis Set: (AUG-CC-PVTZ AUX)
    Blend: AUG-CC-PVTZ-JKFIT
	 Reference Energy          =    -382.8898191681539629 [Eh]
	 Singles Energy            =      -0.0000000000000000 [Eh]
	 Same-Spin Energy          =      -0.3797938111599433 [Eh]
	 Opposite-Spin Energy      =      -1.2553517771566862 [Eh]
	 Correlation Energy        =      -1.6351455883166295 [Eh]
	 Total Energy              =    -384.5249647564705811 [Eh]

	 ================> DF-SCS-MP2 Energies <==================
	-----------------------------------------------------------
	 SCS Same-Spin Scale       =       0.3333333333333333 [-]
	 SCS Opposite-Spin Scale   =       1.2000000000000000 [-]
	 SCS Same-Spin Energy      =      -0.1265979370533144 [Eh]
	 SCS Opposite-Spin Energy  =      -1.5064221325880234 [Eh]
	 SCS Correlation Energy    =      -1.6330200696413377 [Eh]
	 SCS Total Energy          =    -384.5228392377953242 [Eh]
	-----------------------------------------------------------

  Dipole Moment: [D]
     X:     1.0501      Y:    -5.2047      Z:    -0.0000     Total:     5.3096

*** Psi4 exiting successfully. Buy a developer a beer!
