                               Psi4 1.4a3.dev225

  ==> Input File <==

--------------------------------------------------------------------------
#psi4
#
memory 32 gb

molecule  {
0 1
  O        1.8881650     1.4432750    -0.0000100
  O       -3.1767040     0.9881070     0.0000170
  C       -0.5155700     0.0356770    -0.0000120
  C        0.8140500    -0.7053830     0.0000180
  C       -1.6970590    -0.9239890    -0.0000140
  C        2.0959257     0.2831418    -0.0000001
  C        3.3799790    -0.4356510     0.0000020
  C       -3.0337740    -0.2274000    -0.0000030
  H       -0.5729570     0.6949060     0.8703990
  H       -0.5729310     0.6948780    -0.8704450
  H        0.8958950    -1.3682810    -0.8735520
  H        0.8958840    -1.3682250     0.8736320
  H       -1.6727150    -1.5924060     0.8735570
  H       -1.6727210    -1.5923950    -0.8735930
  H        3.4942430    -1.0743930    -0.8818600
  H        3.4942540    -1.0743610     0.8818860
  H        4.1535670     0.3330070    -0.0000160
  H       -3.9203830    -0.8957560    -0.0000150
units angstrom
no_reorient  #important for SAPT in psi4, default
symmetry c1  #important for SAPT in psi4, default
}

set PROPERTIES_ORIGIN ["COM"]
properties('MP2/aug-cc-pvtz', properties = ['dipole'])
--------------------------------------------------------------------------

    Molecular point group: c1
  Charge       = 0
  Multiplicity = 1
  Basis Set: AUG-CC-PVTZ
    Blend: AUG-CC-PVTZ
  Basis Set: (AUG-CC-PVTZ AUX)
    Blend: AUG-CC-PVTZ-JKFIT

    Orbital Energies [Eh]
    ---------------------

    Doubly Occupied:

       1A    -20.558134     2A    -20.554235     3A    -11.335529
       4A    -11.334603     5A    -11.247436     6A    -11.241404
       7A    -11.241148     8A    -11.226254     9A     -1.415342
      10A     -1.382980    11A     -1.088800    12A     -1.038653
      13A     -0.978579    14A     -0.860625    15A     -0.773655
      16A     -0.741738    17A     -0.675355    18A     -0.661809
      19A     -0.659351    20A     -0.636247    21A     -0.618635
      22A     -0.613265    23A     -0.568271    24A     -0.567517
      25A     -0.516901    26A     -0.512935    27A     -0.503258
      28A     -0.499125    29A     -0.481426    30A     -0.428416
      31A     -0.398113

  @DF-RHF Final Energy:  -382.88568157498941

   => Energetics <=

    Nuclear Repulsion Energy =            353.1181854848436501
    One-Electron Energy =               -1221.2882519187969592
    Two-Electron Energy =                 485.2843848589638469
    Total Energy =                       -382.8856815749894054
  Basis Set: (AUG-CC-PVTZ AUX)
    Blend: AUG-CC-PVTZ-RI
    Molecular point group: c1

    Geometry (in Angstrom), charge = 0, multiplicity = 1:

       Center              X                  Y                   Z               Mass
    ------------   -----------------  -----------------  -----------------  -----------------
         O            1.919110809227     1.373958551296    -0.000009962388    15.994914619570
         O           -3.145758190773     0.918790551296     0.000017037612    15.994914619570
         C           -0.484624190773    -0.033639448704    -0.000011962388    12.000000000000
         C            0.844995809227    -0.774699448704     0.000018037612    12.000000000000
         C           -1.666113190773    -0.993305448704    -0.000013962388    12.000000000000
         C            2.126871509227     0.213825351296    -0.000000062388    12.000000000000
         C            3.410924809227    -0.504967448704     0.000002037612    12.000000000000
         C           -3.002828190773    -0.296716448704    -0.000002962388    12.000000000000
         H           -0.542011190773     0.625589551296     0.870399037612     1.007825032230
         H           -0.541985190773     0.625561551296    -0.870444962388     1.007825032230
         H            0.926840809227    -1.437597448704    -0.873551962388     1.007825032230
         H            0.926829809227    -1.437541448704     0.873632037612     1.007825032230
         H           -1.641769190773    -1.661722448704     0.873557037612     1.007825032230
         H           -1.641775190773    -1.661711448704    -0.873592962388     1.007825032230
         H            3.525188809227    -1.143709448704    -0.881859962388     1.007825032230
         H            3.525199809227    -1.143677448704     0.881886037612     1.007825032230
         H            4.184512809227     0.263690551296    -0.000015962388     1.007825032230
         H           -3.889437190773    -0.965072448704    -0.000014962388     1.007825032230

  Basis Set: AUG-CC-PVTZ
    Blend: AUG-CC-PVTZ
  Basis Set: (AUG-CC-PVTZ AUX)
    Blend: AUG-CC-PVTZ-JKFIT
	 Reference Energy          =    -382.8856815749894054 [Eh]
	 Singles Energy            =      -0.0000000000000000 [Eh]
	 Same-Spin Energy          =      -0.3785383747914827 [Eh]
	 Opposite-Spin Energy      =      -1.2524907917844406 [Eh]
	 Correlation Energy        =      -1.6310291665759231 [Eh]
	 Total Energy              =    -384.5167107415653049 [Eh]

	 ================> DF-SCS-MP2 Energies <==================
	-----------------------------------------------------------
	 SCS Same-Spin Scale       =       0.3333333333333333 [-]
	 SCS Opposite-Spin Scale   =       1.2000000000000000 [-]
	 SCS Same-Spin Energy      =      -0.1261794582638275 [Eh]
	 SCS Opposite-Spin Energy  =      -1.5029889501413287 [Eh]
	 SCS Correlation Energy    =      -1.6291684084051563 [Eh]
	 SCS Total Energy          =    -384.5148499833945834 [Eh]
	-----------------------------------------------------------

  Dipole Moment: [D]
     X:     1.6184      Y:    -4.8732      Z:    -0.0000     Total:     5.1349

*** Psi4 exiting successfully. Buy a developer a beer!
