                               Psi4 1.4a3.dev225

  ==> Input File <==

--------------------------------------------------------------------------
#psi4
#
memory 32 gb

molecule  {
0 1
  O        1.8881650     1.4432750    -0.0000100
  O       -3.1767040     0.9881070     0.0000170
  C       -0.5155700     0.0356770    -0.0000120
  C        0.8140500    -0.7053830     0.0000180
  C       -1.6970590    -0.9239890    -0.0000140
  C        2.0167370     0.2220750     0.0000010
  C        3.3799790    -0.4356510     0.0000020
  C       -3.0337740    -0.2274000    -0.0000030
  H       -0.5624599     0.5743211     0.7111850
  H       -0.5729310     0.6948780    -0.8704450
  H        0.8958950    -1.3682810    -0.8735520
  H        0.8958840    -1.3682250     0.8736320
  H       -1.6727150    -1.5924060     0.8735570
  H       -1.6727210    -1.5923950    -0.8735930
  H        3.4942430    -1.0743930    -0.8818600
  H        3.4942540    -1.0743610     0.8818860
  H        4.1535670     0.3330070    -0.0000160
  H       -3.9203830    -0.8957560    -0.0000150
units angstrom
no_reorient  #important for SAPT in psi4, default
symmetry c1  #important for SAPT in psi4, default
}

set PROPERTIES_ORIGIN ["COM"]
properties('MP2/aug-cc-pvtz', properties = ['dipole'])
--------------------------------------------------------------------------

    Molecular point group: c1
  Charge       = 0
  Multiplicity = 1
  Basis Set: AUG-CC-PVTZ
    Blend: AUG-CC-PVTZ
  Basis Set: (AUG-CC-PVTZ AUX)
    Blend: AUG-CC-PVTZ-JKFIT

    Orbital Energies [Eh]
    ---------------------

    Doubly Occupied:

       1A    -20.560825     2A    -20.549122     3A    -11.338208
       4A    -11.337250     5A    -11.249731     6A    -11.246875
       7A    -11.240385     8A    -11.207281     9A     -1.385696
      10A     -1.379804    11A     -1.106214    12A     -1.036070
      13A     -0.984511    14A     -0.890189    15A     -0.785876
      16A     -0.743806    17A     -0.676136    18A     -0.675091
      19A     -0.657299    20A     -0.627485    21A     -0.615369
      22A     -0.611426    23A     -0.572714    24A     -0.563510
      25A     -0.527599    26A     -0.518257    27A     -0.507176
      28A     -0.492066    29A     -0.486492    30A     -0.431163
      31A     -0.412529

  @DF-RHF Final Energy:  -382.85777913302724

   => Energetics <=

    Nuclear Repulsion Energy =            354.3163046192533443
    One-Electron Energy =               -1223.5158579859451038
    Two-Electron Energy =                 486.3417742336645802
    Total Energy =                       -382.8577791330272362
  Basis Set: (AUG-CC-PVTZ AUX)
    Blend: AUG-CC-PVTZ-RI
    Molecular point group: c1

    Geometry (in Angstrom), charge = 0, multiplicity = 1:

       Center              X                  Y                   Z               Mass
    ------------   -----------------  -----------------  -----------------  -----------------
         O            1.927348741903     1.381448202073     0.001396624409    15.994914619570
         O           -3.137520258097     0.926280202073     0.001423624409    15.994914619570
         C           -0.476386258097    -0.026149797927     0.001394624409    12.000000000000
         C            0.853233741903    -0.767209797927     0.001424624409    12.000000000000
         C           -1.657875258097    -0.985815797927     0.001392624409    12.000000000000
         C            2.055920741903     0.160248202073     0.001407624409    12.000000000000
         C            3.419162741903    -0.497477797927     0.001408624409    12.000000000000
         C           -2.994590258097    -0.289226797927     0.001403624409    12.000000000000
         H           -0.523276158097     0.512494302073     0.712591624409     1.007825032230
         H           -0.533747258097     0.633051202073    -0.869038375591     1.007825032230
         H            0.935078741903    -1.430107797927    -0.872145375591     1.007825032230
         H            0.935067741903    -1.430051797927     0.875038624409     1.007825032230
         H           -1.633531258097    -1.654232797927     0.874963624409     1.007825032230
         H           -1.633537258097    -1.654221797927    -0.872186375591     1.007825032230
         H            3.533426741903    -1.136219797927    -0.880453375591     1.007825032230
         H            3.533437741903    -1.136187797927     0.883292624409     1.007825032230
         H            4.192750741903     0.271180202073     0.001390624409     1.007825032230
         H           -3.881199258097    -0.957582797927     0.001391624409     1.007825032230

  Basis Set: AUG-CC-PVTZ
    Blend: AUG-CC-PVTZ
  Basis Set: (AUG-CC-PVTZ AUX)
    Blend: AUG-CC-PVTZ-JKFIT
	 Reference Energy          =    -382.8577791330272362 [Eh]
	 Singles Energy            =      -0.0000000000000000 [Eh]
	 Same-Spin Energy          =      -0.3793583104849151 [Eh]
	 Opposite-Spin Energy      =      -1.2538316772871152 [Eh]
	 Correlation Energy        =      -1.6331899877720302 [Eh]
	 Total Energy              =    -384.4909691207992637 [Eh]

	 ================> DF-SCS-MP2 Energies <==================
	-----------------------------------------------------------
	 SCS Same-Spin Scale       =       0.3333333333333333 [-]
	 SCS Opposite-Spin Scale   =       1.2000000000000000 [-]
	 SCS Same-Spin Energy      =      -0.1264527701616384 [Eh]
	 SCS Opposite-Spin Energy  =      -1.5045980127445382 [Eh]
	 SCS Correlation Energy    =      -1.6310507829061764 [Eh]
	 SCS Total Energy          =    -384.4888299159334224 [Eh]
	-----------------------------------------------------------

  Dipole Moment: [D]
     X:     1.1350      Y:    -5.1399      Z:     0.0286     Total:     5.2638

*** Psi4 exiting successfully. Buy a developer a beer!
