                               Psi4 1.4a3.dev225

  ==> Input File <==

--------------------------------------------------------------------------
#psi4
#
memory 32 gb

molecule  {
0 1
  O        1.8881650     1.4432750    -0.0000100
  O       -3.1767040     0.9881070     0.0000170
  C       -0.5155700     0.0356770    -0.0000120
  C        0.8140500    -0.7053830     0.0000180
  C       -1.7221839    -0.9702153    -0.0000148
  C        2.0167370     0.2220750     0.0000010
  C        3.3799790    -0.4356510     0.0000020
  C       -3.0337740    -0.2274000    -0.0000030
  H       -0.5729570     0.6949060     0.8703990
  H       -0.5729310     0.6948780    -0.8704450
  H        0.8958950    -1.3682810    -0.8735520
  H        0.8958840    -1.3682250     0.8736320
  H       -1.6727150    -1.5924060     0.8735570
  H       -1.6727210    -1.5923950    -0.8735930
  H        3.4942430    -1.0743930    -0.8818600
  H        3.4942540    -1.0743610     0.8818860
  H        4.1535670     0.3330070    -0.0000160
  H       -3.9203830    -0.8957560    -0.0000150
units angstrom
no_reorient  #important for SAPT in psi4, default
symmetry c1  #important for SAPT in psi4, default
}

set PROPERTIES_ORIGIN ["COM"]
properties('MP2/aug-cc-pvtz', properties = ['dipole'])
--------------------------------------------------------------------------

    Molecular point group: c1
  Charge       = 0
  Multiplicity = 1
  Basis Set: AUG-CC-PVTZ
    Blend: AUG-CC-PVTZ
  Basis Set: (AUG-CC-PVTZ AUX)
    Blend: AUG-CC-PVTZ-JKFIT

    Orbital Energies [Eh]
    ---------------------

    Doubly Occupied:

       1A    -20.562113     2A    -20.548524     3A    -11.338396
       4A    -11.336657     5A    -11.248349     6A    -11.247219
       7A    -11.240116     8A    -11.233126     9A     -1.385593
      10A     -1.379140    11A     -1.093611    12A     -1.035207
      13A     -0.984455    14A     -0.869920    15A     -0.780610
      16A     -0.740989    17A     -0.674169    18A     -0.666574
      19A     -0.656346    20A     -0.625742    21A     -0.618306
      22A     -0.612525    23A     -0.573746    24A     -0.561852
      25A     -0.512924    26A     -0.508036    27A     -0.502956
      28A     -0.494342    29A     -0.485108    30A     -0.430392
      31A     -0.411438

  @DF-RHF Final Energy:  -382.88906794998195

   => Energetics <=

    Nuclear Repulsion Energy =            352.6506100655536216
    One-Electron Energy =               -1220.3623917062748205
    Two-Electron Energy =                 484.8227136907393060
    Total Energy =                       -382.8890679499819498
  Basis Set: (AUG-CC-PVTZ AUX)
    Blend: AUG-CC-PVTZ-RI
    Molecular point group: c1

    Geometry (in Angstrom), charge = 0, multiplicity = 1:

       Center              X                  Y                   Z               Mass
    ------------   -----------------  -----------------  -----------------  -----------------
         O            1.930084634725     1.385245821188    -0.000009993948    15.994914619570
         O           -3.134784365275     0.930077821188     0.000017006052    15.994914619570
         C           -0.473650365275    -0.022352178812    -0.000011993948    12.000000000000
         C            0.855969634725    -0.763412178812     0.000018006052    12.000000000000
         C           -1.680264265275    -1.028244478812    -0.000014793948    12.000000000000
         C            2.058656634725     0.164045821188     0.000001006052    12.000000000000
         C            3.421898634725    -0.493680178812     0.000002006052    12.000000000000
         C           -2.991854365275    -0.285429178812    -0.000002993948    12.000000000000
         H           -0.531037365275     0.636876821188     0.870399006052     1.007825032230
         H           -0.531011365275     0.636848821188    -0.870444993948     1.007825032230
         H            0.937814634725    -1.426310178812    -0.873551993948     1.007825032230
         H            0.937803634725    -1.426254178812     0.873632006052     1.007825032230
         H           -1.630795365275    -1.650435178812     0.873557006052     1.007825032230
         H           -1.630801365275    -1.650424178812    -0.873592993948     1.007825032230
         H            3.536162634725    -1.132422178812    -0.881859993948     1.007825032230
         H            3.536173634725    -1.132390178812     0.881886006052     1.007825032230
         H            4.195486634725     0.274977821188    -0.000015993948     1.007825032230
         H           -3.878463365275    -0.953785178812    -0.000014993948     1.007825032230

  Basis Set: AUG-CC-PVTZ
    Blend: AUG-CC-PVTZ
  Basis Set: (AUG-CC-PVTZ AUX)
    Blend: AUG-CC-PVTZ-JKFIT
	 Reference Energy          =    -382.8890679499819498 [Eh]
	 Singles Energy            =      -0.0000000000000000 [Eh]
	 Same-Spin Energy          =      -0.3791807154253766 [Eh]
	 Opposite-Spin Energy      =      -1.2546095473802668 [Eh]
	 Correlation Energy        =      -1.6337902628056433 [Eh]
	 Total Energy              =    -384.5228582127875825 [Eh]

	 ================> DF-SCS-MP2 Energies <==================
	-----------------------------------------------------------
	 SCS Same-Spin Scale       =       0.3333333333333333 [-]
	 SCS Opposite-Spin Scale   =       1.2000000000000000 [-]
	 SCS Same-Spin Energy      =      -0.1263935718084589 [Eh]
	 SCS Opposite-Spin Energy  =      -1.5055314568563201 [Eh]
	 SCS Correlation Energy    =      -1.6319250286647788 [Eh]
	 SCS Total Energy          =    -384.5209929786467455 [Eh]
	-----------------------------------------------------------

  Dipole Moment: [D]
     X:     1.1187      Y:    -5.1518      Z:    -0.0000     Total:     5.2718

*** Psi4 exiting successfully. Buy a developer a beer!
