                               Psi4 1.4a3.dev225

  ==> Input File <==

--------------------------------------------------------------------------
#psi4
#
memory 32 gb

molecule  {
0 1
  O        1.8881650     1.4432750    -0.0000100
  O       -3.1767040     0.9881070     0.0000170
  C       -0.5155700     0.0356770    -0.0000120
  C        0.8140500    -0.7053830     0.0000180
  C       -1.6970590    -0.9239890    -0.0000140
  C        2.0167370     0.2220750     0.0000010
  C        3.3799790    -0.4356510     0.0000020
  C       -3.0337740    -0.2274000    -0.0000030
  H       -0.5729570     0.6949060     0.8703990
  H       -0.5729310     0.6948780    -0.8704450
  H        0.8921736    -1.3381400    -0.8338321
  H        0.8958840    -1.3682250     0.8736320
  H       -1.6727150    -1.5924060     0.8735570
  H       -1.6727210    -1.5923950    -0.8735930
  H        3.4942430    -1.0743930    -0.8818600
  H        3.4942540    -1.0743610     0.8818860
  H        4.1535670     0.3330070    -0.0000160
  H       -3.9203830    -0.8957560    -0.0000150
units angstrom
no_reorient  #important for SAPT in psi4, default
symmetry c1  #important for SAPT in psi4, default
}

set PROPERTIES_ORIGIN ["COM"]
properties('MP2/aug-cc-pvtz', properties = ['dipole'])
--------------------------------------------------------------------------

    Molecular point group: c1
  Charge       = 0
  Multiplicity = 1
  Basis Set: AUG-CC-PVTZ
    Blend: AUG-CC-PVTZ
  Basis Set: (AUG-CC-PVTZ AUX)
    Blend: AUG-CC-PVTZ-JKFIT

    Orbital Energies [Eh]
    ---------------------

    Doubly Occupied:

       1A    -20.560446     2A    -20.548490     3A    -11.337933
       4A    -11.336669     5A    -11.250704     6A    -11.241815
       7A    -11.240486     8A    -11.230450     9A     -1.385215
      10A     -1.379135    11A     -1.099506    12A     -1.036466
      13A     -0.984348    14A     -0.874288    15A     -0.777300
      16A     -0.744014    17A     -0.676052    18A     -0.667806
      19A     -0.657531    20A     -0.625118    21A     -0.615664
      22A     -0.611851    23A     -0.573019    24A     -0.563696
      25A     -0.518912    26A     -0.508974    27A     -0.507125
      28A     -0.488152    29A     -0.485760    30A     -0.430863
      31A     -0.412290

  @DF-RHF Final Energy:  -382.89058460415714

   => Energetics <=

    Nuclear Repulsion Energy =            353.5246082488628190
    One-Electron Energy =               -1222.0902267486483197
    Two-Electron Energy =                 485.6750338956283599
    Total Energy =                       -382.8905846041571408
  Basis Set: (AUG-CC-PVTZ AUX)
    Blend: AUG-CC-PVTZ-RI
    Molecular point group: c1

    Geometry (in Angstrom), charge = 0, multiplicity = 1:

       Center              X                  Y                   Z               Mass
    ------------   -----------------  -----------------  -----------------  -----------------
         O            1.927474366532     1.380116494416    -0.000361015107    15.994914619570
         O           -3.137394633468     0.924948494416    -0.000334015107    15.994914619570
         C           -0.476260633468    -0.027481505584    -0.000363015107    12.000000000000
         C            0.853359366532    -0.768541505584    -0.000333015107    12.000000000000
         C           -1.657749633468    -0.987147505584    -0.000365015107    12.000000000000
         C            2.056046366532     0.158916494416    -0.000350015107    12.000000000000
         C            3.419288366532    -0.498809505584    -0.000349015107    12.000000000000
         C           -2.994464633468    -0.290558505584    -0.000354015107    12.000000000000
         H           -0.533647633468     0.631747494416     0.870047984893     1.007825032230
         H           -0.533621633468     0.631719494416    -0.870796015107     1.007825032230
         H            0.931482966532    -1.401298505584    -0.834183115107     1.007825032230
         H            0.935193366532    -1.431383505584     0.873280984893     1.007825032230
         H           -1.633405633468    -1.655564505584     0.873205984893     1.007825032230
         H           -1.633411633468    -1.655553505584    -0.873944015107     1.007825032230
         H            3.533552366532    -1.137551505584    -0.882211015107     1.007825032230
         H            3.533563366532    -1.137519505584     0.881534984893     1.007825032230
         H            4.192876366532     0.269848494416    -0.000367015107     1.007825032230
         H           -3.881073633468    -0.958914505584    -0.000366015107     1.007825032230

  Basis Set: AUG-CC-PVTZ
    Blend: AUG-CC-PVTZ
  Basis Set: (AUG-CC-PVTZ AUX)
    Blend: AUG-CC-PVTZ-JKFIT
	 Reference Energy          =    -382.8905846041571408 [Eh]
	 Singles Energy            =      -0.0000000000000000 [Eh]
	 Same-Spin Energy          =      -0.3794515733840345 [Eh]
	 Opposite-Spin Energy      =      -1.2543856072664907 [Eh]
	 Correlation Energy        =      -1.6338371806505252 [Eh]
	 Total Energy              =    -384.5244217848076573 [Eh]

	 ================> DF-SCS-MP2 Energies <==================
	-----------------------------------------------------------
	 SCS Same-Spin Scale       =       0.3333333333333333 [-]
	 SCS Opposite-Spin Scale   =       1.2000000000000000 [-]
	 SCS Same-Spin Energy      =      -0.1264838577946781 [Eh]
	 SCS Opposite-Spin Energy  =      -1.5052627287197888 [Eh]
	 SCS Correlation Energy    =      -1.6317465865144669 [Eh]
	 SCS Total Energy          =    -384.5223311906715935 [Eh]
	-----------------------------------------------------------

  Dipole Moment: [D]
     X:     1.1482      Y:    -5.1709      Z:    -0.0133     Total:     5.2969

*** Psi4 exiting successfully. Buy a developer a beer!
