                               Psi4 1.4a3.dev225

  ==> Input File <==

--------------------------------------------------------------------------
#psi4
#
memory 32 gb

molecule  {
0 1
  O        1.8881650     1.4432750    -0.0000100
  O       -3.1767040     0.9881070     0.0000170
  C       -0.5155700     0.0356770    -0.0000120
  C        0.8140500    -0.7053830     0.0000180
  C       -1.6517236    -0.8290476    -0.0000123
  C        2.0167370     0.2220750     0.0000010
  C        3.3799790    -0.4356510     0.0000020
  C       -3.0337740    -0.2274000    -0.0000030
  H       -0.5729570     0.6949060     0.8703990
  H       -0.5729310     0.6948780    -0.8704450
  H        0.8958950    -1.3682810    -0.8735520
  H        0.8958840    -1.3682250     0.8736320
  H       -1.6727150    -1.5924060     0.8735570
  H       -1.6727210    -1.5923950    -0.8735930
  H        3.4942430    -1.0743930    -0.8818600
  H        3.4942540    -1.0743610     0.8818860
  H        4.1535670     0.3330070    -0.0000160
  H       -3.9203830    -0.8957560    -0.0000150
units angstrom
no_reorient  #important for SAPT in psi4, default
symmetry c1  #important for SAPT in psi4, default
}

set PROPERTIES_ORIGIN ["COM"]
properties('MP2/aug-cc-pvtz', properties = ['dipole'])
--------------------------------------------------------------------------

    Molecular point group: c1
  Charge       = 0
  Multiplicity = 1
  Basis Set: AUG-CC-PVTZ
    Blend: AUG-CC-PVTZ
  Basis Set: (AUG-CC-PVTZ AUX)
    Blend: AUG-CC-PVTZ-JKFIT

    Orbital Energies [Eh]
    ---------------------

    Doubly Occupied:

       1A    -20.557286     2A    -20.549588     3A    -11.338209
       4A    -11.338115     5A    -11.257613     6A    -11.250068
       7A    -11.241201     8A    -11.226805     9A     -1.385056
      10A     -1.380254    11A     -1.110437    12A     -1.037674
      13A     -0.980782    14A     -0.880482    15A     -0.770559
      16A     -0.744509    17A     -0.679804    18A     -0.666602
      19A     -0.658574    20A     -0.625447    21A     -0.611569
      22A     -0.610961    23A     -0.568075    24A     -0.565268
      25A     -0.535257    26A     -0.509394    27A     -0.505792
      28A     -0.486985    29A     -0.467649    30A     -0.431203
      31A     -0.413521

  @DF-RHF Final Energy:  -382.87835500692171

   => Energetics <=

    Nuclear Repulsion Energy =            354.5660861786706164
    One-Electron Energy =               -1224.1194006694161089
    Two-Electron Energy =                 486.6749594838237840
    Total Energy =                       -382.8783550069217085
  Basis Set: (AUG-CC-PVTZ AUX)
    Blend: AUG-CC-PVTZ-RI
    Molecular point group: c1

    Geometry (in Angstrom), charge = 0, multiplicity = 1:

       Center              X                  Y                   Z               Mass
    ------------   -----------------  -----------------  -----------------  -----------------
         O            1.922672187674     1.370394932082    -0.000010256949    15.994914619570
         O           -3.142196812326     0.915226932082     0.000016743051    15.994914619570
         C           -0.481062812326    -0.037203067918    -0.000012256949    12.000000000000
         C            0.848557187674    -0.778263067918     0.000017743051    12.000000000000
         C           -1.617216412326    -0.901927667918    -0.000012556949    12.000000000000
         C            2.051244187674     0.149194932082     0.000000743051    12.000000000000
         C            3.414486187674    -0.508531067918     0.000001743051    12.000000000000
         C           -2.999266812326    -0.300280067918    -0.000003256949    12.000000000000
         H           -0.538449812326     0.622025932082     0.870398743051     1.007825032230
         H           -0.538423812326     0.621997932082    -0.870445256949     1.007825032230
         H            0.930402187674    -1.441161067918    -0.873552256949     1.007825032230
         H            0.930391187674    -1.441105067918     0.873631743051     1.007825032230
         H           -1.638207812326    -1.665286067918     0.873556743051     1.007825032230
         H           -1.638213812326    -1.665275067918    -0.873593256949     1.007825032230
         H            3.528750187674    -1.147273067918    -0.881860256949     1.007825032230
         H            3.528761187674    -1.147241067918     0.881885743051     1.007825032230
         H            4.188074187674     0.260126932082    -0.000016256949     1.007825032230
         H           -3.885875812326    -0.968636067918    -0.000015256949     1.007825032230

  Basis Set: AUG-CC-PVTZ
    Blend: AUG-CC-PVTZ
  Basis Set: (AUG-CC-PVTZ AUX)
    Blend: AUG-CC-PVTZ-JKFIT
	 Reference Energy          =    -382.8783550069217085 [Eh]
	 Singles Energy            =      -0.0000000000000000 [Eh]
	 Same-Spin Energy          =      -0.3806597024868965 [Eh]
	 Opposite-Spin Energy      =      -1.2559754142517785 [Eh]
	 Correlation Energy        =      -1.6366351167386750 [Eh]
	 Total Energy              =    -384.5149901236603682 [Eh]

	 ================> DF-SCS-MP2 Energies <==================
	-----------------------------------------------------------
	 SCS Same-Spin Scale       =       0.3333333333333333 [-]
	 SCS Opposite-Spin Scale   =       1.2000000000000000 [-]
	 SCS Same-Spin Energy      =      -0.1268865674956322 [Eh]
	 SCS Opposite-Spin Energy  =      -1.5071704971021342 [Eh]
	 SCS Correlation Energy    =      -1.6340570645977663 [Eh]
	 SCS Total Energy          =    -384.5124120715194636 [Eh]
	-----------------------------------------------------------

  Dipole Moment: [D]
     X:     1.2099      Y:    -5.1286      Z:    -0.0000     Total:     5.2694

*** Psi4 exiting successfully. Buy a developer a beer!
