                               Psi4 1.4a3.dev225

  ==> Input File <==

--------------------------------------------------------------------------
#psi4
#
memory 32 gb

molecule  {
0 1
  O        1.8881650     1.4432750    -0.0000100
  O       -3.1767040     0.9881070     0.0000170
  C       -0.5155700     0.0356770    -0.0000120
  C        0.8140500    -0.7053830     0.0000180
  C       -1.6970590    -0.9239890    -0.0000140
  C        2.0167370     0.2220750     0.0000010
  C        3.3799790    -0.4356510     0.0000020
  C       -3.0337740    -0.2274000    -0.0000030
  H       -0.5729570     0.6949060     0.8703990
  H       -0.5729310     0.6948780    -0.8704450
  H        0.8958950    -1.3682810    -0.8735520
  H        0.8958840    -1.3682250     0.8736320
  H       -1.6727150    -1.5924060     0.8735570
  H       -1.6727210    -1.5923950    -0.8735930
  H        3.4942430    -1.0743930    -0.8818600
  H        3.4942540    -1.0743610     0.8818860
  H        4.1535670     0.3330070    -0.0000160
  H       -3.8405302    -0.8355602    -0.0000139
units angstrom
no_reorient  #important for SAPT in psi4, default
symmetry c1  #important for SAPT in psi4, default
}

set PROPERTIES_ORIGIN ["COM"]
properties('MP2/aug-cc-pvtz', properties = ['dipole'])
--------------------------------------------------------------------------

    Molecular point group: c1
  Charge       = 0
  Multiplicity = 1
  Basis Set: AUG-CC-PVTZ
    Blend: AUG-CC-PVTZ
  Basis Set: (AUG-CC-PVTZ AUX)
    Blend: AUG-CC-PVTZ-JKFIT

    Orbital Energies [Eh]
    ---------------------

    Doubly Occupied:

       1A    -20.558260     2A    -20.548345     3A    -11.336581
       4A    -11.325953     5A    -11.248889     6A    -11.247287
       7A    -11.240047     8A    -11.230097     9A     -1.384010
      10A     -1.378969    11A     -1.097516    12A     -1.035662
      13A     -0.984215    14A     -0.880506    15A     -0.792201
      16A     -0.742218    17A     -0.681571    18A     -0.664845
      19A     -0.656544    20A     -0.625742    21A     -0.614210
      22A     -0.610864    23A     -0.570252    24A     -0.563597
      25A     -0.518606    26A     -0.506712    27A     -0.506469
      28A     -0.487412    29A     -0.483967    30A     -0.433362
      31A     -0.412841

  @DF-RHF Final Energy:  -382.88686112997340

   => Energetics <=

    Nuclear Repulsion Energy =            353.7868259260978903
    One-Electron Energy =               -1222.6118729365580293
    Two-Electron Energy =                 485.9381858804867420
    Total Energy =                       -382.8868611299733971
  Basis Set: (AUG-CC-PVTZ AUX)
    Blend: AUG-CC-PVTZ-RI
    Molecular point group: c1

    Geometry (in Angstrom), charge = 0, multiplicity = 1:

       Center              X                  Y                   Z               Mass
    ------------   -----------------  -----------------  -----------------  -----------------
         O            1.926735963895     1.379850951418    -0.000010087827    15.994914619570
         O           -3.138133036105     0.924682951418     0.000016912173    15.994914619570
         C           -0.476999036105    -0.027747048582    -0.000012087827    12.000000000000
         C            0.852620963895    -0.768807048582     0.000017912173    12.000000000000
         C           -1.658488036105    -0.987413048582    -0.000014087827    12.000000000000
         C            2.055307963895     0.158650951418     0.000000912173    12.000000000000
         C            3.418549963895    -0.499075048582     0.000001912173    12.000000000000
         C           -2.995203036105    -0.290824048582    -0.000003087827    12.000000000000
         H           -0.534386036105     0.631481951418     0.870398912173     1.007825032230
         H           -0.534360036105     0.631453951418    -0.870445087827     1.007825032230
         H            0.934465963895    -1.431705048582    -0.873552087827     1.007825032230
         H            0.934454963895    -1.431649048582     0.873631912173     1.007825032230
         H           -1.634144036105    -1.655830048582     0.873556912173     1.007825032230
         H           -1.634150036105    -1.655819048582    -0.873593087827     1.007825032230
         H            3.532813963895    -1.137817048582    -0.881860087827     1.007825032230
         H            3.532824963895    -1.137785048582     0.881885912173     1.007825032230
         H            4.192137963895     0.269582951418    -0.000016087827     1.007825032230
         H           -3.801959236105    -0.898984248582    -0.000013987827     1.007825032230

  Basis Set: AUG-CC-PVTZ
    Blend: AUG-CC-PVTZ
  Basis Set: (AUG-CC-PVTZ AUX)
    Blend: AUG-CC-PVTZ-JKFIT
	 Reference Energy          =    -382.8868611299733971 [Eh]
	 Singles Energy            =      -0.0000000000000000 [Eh]
	 Same-Spin Energy          =      -0.3791889259069722 [Eh]
	 Opposite-Spin Energy      =      -1.2540907665563095 [Eh]
	 Correlation Energy        =      -1.6332796924632818 [Eh]
	 Total Energy              =    -384.5201408224367015 [Eh]

	 ================> DF-SCS-MP2 Energies <==================
	-----------------------------------------------------------
	 SCS Same-Spin Scale       =       0.3333333333333333 [-]
	 SCS Opposite-Spin Scale   =       1.2000000000000000 [-]
	 SCS Same-Spin Energy      =      -0.1263963086356574 [Eh]
	 SCS Opposite-Spin Energy  =      -1.5049089198675714 [Eh]
	 SCS Correlation Energy    =      -1.6313052285032288 [Eh]
	 SCS Total Energy          =    -384.5181663584766056 [Eh]
	-----------------------------------------------------------

  Dipole Moment: [D]
     X:     1.0346      Y:    -5.2277      Z:    -0.0000     Total:     5.3291

*** Psi4 exiting successfully. Buy a developer a beer!
