                               Psi4 1.4a3.dev225

  ==> Input File <==

--------------------------------------------------------------------------
#psi4
#
memory 32 gb

molecule  {
0 1
  O        1.8881650     1.4432750    -0.0000100
  O       -3.1767040     0.9881070     0.0000170
  C       -0.5155700     0.0356770    -0.0000120
  C        0.8140500    -0.7053830     0.0000180
  C       -1.6315683    -0.7804482    -0.0000115
  C        2.0167370     0.2220750     0.0000010
  C        3.3799790    -0.4356510     0.0000020
  C       -3.0337740    -0.2274000    -0.0000030
  H       -0.5729570     0.6949060     0.8703990
  H       -0.5729310     0.6948780    -0.8704450
  H        0.8958950    -1.3682810    -0.8735520
  H        0.8958840    -1.3682250     0.8736320
  H       -1.6727150    -1.5924060     0.8735570
  H       -1.6727210    -1.5923950    -0.8735930
  H        3.4942430    -1.0743930    -0.8818600
  H        3.4942540    -1.0743610     0.8818860
  H        4.1535670     0.3330070    -0.0000160
  H       -3.9203830    -0.8957560    -0.0000150
units angstrom
no_reorient  #important for SAPT in psi4, default
symmetry c1  #important for SAPT in psi4, default
}

set PROPERTIES_ORIGIN ["COM"]
properties('MP2/aug-cc-pvtz', properties = ['dipole'])
--------------------------------------------------------------------------

    Molecular point group: c1
  Charge       = 0
  Multiplicity = 1
  Basis Set: AUG-CC-PVTZ
    Blend: AUG-CC-PVTZ
  Basis Set: (AUG-CC-PVTZ AUX)
    Blend: AUG-CC-PVTZ-JKFIT

    Orbital Energies [Eh]
    ---------------------

    Doubly Occupied:

       1A    -20.555652     2A    -20.550137     3A    -11.338942
       4A    -11.338634     5A    -11.261896     6A    -11.251488
       7A    -11.241729     8A    -11.224948     9A     -1.385128
      10A     -1.380828    11A     -1.118299    12A     -1.039110
      13A     -0.979901    14A     -0.884391    15A     -0.767620
      16A     -0.745992    17A     -0.682366    18A     -0.668333
      19A     -0.659039    20A     -0.626484    21A     -0.613141
      22A     -0.610520    23A     -0.570299    24A     -0.563196
      25A     -0.541084    26A     -0.510475    27A     -0.503925
      28A     -0.487602    29A     -0.455784    30A     -0.430846
      31A     -0.413471

  @DF-RHF Final Energy:  -382.86195182599852

   => Energetics <=

    Nuclear Repulsion Energy =            355.2238245652345654
    One-Electron Energy =               -1225.3690310643512476
    Two-Electron Energy =                 487.2832546731182219
    Total Energy =                       -382.8619518259985171
  Basis Set: (AUG-CC-PVTZ AUX)
    Blend: AUG-CC-PVTZ-RI
    Molecular point group: c1

    Geometry (in Angstrom), charge = 0, multiplicity = 1:

       Center              X                  Y                   Z               Mass
    ------------   -----------------  -----------------  -----------------  -----------------
         O            1.920551843394     1.365282258999    -0.000010341109    15.994914619570
         O           -3.144317156606     0.910114258999     0.000016658891    15.994914619570
         C           -0.483183156606    -0.042315741001    -0.000012341109    12.000000000000
         C            0.846436843394    -0.783375741001     0.000017658891    12.000000000000
         C           -1.599181456606    -0.858440941001    -0.000011841109    12.000000000000
         C            2.049123843394     0.144082258999     0.000000658891    12.000000000000
         C            3.412365843394    -0.513643741001     0.000001658891    12.000000000000
         C           -3.001387156606    -0.305392741001    -0.000003341109    12.000000000000
         H           -0.540570156606     0.616913258999     0.870398658891     1.007825032230
         H           -0.540544156606     0.616885258999    -0.870445341109     1.007825032230
         H            0.928281843394    -1.446273741001    -0.873552341109     1.007825032230
         H            0.928270843394    -1.446217741001     0.873631658891     1.007825032230
         H           -1.640328156606    -1.670398741001     0.873556658891     1.007825032230
         H           -1.640334156606    -1.670387741001    -0.873593341109     1.007825032230
         H            3.526629843394    -1.152385741001    -0.881860341109     1.007825032230
         H            3.526640843394    -1.152353741001     0.881885658891     1.007825032230
         H            4.185953843394     0.255014258999    -0.000016341109     1.007825032230
         H           -3.887996156606    -0.973748741001    -0.000015341109     1.007825032230

  Basis Set: AUG-CC-PVTZ
    Blend: AUG-CC-PVTZ
  Basis Set: (AUG-CC-PVTZ AUX)
    Blend: AUG-CC-PVTZ-JKFIT
	 Reference Energy          =    -382.8619518259985171 [Eh]
	 Singles Energy            =      -0.0000000000000000 [Eh]
	 Same-Spin Energy          =      -0.3815584220881267 [Eh]
	 Opposite-Spin Energy      =      -1.2572273015105271 [Eh]
	 Correlation Energy        =      -1.6387857235986538 [Eh]
	 Total Energy              =    -384.5007375495971473 [Eh]

	 ================> DF-SCS-MP2 Energies <==================
	-----------------------------------------------------------
	 SCS Same-Spin Scale       =       0.3333333333333333 [-]
	 SCS Opposite-Spin Scale   =       1.2000000000000000 [-]
	 SCS Same-Spin Energy      =      -0.1271861406960422 [Eh]
	 SCS Opposite-Spin Energy  =      -1.5086727618126325 [Eh]
	 SCS Correlation Energy    =      -1.6358589025086747 [Eh]
	 SCS Total Energy          =    -384.4978107285072042 [Eh]
	-----------------------------------------------------------

  Dipole Moment: [D]
     X:     1.2654      Y:    -5.0953      Z:    -0.0000     Total:     5.2501

*** Psi4 exiting successfully. Buy a developer a beer!
