                               Psi4 1.4a3.dev225

  ==> Input File <==

--------------------------------------------------------------------------
#psi4
#
memory 32 gb

molecule  {
0 1
  O        1.8881650     1.4432750    -0.0000100
  O       -3.1767040     0.9881070     0.0000170
  C       -0.5155700     0.0356770    -0.0000120
  C        0.8140500    -0.7053830     0.0000180
  C       -1.6970590    -0.9239890    -0.0000140
  C        2.0167370     0.2220750     0.0000010
  C        3.3799790    -0.4356510     0.0000020
  C       -3.0337740    -0.2274000    -0.0000030
  H       -0.5729570     0.6949060     0.8703990
  H       -0.5729310     0.6948780    -0.8704450
  H        0.8944065    -1.3562246    -0.8576640
  H        0.8958840    -1.3682250     0.8736320
  H       -1.6727150    -1.5924060     0.8735570
  H       -1.6727210    -1.5923950    -0.8735930
  H        3.4942430    -1.0743930    -0.8818600
  H        3.4942540    -1.0743610     0.8818860
  H        4.1535670     0.3330070    -0.0000160
  H       -3.9203830    -0.8957560    -0.0000150
units angstrom
no_reorient  #important for SAPT in psi4, default
symmetry c1  #important for SAPT in psi4, default
}

set PROPERTIES_ORIGIN ["COM"]
properties('MP2/aug-cc-pvtz', properties = ['dipole'])
--------------------------------------------------------------------------

    Molecular point group: c1
  Charge       = 0
  Multiplicity = 1
  Basis Set: AUG-CC-PVTZ
    Blend: AUG-CC-PVTZ
  Basis Set: (AUG-CC-PVTZ AUX)
    Blend: AUG-CC-PVTZ-JKFIT

    Orbital Energies [Eh]
    ---------------------

    Doubly Occupied:

       1A    -20.560491     2A    -20.548666     3A    -11.337979
       4A    -11.336908     5A    -11.250748     6A    -11.245518
       7A    -11.240435     8A    -11.230760     9A     -1.385268
      10A     -1.379302    11A     -1.098692    12A     -1.035995
      13A     -0.983597    14A     -0.873566    15A     -0.777201
      16A     -0.742757    17A     -0.675922    18A     -0.666441
      19A     -0.657318    20A     -0.625122    21A     -0.615135
      22A     -0.611693    23A     -0.571729    24A     -0.563648
      25A     -0.518983    26A     -0.508360    27A     -0.507170
      28A     -0.488239    29A     -0.485128    30A     -0.430955
      31A     -0.412414

  @DF-RHF Final Energy:  -382.89151144773473

   => Energetics <=

    Nuclear Repulsion Energy =            353.3758463840392210
    One-Electron Energy =               -1221.8024444211007449
    Two-Electron Energy =                 485.5350865893267382
    Total Energy =                       -382.8915114477347288
  Basis Set: (AUG-CC-PVTZ AUX)
    Blend: AUG-CC-PVTZ-RI
    Molecular point group: c1

    Geometry (in Angstrom), charge = 0, multiplicity = 1:

       Center              X                  Y                   Z               Mass
    ------------   -----------------  -----------------  -----------------  -----------------
         O            1.927454638204     1.380276277176    -0.000150453261    15.994914619570
         O           -3.137414361796     0.925108277176    -0.000123453261    15.994914619570
         C           -0.476280361796    -0.027321722824    -0.000152453261    12.000000000000
         C            0.853339638204    -0.768381722824    -0.000122453261    12.000000000000
         C           -1.657769361796    -0.986987722824    -0.000154453261    12.000000000000
         C            2.056026638204     0.159076277176    -0.000139453261    12.000000000000
         C            3.419268638204    -0.498649722824    -0.000138453261    12.000000000000
         C           -2.994484361796    -0.290398722824    -0.000143453261    12.000000000000
         H           -0.533667361796     0.631907277176     0.870258546739     1.007825032230
         H           -0.533641361796     0.631879277176    -0.870585453261     1.007825032230
         H            0.933696138204    -1.419223322824    -0.857804453261     1.007825032230
         H            0.935173638204    -1.431223722824     0.873491546739     1.007825032230
         H           -1.633425361796    -1.655404722824     0.873416546739     1.007825032230
         H           -1.633431361796    -1.655393722824    -0.873733453261     1.007825032230
         H            3.533532638204    -1.137391722824    -0.882000453261     1.007825032230
         H            3.533543638204    -1.137359722824     0.881745546739     1.007825032230
         H            4.192856638204     0.270008277176    -0.000156453261     1.007825032230
         H           -3.881093361796    -0.958754722824    -0.000155453261     1.007825032230

  Basis Set: AUG-CC-PVTZ
    Blend: AUG-CC-PVTZ
  Basis Set: (AUG-CC-PVTZ AUX)
    Blend: AUG-CC-PVTZ-JKFIT
	 Reference Energy          =    -382.8915114477347288 [Eh]
	 Singles Energy            =      -0.0000000000000000 [Eh]
	 Same-Spin Energy          =      -0.3794635382872634 [Eh]
	 Opposite-Spin Energy      =      -1.2545470726678292 [Eh]
	 Correlation Energy        =      -1.6340106109550927 [Eh]
	 Total Energy              =    -384.5255220586898304 [Eh]

	 ================> DF-SCS-MP2 Energies <==================
	-----------------------------------------------------------
	 SCS Same-Spin Scale       =       0.3333333333333333 [-]
	 SCS Opposite-Spin Scale   =       1.2000000000000000 [-]
	 SCS Same-Spin Energy      =      -0.1264878460957545 [Eh]
	 SCS Opposite-Spin Energy  =      -1.5054564872013949 [Eh]
	 SCS Correlation Energy    =      -1.6319443332971493 [Eh]
	 SCS Total Energy          =    -384.5234557810318847 [Eh]
	-----------------------------------------------------------

  Dipole Moment: [D]
     X:     1.1421      Y:    -5.1613      Z:    -0.0056     Total:     5.2862

*** Psi4 exiting successfully. Buy a developer a beer!
