                               Psi4 1.4a3.dev225

  ==> Input File <==

--------------------------------------------------------------------------
#psi4
#
memory 32 gb

molecule  {
0 1
  O        1.8881650     1.4432750    -0.0000100
  O       -3.1767040     0.9881070     0.0000170
  C       -0.5155700     0.0356770    -0.0000120
  C        0.8140500    -0.7053830     0.0000180
  C       -1.6970590    -0.9239890    -0.0000140
  C        2.0167370     0.2220750     0.0000010
  C        3.3799790    -0.4356510     0.0000020
  C       -3.0337740    -0.2274000    -0.0000030
  H       -0.5729570     0.6949060     0.8703990
  H       -0.5729310     0.6948780    -0.8704450
  H        0.8958950    -1.3682810    -0.8735520
  H        0.8958840    -1.3682250     0.8736320
  H       -1.6727150    -1.5924060     0.8735570
  H       -1.6727210    -1.5923950    -0.8735930
  H        3.4994612    -1.1035629    -0.9221327
  H        3.4942540    -1.0743610     0.8818860
  H        4.1535670     0.3330070    -0.0000160
  H       -3.9203830    -0.8957560    -0.0000150
units angstrom
no_reorient  #important for SAPT in psi4, default
symmetry c1  #important for SAPT in psi4, default
}

set PROPERTIES_ORIGIN ["COM"]
properties('MP2/aug-cc-pvtz', properties = ['dipole'])
--------------------------------------------------------------------------

    Molecular point group: c1
  Charge       = 0
  Multiplicity = 1
  Basis Set: AUG-CC-PVTZ
    Blend: AUG-CC-PVTZ
  Basis Set: (AUG-CC-PVTZ AUX)
    Blend: AUG-CC-PVTZ-JKFIT

    Orbital Energies [Eh]
    ---------------------

    Doubly Occupied:

       1A    -20.560527     2A    -20.549223     3A    -11.338017
       4A    -11.337557     5A    -11.250782     6A    -11.247930
       7A    -11.246290     8A    -11.230980     9A     -1.385311
      10A     -1.379805    11A     -1.098148    12A     -1.034097
      13A     -0.981270    14A     -0.872629    15A     -0.777110
      16A     -0.741304    17A     -0.675818    18A     -0.665416
      19A     -0.656269    20A     -0.625143    21A     -0.612637
      22A     -0.611388    23A     -0.568486    24A     -0.561128
      25A     -0.518933    26A     -0.507554    27A     -0.507093
      28A     -0.487842    29A     -0.484595    30A     -0.431088
      31A     -0.412759

  @DF-RHF Final Energy:  -382.88936823450922

   => Energetics <=

    Nuclear Repulsion Energy =            353.0783312674563490
    One-Electron Energy =               -1221.2211402947189072
    Two-Electron Energy =                 485.2534407927532811
    Total Energy =                       -382.8893682345092202
  Basis Set: (AUG-CC-PVTZ AUX)
    Blend: AUG-CC-PVTZ-RI
    Molecular point group: c1

    Geometry (in Angstrom), charge = 0, multiplicity = 1:

       Center              X                  Y                   Z               Mass
    ------------   -----------------  -----------------  -----------------  -----------------
         O            1.927395382537     1.380640523662     0.000345743041    15.994914619570
         O           -3.137473617463     0.925472523662     0.000372743041    15.994914619570
         C           -0.476339617463    -0.026957476338     0.000343743041    12.000000000000
         C            0.853280382537    -0.768017476338     0.000373743041    12.000000000000
         C           -1.657828617463    -0.986623476338     0.000341743041    12.000000000000
         C            2.055967382537     0.159440523662     0.000356743041    12.000000000000
         C            3.419209382537    -0.498285476338     0.000357743041    12.000000000000
         C           -2.994543617463    -0.290034476338     0.000352743041    12.000000000000
         H           -0.533726617463     0.632271523662     0.870754743041     1.007825032230
         H           -0.533700617463     0.632243523662    -0.870089256959     1.007825032230
         H            0.935125382537    -1.430915476338    -0.873196256959     1.007825032230
         H            0.935114382537    -1.430859476338     0.873987743041     1.007825032230
         H           -1.633484617463    -1.655040476338     0.873912743041     1.007825032230
         H           -1.633490617463    -1.655029476338    -0.873237256959     1.007825032230
         H            3.538691582537    -1.166197376338    -0.921776956959     1.007825032230
         H            3.533484382537    -1.136995476338     0.882241743041     1.007825032230
         H            4.192797382537     0.270372523662     0.000339743041     1.007825032230
         H           -3.881152617463    -0.958390476338     0.000340743041     1.007825032230

  Basis Set: AUG-CC-PVTZ
    Blend: AUG-CC-PVTZ
  Basis Set: (AUG-CC-PVTZ AUX)
    Blend: AUG-CC-PVTZ-JKFIT
	 Reference Energy          =    -382.8893682345092202 [Eh]
	 Singles Energy            =      -0.0000000000000000 [Eh]
	 Same-Spin Energy          =      -0.3794653406109488 [Eh]
	 Opposite-Spin Energy      =      -1.2549818144863936 [Eh]
	 Correlation Energy        =      -1.6344471550973423 [Eh]
	 Total Energy              =    -384.5238153896065683 [Eh]

	 ================> DF-SCS-MP2 Energies <==================
	-----------------------------------------------------------
	 SCS Same-Spin Scale       =       0.3333333333333333 [-]
	 SCS Opposite-Spin Scale   =       1.2000000000000000 [-]
	 SCS Same-Spin Energy      =      -0.1264884468703162 [Eh]
	 SCS Opposite-Spin Energy  =      -1.5059781773836722 [Eh]
	 SCS Correlation Energy    =      -1.6324666242539885 [Eh]
	 SCS Total Energy          =    -384.5218348587632136 [Eh]
	-----------------------------------------------------------

  Dipole Moment: [D]
     X:     1.1357      Y:    -5.1423      Z:     0.0117     Total:     5.2662

*** Psi4 exiting successfully. Buy a developer a beer!
