                               Psi4 1.4a3.dev225

  ==> Input File <==

--------------------------------------------------------------------------
#psi4
#
memory 32 gb

molecule  {
0 1
  O        1.8881650     1.4432750    -0.0000100
  O       -3.1767040     0.9881070     0.0000170
  C       -0.5155700     0.0356770    -0.0000120
  C        0.8140500    -0.7053830     0.0000180
  C       -1.6970590    -0.9239890    -0.0000140
  C        2.0167370     0.2220750     0.0000010
  C        3.3799790    -0.4356510     0.0000020
  C       -3.0337740    -0.2274000    -0.0000030
  H       -0.5729570     0.6949060     0.8703990
  H       -0.5729310     0.6948780    -0.8704450
  H        0.8958950    -1.3682810    -0.8735520
  H        0.8958840    -1.3682250     0.8736320
  H       -1.6727150    -1.5924060     0.8735570
  H       -1.6727210    -1.5923950    -0.8735930
  H        3.4942430    -1.0743930    -0.8818600
  H        3.4942540    -1.0743610     0.8818860
  H        4.1535670     0.3330070    -0.0000160
  H       -3.7606774    -0.7753645    -0.0000128
units angstrom
no_reorient  #important for SAPT in psi4, default
symmetry c1  #important for SAPT in psi4, default
}

set PROPERTIES_ORIGIN ["COM"]
properties('MP2/aug-cc-pvtz', properties = ['dipole'])
--------------------------------------------------------------------------

    Molecular point group: c1
  Charge       = 0
  Multiplicity = 1
  Basis Set: AUG-CC-PVTZ
    Blend: AUG-CC-PVTZ
  Basis Set: (AUG-CC-PVTZ AUX)
    Blend: AUG-CC-PVTZ-JKFIT

    Orbital Energies [Eh]
    ---------------------

    Doubly Occupied:

       1A    -20.556849     2A    -20.548022     3A    -11.336224
       4A    -11.313840     5A    -11.247490     6A    -11.246800
       7A    -11.239792     8A    -11.229492     9A     -1.383578
      10A     -1.378645    11A     -1.097186    12A     -1.036220
      13A     -0.986722    14A     -0.893562    15A     -0.807652
      16A     -0.742247    17A     -0.685651    18A     -0.664306
      19A     -0.656136    20A     -0.626162    21A     -0.613794
      22A     -0.610494    23A     -0.569836    24A     -0.563641
      25A     -0.518354    26A     -0.506085    27A     -0.505807
      28A     -0.486788    29A     -0.483462    30A     -0.435490
      31A     -0.413026

  @DF-RHF Final Energy:  -382.86216616638922

   => Energetics <=

    Nuclear Repulsion Energy =            354.3678810473454064
    One-Electron Energy =               -1223.6933877720682631
    Two-Electron Energy =                 486.4633405583335843
    Total Energy =                       -382.8621661663892155
  Basis Set: (AUG-CC-PVTZ AUX)
    Blend: AUG-CC-PVTZ-RI
    Molecular point group: c1

    Geometry (in Angstrom), charge = 0, multiplicity = 1:

       Center              X                  Y                   Z               Mass
    ------------   -----------------  -----------------  -----------------  -----------------
         O            1.926030440921     1.379319104704    -0.000010097546    15.994914619570
         O           -3.138838559079     0.924151104704     0.000016902454    15.994914619570
         C           -0.477704559079    -0.028278895296    -0.000012097546    12.000000000000
         C            0.851915440921    -0.769338895296     0.000017902454    12.000000000000
         C           -1.659193559079    -0.987944895296    -0.000014097546    12.000000000000
         C            2.054602440921     0.158119104704     0.000000902454    12.000000000000
         C            3.417844440921    -0.499606895296     0.000001902454    12.000000000000
         C           -2.995908559079    -0.291355895296    -0.000003097546    12.000000000000
         H           -0.535091559079     0.630950104704     0.870398902454     1.007825032230
         H           -0.535065559079     0.630922104704    -0.870445097546     1.007825032230
         H            0.933760440921    -1.432236895296    -0.873552097546     1.007825032230
         H            0.933749440921    -1.432180895296     0.873631902454     1.007825032230
         H           -1.634849559079    -1.656361895296     0.873556902454     1.007825032230
         H           -1.634855559079    -1.656350895296    -0.873593097546     1.007825032230
         H            3.532108440921    -1.138348895296    -0.881860097546     1.007825032230
         H            3.532119440921    -1.138316895296     0.881885902454     1.007825032230
         H            4.191432440921     0.269051104704    -0.000016097546     1.007825032230
         H           -3.722811959079    -0.839320395296    -0.000012897546     1.007825032230

  Basis Set: AUG-CC-PVTZ
    Blend: AUG-CC-PVTZ
  Basis Set: (AUG-CC-PVTZ AUX)
    Blend: AUG-CC-PVTZ-JKFIT
	 Reference Energy          =    -382.8621661663892155 [Eh]
	 Singles Energy            =      -0.0000000000000000 [Eh]
	 Same-Spin Energy          =      -0.3790583228218697 [Eh]
	 Opposite-Spin Energy      =      -1.2540121759185134 [Eh]
	 Correlation Energy        =      -1.6330704987403832 [Eh]
	 Total Energy              =    -384.4952366651295961 [Eh]

	 ================> DF-SCS-MP2 Energies <==================
	-----------------------------------------------------------
	 SCS Same-Spin Scale       =       0.3333333333333333 [-]
	 SCS Opposite-Spin Scale   =       1.2000000000000000 [-]
	 SCS Same-Spin Energy      =      -0.1263527742739566 [Eh]
	 SCS Opposite-Spin Energy  =      -1.5048146111022160 [Eh]
	 SCS Correlation Energy    =      -1.6311673853761726 [Eh]
	 SCS Total Energy          =    -384.4933335517653745 [Eh]
	-----------------------------------------------------------

  Dipole Moment: [D]
     X:     0.9648      Y:    -5.2780      Z:    -0.0000     Total:     5.3654

*** Psi4 exiting successfully. Buy a developer a beer!
