                               Psi4 1.4a3.dev225

  ==> Input File <==

--------------------------------------------------------------------------
#psi4
#
memory 32 gb

molecule  {
0 1
  O        1.8881650     1.4432750    -0.0000100
  O       -3.1767040     0.9881070     0.0000170
  C       -0.5155700     0.0356770    -0.0000120
  C        0.8140500    -0.7053830     0.0000180
  C       -1.7440198    -0.8529476    -0.1346690
  C        2.0167370     0.2220750     0.0000010
  C        3.3799790    -0.4356510     0.0000020
  C       -3.0337740    -0.2274000    -0.0000030
  H       -0.5729570     0.6949060     0.8703990
  H       -0.5729310     0.6948780    -0.8704450
  H        0.8958950    -1.3682810    -0.8735520
  H        0.8958840    -1.3682250     0.8736320
  H       -1.6727150    -1.5924060     0.8735570
  H       -1.6727210    -1.5923950    -0.8735930
  H        3.4942430    -1.0743930    -0.8818600
  H        3.4942540    -1.0743610     0.8818860
  H        4.1535670     0.3330070    -0.0000160
  H       -3.9203830    -0.8957560    -0.0000150
units angstrom
no_reorient  #important for SAPT in psi4, default
symmetry c1  #important for SAPT in psi4, default
}

set PROPERTIES_ORIGIN ["COM"]
properties('MP2/aug-cc-pvtz', properties = ['dipole'])
--------------------------------------------------------------------------

    Molecular point group: c1
  Charge       = 0
  Multiplicity = 1
  Basis Set: AUG-CC-PVTZ
    Blend: AUG-CC-PVTZ
  Basis Set: (AUG-CC-PVTZ AUX)
    Blend: AUG-CC-PVTZ-JKFIT

    Orbital Energies [Eh]
    ---------------------

    Doubly Occupied:

       1A    -20.557112     2A    -20.549896     3A    -11.338819
       4A    -11.335326     5A    -11.257326     6A    -11.250591
       7A    -11.241563     8A    -11.233387     9A     -1.385869
      10A     -1.380544    11A     -1.100788    12A     -1.040267
      13A     -0.988984    14A     -0.879764    15A     -0.774976
      16A     -0.744060    17A     -0.689907    18A     -0.661972
      19A     -0.657611    20A     -0.626218    21A     -0.619914
      22A     -0.607372    23A     -0.573993    24A     -0.560749
      25A     -0.525856    26A     -0.509390    27A     -0.506135
      28A     -0.486900    29A     -0.457983    30A     -0.435132
      31A     -0.416562

  @DF-RHF Final Energy:  -382.86964958357538

   => Energetics <=

    Nuclear Repulsion Energy =            353.8299061096177525
    One-Electron Energy =               -1222.6091753072757911
    Two-Electron Energy =                 485.9096196140827146
    Total Energy =                       -382.8696495835753808
  Basis Set: (AUG-CC-PVTZ AUX)
    Blend: AUG-CC-PVTZ-RI
    Molecular point group: c1

    Geometry (in Angstrom), charge = 0, multiplicity = 1:

       Center              X                  Y                   Z               Mass
    ------------   -----------------  -----------------  -----------------  -----------------
         O            1.932381778685     1.372909220051     0.014155672786    15.994914619570
         O           -3.132487221315     0.917741220051     0.014182672786    15.994914619570
         C           -0.471353221315    -0.034688779949     0.014153672786    12.000000000000
         C            0.858266778685    -0.775748779949     0.014183672786    12.000000000000
         C           -1.699803021315    -0.923313379949    -0.120503327214    12.000000000000
         C            2.060953778685     0.151709220051     0.014166672786    12.000000000000
         C            3.424195778685    -0.506016779949     0.014167672786    12.000000000000
         C           -2.989557221315    -0.297765779949     0.014162672786    12.000000000000
         H           -0.528740221315     0.624540220051     0.884564672786     1.007825032230
         H           -0.528714221315     0.624512220051    -0.856279327214     1.007825032230
         H            0.940111778685    -1.438646779949    -0.859386327214     1.007825032230
         H            0.940100778685    -1.438590779949     0.887797672786     1.007825032230
         H           -1.628498221315    -1.662771779949     0.887722672786     1.007825032230
         H           -1.628504221315    -1.662760779949    -0.859427327214     1.007825032230
         H            3.538459778685    -1.144758779949    -0.867694327214     1.007825032230
         H            3.538470778685    -1.144726779949     0.896051672786     1.007825032230
         H            4.197783778685     0.262641220051     0.014149672786     1.007825032230
         H           -3.876166221315    -0.966121779949     0.014150672786     1.007825032230

  Basis Set: AUG-CC-PVTZ
    Blend: AUG-CC-PVTZ
  Basis Set: (AUG-CC-PVTZ AUX)
    Blend: AUG-CC-PVTZ-JKFIT
	 Reference Energy          =    -382.8696495835753808 [Eh]
	 Singles Energy            =      -0.0000000000000000 [Eh]
	 Same-Spin Energy          =      -0.3804193203148471 [Eh]
	 Opposite-Spin Energy      =      -1.2561833666005726 [Eh]
	 Correlation Energy        =      -1.6366026869154198 [Eh]
	 Total Energy              =    -384.5062522704907906 [Eh]

	 ================> DF-SCS-MP2 Energies <==================
	-----------------------------------------------------------
	 SCS Same-Spin Scale       =       0.3333333333333333 [-]
	 SCS Opposite-Spin Scale   =       1.2000000000000000 [-]
	 SCS Same-Spin Energy      =      -0.1268064401049490 [Eh]
	 SCS Opposite-Spin Energy  =      -1.5074200399206872 [Eh]
	 SCS Correlation Energy    =      -1.6342264800256363 [Eh]
	 SCS Total Energy          =    -384.5038760636010124 [Eh]
	-----------------------------------------------------------

  Dipole Moment: [D]
     X:     1.3128      Y:    -5.1928      Z:    -0.1218     Total:     5.3575

*** Psi4 exiting successfully. Buy a developer a beer!
