                               Psi4 1.4a3.dev225

  ==> Input File <==

--------------------------------------------------------------------------
#psi4
#
memory 32 gb

molecule  {
0 1
  O        1.8881650     1.4432750    -0.0000100
  O       -3.1767040     0.9881070     0.0000170
  C       -0.5155700     0.0356770    -0.0000120
  C        0.9013992    -0.7540668     0.0000200
  C       -1.6970590    -0.9239890    -0.0000140
  C        2.0167370     0.2220750     0.0000010
  C        3.3799790    -0.4356510     0.0000020
  C       -3.0337740    -0.2274000    -0.0000030
  H       -0.5729570     0.6949060     0.8703990
  H       -0.5729310     0.6948780    -0.8704450
  H        0.8958950    -1.3682810    -0.8735520
  H        0.8958840    -1.3682250     0.8736320
  H       -1.6727150    -1.5924060     0.8735570
  H       -1.6727210    -1.5923950    -0.8735930
  H        3.4942430    -1.0743930    -0.8818600
  H        3.4942540    -1.0743610     0.8818860
  H        4.1535670     0.3330070    -0.0000160
  H       -3.9203830    -0.8957560    -0.0000150
units angstrom
no_reorient  #important for SAPT in psi4, default
symmetry c1  #important for SAPT in psi4, default
}

set PROPERTIES_ORIGIN ["COM"]
properties('MP2/aug-cc-pvtz', properties = ['dipole'])
--------------------------------------------------------------------------

    Molecular point group: c1
  Charge       = 0
  Multiplicity = 1
  Basis Set: AUG-CC-PVTZ
    Blend: AUG-CC-PVTZ
  Basis Set: (AUG-CC-PVTZ AUX)
    Blend: AUG-CC-PVTZ-JKFIT

    Orbital Energies [Eh]
    ---------------------

    Doubly Occupied:

       1A    -20.560388     2A    -20.551122     3A    -11.337903
       4A    -11.336575     5A    -11.250406     6A    -11.245446
       7A    -11.237226     8A    -11.235366     9A     -1.385162
      10A     -1.380556    11A     -1.091507    12A     -1.041397
      13A     -0.978156    14A     -0.874925    15A     -0.775052
      16A     -0.747412    17A     -0.674406    18A     -0.667067
      19A     -0.658733    20A     -0.624996    21A     -0.618831
      22A     -0.614635    23A     -0.573398    24A     -0.563241
      25A     -0.514948    26A     -0.511842    27A     -0.490757
      28A     -0.487830    29A     -0.485837    30A     -0.430818
      31A     -0.413883

  @DF-RHF Final Energy:  -382.88272917710378

   => Energetics <=

    Nuclear Repulsion Energy =            352.6221191625116376
    One-Electron Energy =               -1220.2900548638278906
    Two-Electron Energy =                 484.7852065242125263
    Total Energy =                       -382.8827291771037835
  Basis Set: (AUG-CC-PVTZ AUX)
    Blend: AUG-CC-PVTZ-RI
    Molecular point group: c1

    Geometry (in Angstrom), charge = 0, multiplicity = 1:

       Center              X                  Y                   Z               Mass
    ------------   -----------------  -----------------  -----------------  -----------------
         O            1.918252321907     1.385504351007    -0.000010288509    15.994914619570
         O           -3.146616678093     0.930336351007     0.000016711491    15.994914619570
         C           -0.485482678093    -0.022093648993    -0.000012288509    12.000000000000
         C            0.931486521907    -0.811837448993     0.000019711491    12.000000000000
         C           -1.666971678093    -0.981759648993    -0.000014288509    12.000000000000
         C            2.046824321907     0.164304351007     0.000000711491    12.000000000000
         C            3.410066321907    -0.493421648993     0.000001711491    12.000000000000
         C           -3.003686678093    -0.285170648993    -0.000003288509    12.000000000000
         H           -0.542869678093     0.637135351007     0.870398711491     1.007825032230
         H           -0.542843678093     0.637107351007    -0.870445288509     1.007825032230
         H            0.925982321907    -1.426051648993    -0.873552288509     1.007825032230
         H            0.925971321907    -1.425995648993     0.873631711491     1.007825032230
         H           -1.642627678093    -1.650176648993     0.873556711491     1.007825032230
         H           -1.642633678093    -1.650165648993    -0.873593288509     1.007825032230
         H            3.524330321907    -1.132163648993    -0.881860288509     1.007825032230
         H            3.524341321907    -1.132131648993     0.881885711491     1.007825032230
         H            4.183654321907     0.275236351007    -0.000016288509     1.007825032230
         H           -3.890295678093    -0.953526648993    -0.000015288509     1.007825032230

  Basis Set: AUG-CC-PVTZ
    Blend: AUG-CC-PVTZ
  Basis Set: (AUG-CC-PVTZ AUX)
    Blend: AUG-CC-PVTZ-JKFIT
	 Reference Energy          =    -382.8827291771037835 [Eh]
	 Singles Energy            =      -0.0000000000000000 [Eh]
	 Same-Spin Energy          =      -0.3794322831595858 [Eh]
	 Opposite-Spin Energy      =      -1.2551455361549513 [Eh]
	 Correlation Energy        =      -1.6345778193145371 [Eh]
	 Total Energy              =    -384.5173069964183128 [Eh]

	 ================> DF-SCS-MP2 Energies <==================
	-----------------------------------------------------------
	 SCS Same-Spin Scale       =       0.3333333333333333 [-]
	 SCS Opposite-Spin Scale   =       1.2000000000000000 [-]
	 SCS Same-Spin Energy      =      -0.1264774277198619 [Eh]
	 SCS Opposite-Spin Energy  =      -1.5061746433859415 [Eh]
	 SCS Correlation Energy    =      -1.6326520711058035 [Eh]
	 SCS Total Energy          =    -384.5153812482095645 [Eh]
	-----------------------------------------------------------

  Dipole Moment: [D]
     X:     1.0863      Y:    -5.1712      Z:    -0.0000     Total:     5.2841

*** Psi4 exiting successfully. Buy a developer a beer!
