                               Psi4 1.4a3.dev225

  ==> Input File <==

--------------------------------------------------------------------------
#psi4
#
memory 32 gb

molecule  {
0 1
  O        1.8881650     1.4432750    -0.0000100
  O       -3.1767040     0.9881070     0.0000170
  C       -0.5155700     0.0356770    -0.0000120
  C        0.8480286    -0.6272844     0.1346740
  C       -1.6970590    -0.9239890    -0.0000140
  C        2.0167370     0.2220750     0.0000010
  C        3.3799790    -0.4356510     0.0000020
  C       -3.0337740    -0.2274000    -0.0000030
  H       -0.5729570     0.6949060     0.8703990
  H       -0.5729310     0.6948780    -0.8704450
  H        0.8958950    -1.3682810    -0.8735520
  H        0.8958840    -1.3682250     0.8736320
  H       -1.6727150    -1.5924060     0.8735570
  H       -1.6727210    -1.5923950    -0.8735930
  H        3.4942430    -1.0743930    -0.8818600
  H        3.4942540    -1.0743610     0.8818860
  H        4.1535670     0.3330070    -0.0000160
  H       -3.9203830    -0.8957560    -0.0000150
units angstrom
no_reorient  #important for SAPT in psi4, default
symmetry c1  #important for SAPT in psi4, default
}

set PROPERTIES_ORIGIN ["COM"]
properties('MP2/aug-cc-pvtz', properties = ['dipole'])
--------------------------------------------------------------------------

    Molecular point group: c1
  Charge       = 0
  Multiplicity = 1
  Basis Set: AUG-CC-PVTZ
    Blend: AUG-CC-PVTZ
  Basis Set: (AUG-CC-PVTZ AUX)
    Blend: AUG-CC-PVTZ-JKFIT

    Orbital Energies [Eh]
    ---------------------

    Doubly Occupied:

       1A    -20.561702     2A    -20.546338     3A    -11.339791
       4A    -11.334584     5A    -11.254723     6A    -11.253401
       7A    -11.240688     8A    -11.233339     9A     -1.386484
      10A     -1.380825    11A     -1.100823    12A     -1.040858
      13A     -0.985432    14A     -0.879346    15A     -0.779242
      16A     -0.746900    17A     -0.677611    18A     -0.669031
      19A     -0.656212    20A     -0.627751    21A     -0.616420
      22A     -0.612324    23A     -0.569415    24A     -0.560110
      25A     -0.528409    26A     -0.513918    27A     -0.500964
      28A     -0.488225    29A     -0.457570    30A     -0.432330
      31A     -0.418994

  @DF-RHF Final Energy:  -382.86956057586934

   => Energetics <=

    Nuclear Repulsion Energy =            353.9732812115093452
    One-Electron Energy =               -1222.8981650114474178
    Two-Electron Energy =                 486.0553232240686725
    Total Energy =                       -382.8695605758693432
  Basis Set: (AUG-CC-PVTZ AUX)
    Blend: AUG-CC-PVTZ-RI
    Molecular point group: c1

    Geometry (in Angstrom), charge = 0, multiplicity = 1:

       Center              X                  Y                   Z               Mass
    ------------   -----------------  -----------------  -----------------  -----------------
         O            1.923866926820     1.372166800258    -0.014175934202    15.994914619570
         O           -3.141002073180     0.916998800258    -0.014148934202    15.994914619570
         C           -0.479868073180    -0.035431199742    -0.014177934202    12.000000000000
         C            0.883730526820    -0.698392599742     0.120508065798    12.000000000000
         C           -1.661357073180    -0.995097199742    -0.014179934202    12.000000000000
         C            2.052438926820     0.150966800258    -0.014164934202    12.000000000000
         C            3.415680926820    -0.506759199742    -0.014163934202    12.000000000000
         C           -2.998072073180    -0.298508199742    -0.014168934202    12.000000000000
         H           -0.537255073180     0.623797800258     0.856233065798     1.007825032230
         H           -0.537229073180     0.623769800258    -0.884610934202     1.007825032230
         H            0.931596926820    -1.439389199742    -0.887717934202     1.007825032230
         H            0.931585926820    -1.439333199742     0.859466065798     1.007825032230
         H           -1.637013073180    -1.663514199742     0.859391065798     1.007825032230
         H           -1.637019073180    -1.663503199742    -0.887758934202     1.007825032230
         H            3.529944926820    -1.145501199742    -0.896025934202     1.007825032230
         H            3.529955926820    -1.145469199742     0.867720065798     1.007825032230
         H            4.189268926820     0.261898800258    -0.014181934202     1.007825032230
         H           -3.884681073180    -0.966864199742    -0.014180934202     1.007825032230

  Basis Set: AUG-CC-PVTZ
    Blend: AUG-CC-PVTZ
  Basis Set: (AUG-CC-PVTZ AUX)
    Blend: AUG-CC-PVTZ-JKFIT
	 Reference Energy          =    -382.8695605758693432 [Eh]
	 Singles Energy            =      -0.0000000000000000 [Eh]
	 Same-Spin Energy          =      -0.3803567063567223 [Eh]
	 Opposite-Spin Energy      =      -1.2563314240491368 [Eh]
	 Correlation Energy        =      -1.6366881304058589 [Eh]
	 Total Energy              =    -384.5062487062751870 [Eh]

	 ================> DF-SCS-MP2 Energies <==================
	-----------------------------------------------------------
	 SCS Same-Spin Scale       =       0.3333333333333333 [-]
	 SCS Opposite-Spin Scale   =       1.2000000000000000 [-]
	 SCS Same-Spin Energy      =      -0.1267855687855741 [Eh]
	 SCS Opposite-Spin Energy  =      -1.5075977088589640 [Eh]
	 SCS Correlation Energy    =      -1.6343832776445382 [Eh]
	 SCS Total Energy          =    -384.5039438535138743 [Eh]
	-----------------------------------------------------------

  Dipole Moment: [D]
     X:     0.9897      Y:    -5.1964      Z:     0.1170     Total:     5.2911

*** Psi4 exiting successfully. Buy a developer a beer!
