                               Psi4 1.4a3.dev225

  ==> Input File <==

--------------------------------------------------------------------------
#psi4
#
memory 32 gb

molecule  {
0 1
  O        1.8881650     1.4432750    -0.0000100
  O       -3.1767040     0.9881070     0.0000170
  C       -0.5155700     0.0356770    -0.0000120
  C        0.8140500    -0.7053830     0.0000180
  C       -1.6970590    -0.9239890    -0.0000140
  C        2.0167370     0.2220750     0.0000010
  C        3.3799790    -0.4356510     0.0000020
  C       -3.0337740    -0.2274000    -0.0000030
  H       -0.5729570     0.6949060     0.8703990
  H       -0.5729310     0.6948780    -0.8704450
  H        0.8958950    -1.3682810    -0.8735520
  H        0.8958840    -1.3682250     0.8736320
  H       -1.6727150    -1.5924060     0.8735570
  H       -1.6727210    -1.5923950    -0.8735930
  H        3.4942430    -1.0743930    -0.8818600
  H        3.4942540    -1.0743610     0.8818860
  H        4.1535670     0.3330070    -0.0000160
  H       -3.9363536    -0.9077952    -0.0000152
units angstrom
no_reorient  #important for SAPT in psi4, default
symmetry c1  #important for SAPT in psi4, default
}

set PROPERTIES_ORIGIN ["COM"]
properties('MP2/aug-cc-pvtz', properties = ['dipole'])
--------------------------------------------------------------------------

    Molecular point group: c1
  Charge       = 0
  Multiplicity = 1
  Basis Set: AUG-CC-PVTZ
    Blend: AUG-CC-PVTZ
  Basis Set: (AUG-CC-PVTZ AUX)
    Blend: AUG-CC-PVTZ-JKFIT

    Orbital Energies [Eh]
    ---------------------

    Doubly Occupied:

       1A    -20.561076     2A    -20.548904     3A    -11.340356
       4A    -11.337195     5A    -11.251213     6A    -11.248112
       7A    -11.240487     8A    -11.231188     9A     -1.385661
      10A     -1.379532    11A     -1.098402    12A     -1.035776
      13A     -0.983043    14A     -0.872153    15A     -0.774540
      16A     -0.741918    17A     -0.674557    18A     -0.665795
      19A     -0.657251    20A     -0.624971    21A     -0.614964
      22A     -0.611727    23A     -0.571016    24A     -0.563595
      25A     -0.519159    26A     -0.508391    27A     -0.507227
      28A     -0.488515    29A     -0.484784    30A     -0.430525
      31A     -0.412398

  @DF-RHF Final Energy:  -382.89079718612118

   => Energetics <=

    Nuclear Repulsion Energy =            353.1852491590277623
    One-Electron Energy =               -1221.4232242863988631
    Two-Electron Energy =                 485.3471779412499245
    Total Energy =                       -382.8907971861211763
  Basis Set: (AUG-CC-PVTZ AUX)
    Blend: AUG-CC-PVTZ-RI
    Molecular point group: c1

    Geometry (in Angstrom), charge = 0, multiplicity = 1:

       Center              X                  Y                   Z               Mass
    ------------   -----------------  -----------------  -----------------  -----------------
         O            1.927582591817     1.380489168889    -0.000010076341    15.994914619570
         O           -3.137286408183     0.925321168889     0.000016923659    15.994914619570
         C           -0.476152408183    -0.027108831111    -0.000012076341    12.000000000000
         C            0.853467591817    -0.768168831111     0.000017923659    12.000000000000
         C           -1.657641408183    -0.986774831111    -0.000014076341    12.000000000000
         C            2.056154591817     0.159289168889     0.000000923659    12.000000000000
         C            3.419396591817    -0.498436831111     0.000001923659    12.000000000000
         C           -2.994356408183    -0.290185831111    -0.000003076341    12.000000000000
         H           -0.533539408183     0.632120168889     0.870398923659     1.007825032230
         H           -0.533513408183     0.632092168889    -0.870445076341     1.007825032230
         H            0.935312591817    -1.431066831111    -0.873552076341     1.007825032230
         H            0.935301591817    -1.431010831111     0.873631923659     1.007825032230
         H           -1.633297408183    -1.655191831111     0.873556923659     1.007825032230
         H           -1.633303408183    -1.655180831111    -0.873593076341     1.007825032230
         H            3.533660591817    -1.137178831111    -0.881860076341     1.007825032230
         H            3.533671591817    -1.137146831111     0.881885923659     1.007825032230
         H            4.192984591817     0.270221168889    -0.000016076341     1.007825032230
         H           -3.896936008183    -0.970581031111    -0.000015276341     1.007825032230

  Basis Set: AUG-CC-PVTZ
    Blend: AUG-CC-PVTZ
  Basis Set: (AUG-CC-PVTZ AUX)
    Blend: AUG-CC-PVTZ-JKFIT
	 Reference Energy          =    -382.8907971861211763 [Eh]
	 Singles Energy            =      -0.0000000000000000 [Eh]
	 Same-Spin Energy          =      -0.3795463055921485 [Eh]
	 Opposite-Spin Energy      =      -1.2548433034088053 [Eh]
	 Correlation Energy        =      -1.6343896090009538 [Eh]
	 Total Energy              =    -384.5251867951221243 [Eh]

	 ================> DF-SCS-MP2 Energies <==================
	-----------------------------------------------------------
	 SCS Same-Spin Scale       =       0.3333333333333333 [-]
	 SCS Opposite-Spin Scale   =       1.2000000000000000 [-]
	 SCS Same-Spin Energy      =      -0.1265154351973828 [Eh]
	 SCS Opposite-Spin Energy  =      -1.5058119640905663 [Eh]
	 SCS Correlation Energy    =      -1.6323273992879490 [Eh]
	 SCS Total Energy          =    -384.5231245854091071 [Eh]
	-----------------------------------------------------------

  Dipole Moment: [D]
     X:     1.1629      Y:    -5.1369      Z:    -0.0000     Total:     5.2669

*** Psi4 exiting successfully. Buy a developer a beer!
