                               Psi4 1.4a3.dev225

  ==> Input File <==

--------------------------------------------------------------------------
#psi4
#
memory 32 gb

molecule  {
0 1
  O        1.8881650     1.4432750    -0.0000100
  O       -3.1767040     0.9881070     0.0000170
  C       -0.5155700     0.0356770    -0.0000120
  C        0.8140500    -0.7053830     0.0000180
  C       -1.6970590    -0.9239890    -0.0000140
  C        2.0167370     0.2220750     0.0000010
  C        3.3799790    -0.4356510     0.0000020
  C       -3.0337740    -0.2274000    -0.0000030
  H       -0.5729570     0.6949060     0.8703990
  H       -0.5729310     0.6948780    -0.8704450
  H        0.8958950    -1.3682810    -0.8735520
  H        0.8921631    -1.3380866     0.8339101
  H       -1.6727150    -1.5924060     0.8735570
  H       -1.6727210    -1.5923950    -0.8735930
  H        3.4942430    -1.0743930    -0.8818600
  H        3.4942540    -1.0743610     0.8818860
  H        4.1535670     0.3330070    -0.0000160
  H       -3.9203830    -0.8957560    -0.0000150
units angstrom
no_reorient  #important for SAPT in psi4, default
symmetry c1  #important for SAPT in psi4, default
}

set PROPERTIES_ORIGIN ["COM"]
properties('MP2/aug-cc-pvtz', properties = ['dipole'])
--------------------------------------------------------------------------

    Molecular point group: c1
  Charge       = 0
  Multiplicity = 1
  Basis Set: AUG-CC-PVTZ
    Blend: AUG-CC-PVTZ
  Basis Set: (AUG-CC-PVTZ AUX)
    Blend: AUG-CC-PVTZ-JKFIT

    Orbital Energies [Eh]
    ---------------------

    Doubly Occupied:

       1A    -20.560446     2A    -20.548490     3A    -11.337933
       4A    -11.336669     5A    -11.250704     6A    -11.241815
       7A    -11.240486     8A    -11.230450     9A     -1.385215
      10A     -1.379135    11A     -1.099506    12A     -1.036466
      13A     -0.984348    14A     -0.874288    15A     -0.777300
      16A     -0.744014    17A     -0.676053    18A     -0.667806
      19A     -0.657530    20A     -0.625118    21A     -0.615664
      22A     -0.611851    23A     -0.573019    24A     -0.563696
      25A     -0.518912    26A     -0.508975    27A     -0.507124
      28A     -0.488152    29A     -0.485760    30A     -0.430863
      31A     -0.412290

  @DF-RHF Final Energy:  -382.89058461343404

   => Energetics <=

    Nuclear Repulsion Energy =            353.5246082401829426
    One-Electron Energy =               -1222.0902265564629943
    Two-Electron Energy =                 485.6750337028460081
    Total Energy =                       -382.8905846134340436
  Basis Set: (AUG-CC-PVTZ AUX)
    Blend: AUG-CC-PVTZ-RI
    Molecular point group: c1

    Geometry (in Angstrom), charge = 0, multiplicity = 1:

       Center              X                  Y                   Z               Mass
    ------------   -----------------  -----------------  -----------------  -----------------
         O            1.927474362115     1.380116517388     0.000340876561    15.994914619570
         O           -3.137394637885     0.924948517388     0.000367876561    15.994914619570
         C           -0.476260637885    -0.027481482612     0.000338876561    12.000000000000
         C            0.853359362115    -0.768541482612     0.000368876561    12.000000000000
         C           -1.657749637885    -0.987147482612     0.000336876561    12.000000000000
         C            2.056046362115     0.158916517388     0.000351876561    12.000000000000
         C            3.419288362115    -0.498809482612     0.000352876561    12.000000000000
         C           -2.994464637885    -0.290558482612     0.000347876561    12.000000000000
         H           -0.533647637885     0.631747517388     0.870749876561     1.007825032230
         H           -0.533621637885     0.631719517388    -0.870094123439     1.007825032230
         H            0.935204362115    -1.431439482612    -0.873201123439     1.007825032230
         H            0.931472462115    -1.401245082612     0.834260976561     1.007825032230
         H           -1.633405637885    -1.655564482612     0.873907876561     1.007825032230
         H           -1.633411637885    -1.655553482612    -0.873242123439     1.007825032230
         H            3.533552362115    -1.137551482612    -0.881509123439     1.007825032230
         H            3.533563362115    -1.137519482612     0.882236876561     1.007825032230
         H            4.192876362115     0.269848517388     0.000334876561     1.007825032230
         H           -3.881073637885    -0.958914482612     0.000335876561     1.007825032230

  Basis Set: AUG-CC-PVTZ
    Blend: AUG-CC-PVTZ
  Basis Set: (AUG-CC-PVTZ AUX)
    Blend: AUG-CC-PVTZ-JKFIT
	 Reference Energy          =    -382.8905846134340436 [Eh]
	 Singles Energy            =      -0.0000000000000000 [Eh]
	 Same-Spin Energy          =      -0.3794515735981500 [Eh]
	 Opposite-Spin Energy      =      -1.2543856077886713 [Eh]
	 Correlation Energy        =      -1.6338371813868213 [Eh]
	 Total Energy              =    -384.5244217948208529 [Eh]

	 ================> DF-SCS-MP2 Energies <==================
	-----------------------------------------------------------
	 SCS Same-Spin Scale       =       0.3333333333333333 [-]
	 SCS Opposite-Spin Scale   =       1.2000000000000000 [-]
	 SCS Same-Spin Energy      =      -0.1264838578660500 [Eh]
	 SCS Opposite-Spin Energy  =      -1.5052627293464054 [Eh]
	 SCS Correlation Energy    =      -1.6317465872124552 [Eh]
	 SCS Total Energy          =    -384.5223312006464766 [Eh]
	-----------------------------------------------------------

  Dipole Moment: [D]
     X:     1.1482      Y:    -5.1709      Z:     0.0133     Total:     5.2969

*** Psi4 exiting successfully. Buy a developer a beer!
