                               Psi4 1.4a3.dev225

  ==> Input File <==

--------------------------------------------------------------------------
#psi4
#
memory 32 gb

molecule  {
0 1
  O        1.8881650     1.4432750    -0.0000100
  O       -3.1767040     0.9881070     0.0000170
  C       -0.5155700     0.0356770    -0.0000120
  C        0.9887484    -0.8027507     0.0000219
  C       -1.6970590    -0.9239890    -0.0000140
  C        2.0167370     0.2220750     0.0000010
  C        3.3799790    -0.4356510     0.0000020
  C       -3.0337740    -0.2274000    -0.0000030
  H       -0.5729570     0.6949060     0.8703990
  H       -0.5729310     0.6948780    -0.8704450
  H        0.8958950    -1.3682810    -0.8735520
  H        0.8958840    -1.3682250     0.8736320
  H       -1.6727150    -1.5924060     0.8735570
  H       -1.6727210    -1.5923950    -0.8735930
  H        3.4942430    -1.0743930    -0.8818600
  H        3.4942540    -1.0743610     0.8818860
  H        4.1535670     0.3330070    -0.0000160
  H       -3.9203830    -0.8957560    -0.0000150
units angstrom
no_reorient  #important for SAPT in psi4, default
symmetry c1  #important for SAPT in psi4, default
}

set PROPERTIES_ORIGIN ["COM"]
properties('MP2/aug-cc-pvtz', properties = ['dipole'])
--------------------------------------------------------------------------

    Molecular point group: c1
  Charge       = 0
  Multiplicity = 1
  Basis Set: AUG-CC-PVTZ
    Blend: AUG-CC-PVTZ
  Basis Set: (AUG-CC-PVTZ AUX)
    Blend: AUG-CC-PVTZ-JKFIT

    Orbital Energies [Eh]
    ---------------------

    Doubly Occupied:

       1A    -20.560424     2A    -20.553517     3A    -11.337966
       4A    -11.336851     5A    -11.250437     6A    -11.245484
       7A    -11.239163     8A    -11.234221     9A     -1.385198
      10A     -1.381671    11A     -1.088973    12A     -1.046885
      13A     -0.973811    14A     -0.875825    15A     -0.773702
      16A     -0.753574    17A     -0.673556    18A     -0.670629
      19A     -0.660792    20A     -0.625164    21A     -0.622901
      22A     -0.617863    23A     -0.575317    24A     -0.562845
      25A     -0.516229    26A     -0.515079    27A     -0.493946
      28A     -0.487691    29A     -0.461734    30A     -0.430680
      31A     -0.409173

  @DF-RHF Final Energy:  -382.85913495336780

   => Energetics <=

    Nuclear Repulsion Energy =            352.0050440089189010
    One-Electron Energy =               -1219.0057549387533982
    Two-Electron Energy =                 484.1415759764666404
    Total Energy =                       -382.8591349533677999
  Basis Set: (AUG-CC-PVTZ AUX)
    Blend: AUG-CC-PVTZ-RI
    Molecular point group: c1

    Geometry (in Angstrom), charge = 0, multiplicity = 1:

       Center              X                  Y                   Z               Mass
    ------------   -----------------  -----------------  -----------------  -----------------
         O            1.909063156945     1.390625913518    -0.000010488389    15.994914619570
         O           -3.155805843055     0.935457913518     0.000016511611    15.994914619570
         C           -0.494671843055    -0.016972086482    -0.000012488389    12.000000000000
         C            1.009646556945    -0.855399786482     0.000021411611    12.000000000000
         C           -1.676160843055    -0.976638086482    -0.000014488389    12.000000000000
         C            2.037635156945     0.169425913518     0.000000511611    12.000000000000
         C            3.400877156945    -0.488300086482     0.000001511611    12.000000000000
         C           -3.012875843055    -0.280049086482    -0.000003488389    12.000000000000
         H           -0.552058843055     0.642256913518     0.870398511611     1.007825032230
         H           -0.552032843055     0.642228913518    -0.870445488389     1.007825032230
         H            0.916793156945    -1.420930086482    -0.873552488389     1.007825032230
         H            0.916782156945    -1.420874086482     0.873631511611     1.007825032230
         H           -1.651816843055    -1.645055086482     0.873556511611     1.007825032230
         H           -1.651822843055    -1.645044086482    -0.873593488389     1.007825032230
         H            3.515141156945    -1.127042086482    -0.881860488389     1.007825032230
         H            3.515152156945    -1.127010086482     0.881885511611     1.007825032230
         H            4.174465156945     0.280357913518    -0.000016488389     1.007825032230
         H           -3.899484843055    -0.948405086482    -0.000015488389     1.007825032230

  Basis Set: AUG-CC-PVTZ
    Blend: AUG-CC-PVTZ
  Basis Set: (AUG-CC-PVTZ AUX)
    Blend: AUG-CC-PVTZ-JKFIT
	 Reference Energy          =    -382.8591349533677999 [Eh]
	 Singles Energy            =      -0.0000000000000000 [Eh]
	 Same-Spin Energy          =      -0.3802201260228207 [Eh]
	 Opposite-Spin Energy      =      -1.2572101606316992 [Eh]
	 Correlation Energy        =      -1.6374302866545198 [Eh]
	 Total Energy              =    -384.4965652400223348 [Eh]

	 ================> DF-SCS-MP2 Energies <==================
	-----------------------------------------------------------
	 SCS Same-Spin Scale       =       0.3333333333333333 [-]
	 SCS Opposite-Spin Scale   =       1.2000000000000000 [-]
	 SCS Same-Spin Energy      =      -0.1267400420076069 [Eh]
	 SCS Opposite-Spin Energy  =      -1.5086521927580390 [Eh]
	 SCS Correlation Energy    =      -1.6353922347656458 [Eh]
	 SCS Total Energy          =    -384.4945271881334179 [Eh]
	-----------------------------------------------------------

  Dipole Moment: [D]
     X:     1.0117      Y:    -5.1648      Z:    -0.0000     Total:     5.2630

*** Psi4 exiting successfully. Buy a developer a beer!
