                               Psi4 1.4a3.dev225

  ==> Input File <==

--------------------------------------------------------------------------
#psi4
#
memory 32 gb

molecule  {
0 1
  O        1.8881650     1.4432750    -0.0000100
  O       -3.1767040     0.9881070     0.0000170
  C       -0.5155700     0.0356770    -0.0000120
  C        0.8140500    -0.7053830     0.0000180
  C       -1.7094197    -0.9472118    -0.0000144
  C        2.0167370     0.2220750     0.0000010
  C        3.3799790    -0.4356510     0.0000020
  C       -3.0337740    -0.2274000    -0.0000030
  H       -0.5729570     0.6949060     0.8703990
  H       -0.5729310     0.6948780    -0.8704450
  H        0.8958950    -1.3682810    -0.8735520
  H        0.8958840    -1.3682250     0.8736320
  H       -1.6727150    -1.5924060     0.8735570
  H       -1.6727210    -1.5923950    -0.8735930
  H        3.4942430    -1.0743930    -0.8818600
  H        3.4942540    -1.0743610     0.8818860
  H        4.1535670     0.3330070    -0.0000160
  H       -3.9203830    -0.8957560    -0.0000150
units angstrom
no_reorient  #important for SAPT in psi4, default
symmetry c1  #important for SAPT in psi4, default
}

set PROPERTIES_ORIGIN ["COM"]
properties('MP2/aug-cc-pvtz', properties = ['dipole'])
--------------------------------------------------------------------------

    Molecular point group: c1
  Charge       = 0
  Multiplicity = 1
  Basis Set: AUG-CC-PVTZ
    Blend: AUG-CC-PVTZ
  Basis Set: (AUG-CC-PVTZ AUX)
    Blend: AUG-CC-PVTZ-JKFIT

    Orbital Energies [Eh]
    ---------------------

    Doubly Occupied:

       1A    -20.561321     2A    -20.548652     3A    -11.338169
       4A    -11.336856     5A    -11.249476     6A    -11.247563
       7A    -11.240251     8A    -11.232053     9A     -1.385437
      10A     -1.379272    11A     -1.095806    12A     -1.035421
      13A     -0.983795    14A     -0.871480    15A     -0.778877
      16A     -0.741476    17A     -0.675018    18A     -0.665955
      19A     -0.656729    20A     -0.625376    21A     -0.616448
      22A     -0.612002    23A     -0.572339    24A     -0.562670
      25A     -0.515223    26A     -0.507975    27A     -0.505940
      28A     -0.491337    29A     -0.485099    30A     -0.430753
      31A     -0.412027

  @DF-RHF Final Energy:  -382.89094821179651

   => Energetics <=

    Nuclear Repulsion Energy =            352.9638548194051850
    One-Electron Energy =               -1220.9880150848823632
    Two-Electron Energy =                 485.1332120536806087
    Total Energy =                       -382.8909482117965126
  Basis Set: (AUG-CC-PVTZ AUX)
    Blend: AUG-CC-PVTZ-RI
    Molecular point group: c1

    Geometry (in Angstrom), charge = 0, multiplicity = 1:

       Center              X                  Y                   Z               Mass
    ------------   -----------------  -----------------  -----------------  -----------------
         O            1.928741836630     1.382825845318    -0.000010036028    15.994914619570
         O           -3.136127163370     0.927657845318     0.000016963972    15.994914619570
         C           -0.474993163370    -0.024772154682    -0.000012036028    12.000000000000
         C            0.854626836630    -0.765832154682     0.000017963972    12.000000000000
         C           -1.668842863370    -1.007660954682    -0.000014436028    12.000000000000
         C            2.057313836630     0.161625845318     0.000000963972    12.000000000000
         C            3.420555836630    -0.496100154682     0.000001963972    12.000000000000
         C           -2.993197163370    -0.287849154682    -0.000003036028    12.000000000000
         H           -0.532380163370     0.634456845318     0.870398963972     1.007825032230
         H           -0.532354163370     0.634428845318    -0.870445036028     1.007825032230
         H            0.936471836630    -1.428730154682    -0.873552036028     1.007825032230
         H            0.936460836630    -1.428674154682     0.873631963972     1.007825032230
         H           -1.632138163370    -1.652855154682     0.873556963972     1.007825032230
         H           -1.632144163370    -1.652844154682    -0.873593036028     1.007825032230
         H            3.534819836630    -1.134842154682    -0.881860036028     1.007825032230
         H            3.534830836630    -1.134810154682     0.881885963972     1.007825032230
         H            4.194143836630     0.272557845318    -0.000016036028     1.007825032230
         H           -3.879806163370    -0.956205154682    -0.000015036028     1.007825032230

  Basis Set: AUG-CC-PVTZ
    Blend: AUG-CC-PVTZ
  Basis Set: (AUG-CC-PVTZ AUX)
    Blend: AUG-CC-PVTZ-JKFIT
	 Reference Energy          =    -382.8909482117965126 [Eh]
	 Singles Energy            =      -0.0000000000000000 [Eh]
	 Same-Spin Energy          =      -0.3793022632563529 [Eh]
	 Opposite-Spin Energy      =      -1.2545904692437140 [Eh]
	 Correlation Energy        =      -1.6338927325000667 [Eh]
	 Total Energy              =    -384.5248409442965567 [Eh]

	 ================> DF-SCS-MP2 Energies <==================
	-----------------------------------------------------------
	 SCS Same-Spin Scale       =       0.3333333333333333 [-]
	 SCS Opposite-Spin Scale   =       1.2000000000000000 [-]
	 SCS Same-Spin Energy      =      -0.1264340877521176 [Eh]
	 SCS Opposite-Spin Energy  =      -1.5055085630924567 [Eh]
	 SCS Correlation Energy    =      -1.6319426508445742 [Eh]
	 SCS Total Energy          =    -384.5228908626410771 [Eh]
	-----------------------------------------------------------

  Dipole Moment: [D]
     X:     1.1270      Y:    -5.1542      Z:    -0.0000     Total:     5.2760

*** Psi4 exiting successfully. Buy a developer a beer!
