                               Psi4 1.4a3.dev225

  ==> Input File <==

--------------------------------------------------------------------------
#psi4
#
memory 32 gb

molecule  {
0 1
  O        1.8881650     1.4432750    -0.0000100
  O       -3.1767040     0.9881070     0.0000170
  C       -0.5155700     0.0356770    -0.0000120
  C        0.8140500    -0.7053830     0.0000180
  C       -1.6970590    -0.9239890    -0.0000140
  C        2.0188311     0.2021849     0.0000012
  C        3.3799790    -0.4356510     0.0000020
  C       -3.0337740    -0.2274000    -0.0000030
  H       -0.5729570     0.6949060     0.8703990
  H       -0.5729310     0.6948780    -0.8704450
  H        0.8958950    -1.3682810    -0.8735520
  H        0.8958840    -1.3682250     0.8736320
  H       -1.6727150    -1.5924060     0.8735570
  H       -1.6727210    -1.5923950    -0.8735930
  H        3.4942430    -1.0743930    -0.8818600
  H        3.4942540    -1.0743610     0.8818860
  H        4.1535670     0.3330070    -0.0000160
  H       -3.9203830    -0.8957560    -0.0000150
units angstrom
no_reorient  #important for SAPT in psi4, default
symmetry c1  #important for SAPT in psi4, default
}

set PROPERTIES_ORIGIN ["COM"]
properties('MP2/aug-cc-pvtz', properties = ['dipole'])
--------------------------------------------------------------------------

    Molecular point group: c1
  Charge       = 0
  Multiplicity = 1
  Basis Set: AUG-CC-PVTZ
    Blend: AUG-CC-PVTZ
  Basis Set: (AUG-CC-PVTZ AUX)
    Blend: AUG-CC-PVTZ-JKFIT

    Orbital Energies [Eh]
    ---------------------

    Doubly Occupied:

       1A    -20.560713     2A    -20.547094     3A    -11.338646
       4A    -11.338252     5A    -11.251138     6A    -11.249045
       7A    -11.241526     8A    -11.231504     9A     -1.385479
      10A     -1.366171    11A     -1.099347    12A     -1.038840
      13A     -0.985149    14A     -0.874939    15A     -0.777450
      16A     -0.742285    17A     -0.675776    18A     -0.666300
      19A     -0.655596    20A     -0.623514    21A     -0.615453
      22A     -0.611551    23A     -0.571983    24A     -0.561169
      25A     -0.519696    26A     -0.507953    27A     -0.506798
      28A     -0.487166    29A     -0.478470    30A     -0.431261
      31A     -0.415253

  @DF-RHF Final Energy:  -382.88860393110582

   => Energetics <=

    Nuclear Repulsion Energy =            353.1558668036000199
    One-Electron Energy =               -1221.3779130957218513
    Two-Electron Energy =                 485.3334423610160115
    Total Energy =                       -382.8886039311058198
  Basis Set: (AUG-CC-PVTZ AUX)
    Blend: AUG-CC-PVTZ-RI
    Molecular point group: c1

    Geometry (in Angstrom), charge = 0, multiplicity = 1:

       Center              X                  Y                   Z               Mass
    ------------   -----------------  -----------------  -----------------  -----------------
         O            1.927221186851     1.382475244167    -0.000010099148    15.994914619570
         O           -3.137647813149     0.927307244167     0.000016900852    15.994914619570
         C           -0.476513813149    -0.025122755833    -0.000012099148    12.000000000000
         C            0.853106186851    -0.766182755833     0.000017900852    12.000000000000
         C           -1.658002813149    -0.984788755833    -0.000014099148    12.000000000000
         C            2.057887286851     0.141385144167     0.000001100852    12.000000000000
         C            3.419035186851    -0.496450755833     0.000001900852    12.000000000000
         C           -2.994717813149    -0.288199755833    -0.000003099148    12.000000000000
         H           -0.533900813149     0.634106244167     0.870398900852     1.007825032230
         H           -0.533874813149     0.634078244167    -0.870445099148     1.007825032230
         H            0.934951186851    -1.429080755833    -0.873552099148     1.007825032230
         H            0.934940186851    -1.429024755833     0.873631900852     1.007825032230
         H           -1.633658813149    -1.653205755833     0.873556900852     1.007825032230
         H           -1.633664813149    -1.653194755833    -0.873593099148     1.007825032230
         H            3.533299186851    -1.135192755833    -0.881860099148     1.007825032230
         H            3.533310186851    -1.135160755833     0.881885900852     1.007825032230
         H            4.192623186851     0.272207244167    -0.000016099148     1.007825032230
         H           -3.881326813149    -0.956555755833    -0.000015099148     1.007825032230

  Basis Set: AUG-CC-PVTZ
    Blend: AUG-CC-PVTZ
  Basis Set: (AUG-CC-PVTZ AUX)
    Blend: AUG-CC-PVTZ-JKFIT
	 Reference Energy          =    -382.8886039311058198 [Eh]
	 Singles Energy            =      -0.0000000000000000 [Eh]
	 Same-Spin Energy          =      -0.3800842289959941 [Eh]
	 Opposite-Spin Energy      =      -1.2559035849831186 [Eh]
	 Correlation Energy        =      -1.6359878139791126 [Eh]
	 Total Energy              =    -384.5245917450849333 [Eh]

	 ================> DF-SCS-MP2 Energies <==================
	-----------------------------------------------------------
	 SCS Same-Spin Scale       =       0.3333333333333333 [-]
	 SCS Opposite-Spin Scale   =       1.2000000000000000 [-]
	 SCS Same-Spin Energy      =      -0.1266947429986647 [Eh]
	 SCS Opposite-Spin Energy  =      -1.5070843019797422 [Eh]
	 SCS Correlation Energy    =      -1.6337790449784069 [Eh]
	 SCS Total Energy          =    -384.5223829760842023 [Eh]
	-----------------------------------------------------------

  Dipole Moment: [D]
     X:     1.1426      Y:    -5.2389      Z:    -0.0000     Total:     5.3621

*** Psi4 exiting successfully. Buy a developer a beer!
