                               Psi4 1.4a3.dev225

  ==> Input File <==

--------------------------------------------------------------------------
#psi4
#
memory 32 gb

molecule  {
0 1
  O        1.8881650     1.4432750    -0.0000100
  O       -3.1767040     0.9881070     0.0000170
  C       -0.5155700     0.0356770    -0.0000120
  C        0.8140500    -0.7053830     0.0000180
  C       -1.6970590    -0.9239890    -0.0000140
  C        2.0594053     0.2914304     0.1359064
  C        3.3799790    -0.4356510     0.0000020
  C       -3.0337740    -0.2274000    -0.0000030
  H       -0.5729570     0.6949060     0.8703990
  H       -0.5729310     0.6948780    -0.8704450
  H        0.8958950    -1.3682810    -0.8735520
  H        0.8958840    -1.3682250     0.8736320
  H       -1.6727150    -1.5924060     0.8735570
  H       -1.6727210    -1.5923950    -0.8735930
  H        3.4942430    -1.0743930    -0.8818600
  H        3.4942540    -1.0743610     0.8818860
  H        4.1535670     0.3330070    -0.0000160
  H       -3.9203830    -0.8957560    -0.0000150
units angstrom
no_reorient  #important for SAPT in psi4, default
symmetry c1  #important for SAPT in psi4, default
}

set PROPERTIES_ORIGIN ["COM"]
properties('MP2/aug-cc-pvtz', properties = ['dipole'])
--------------------------------------------------------------------------

    Molecular point group: c1
  Charge       = 0
  Multiplicity = 1
  Basis Set: AUG-CC-PVTZ
    Blend: AUG-CC-PVTZ
  Basis Set: (AUG-CC-PVTZ AUX)
    Blend: AUG-CC-PVTZ-JKFIT

    Orbital Energies [Eh]
    ---------------------

    Doubly Occupied:

       1A    -20.558767     2A    -20.556606     3A    -11.336109
       4A    -11.335097     5A    -11.248132     6A    -11.242809
       7A    -11.239812     8A    -11.227294     9A     -1.421068
      10A     -1.383608    11A     -1.090429    12A     -1.028936
      13A     -0.977734    14A     -0.862495    15A     -0.774538
      16A     -0.742279    17A     -0.675642    18A     -0.663355
      19A     -0.659280    20A     -0.634729    21A     -0.616183
      22A     -0.610614    23A     -0.568664    24A     -0.566805
      25A     -0.517831    26A     -0.515487    27A     -0.504595
      28A     -0.499428    29A     -0.482720    30A     -0.428818
      31A     -0.396761

  @DF-RHF Final Energy:  -382.87970019554399

   => Energetics <=

    Nuclear Repulsion Energy =            353.1651507956107707
    One-Electron Energy =               -1221.3564486300465433
    Two-Electron Energy =                 485.3115976388917829
    Total Energy =                       -382.8797001955439896
  Basis Set: (AUG-CC-PVTZ AUX)
    Blend: AUG-CC-PVTZ-RI
    Molecular point group: c1

    Geometry (in Angstrom), charge = 0, multiplicity = 1:

       Center              X                  Y                   Z               Mass
    ------------   -----------------  -----------------  -----------------  -----------------
         O            1.922952767483     1.373086587813    -0.014307371499    15.994914619570
         O           -3.141916232517     0.917918587813    -0.014280371499    15.994914619570
         C           -0.480782232517    -0.034511412187    -0.014309371499    12.000000000000
         C            0.848837767483    -0.775571412187    -0.014279371499    12.000000000000
         C           -1.662271232517    -0.994177412187    -0.014311371499    12.000000000000
         C            2.094193067483     0.221241987813     0.121609028501    12.000000000000
         C            3.414766767483    -0.505839412187    -0.014295371499    12.000000000000
         C           -2.998986232517    -0.297588412187    -0.014300371499    12.000000000000
         H           -0.538169232517     0.624717587813     0.856101628501     1.007825032230
         H           -0.538143232517     0.624689587813    -0.884742371499     1.007825032230
         H            0.930682767483    -1.438469412187    -0.887849371499     1.007825032230
         H            0.930671767483    -1.438413412187     0.859334628501     1.007825032230
         H           -1.637927232517    -1.662594412187     0.859259628501     1.007825032230
         H           -1.637933232517    -1.662583412187    -0.887890371499     1.007825032230
         H            3.529030767483    -1.144581412187    -0.896157371499     1.007825032230
         H            3.529041767483    -1.144549412187     0.867588628501     1.007825032230
         H            4.188354767483     0.262818587813    -0.014313371499     1.007825032230
         H           -3.885595232517    -0.965944412187    -0.014312371499     1.007825032230

  Basis Set: AUG-CC-PVTZ
    Blend: AUG-CC-PVTZ
  Basis Set: (AUG-CC-PVTZ AUX)
    Blend: AUG-CC-PVTZ-JKFIT
	 Reference Energy          =    -382.8797001955439896 [Eh]
	 Singles Energy            =      -0.0000000000000000 [Eh]
	 Same-Spin Energy          =      -0.3784538022030638 [Eh]
	 Opposite-Spin Energy      =      -1.2529148935609236 [Eh]
	 Correlation Energy        =      -1.6313686957639875 [Eh]
	 Total Energy              =    -384.5110688913079571 [Eh]

	 ================> DF-SCS-MP2 Energies <==================
	-----------------------------------------------------------
	 SCS Same-Spin Scale       =       0.3333333333333333 [-]
	 SCS Opposite-Spin Scale   =       1.2000000000000000 [-]
	 SCS Same-Spin Energy      =      -0.1261512674010213 [Eh]
	 SCS Opposite-Spin Energy  =      -1.5034978722731083 [Eh]
	 SCS Correlation Energy    =      -1.6296491396741295 [Eh]
	 SCS Total Energy          =    -384.5093493352181326 [Eh]
	-----------------------------------------------------------

  Dipole Moment: [D]
     X:     1.4024      Y:    -4.8026      Z:     0.0617     Total:     5.0036

*** Psi4 exiting successfully. Buy a developer a beer!
