                               Psi4 1.4a3.dev225

  ==> Input File <==

--------------------------------------------------------------------------
#psi4
#
memory 32 gb

molecule  {
0 1
  O        1.8881650     1.4432750    -0.0000100
  O       -3.1767040     0.9881070     0.0000170
  C       -0.5155700     0.0356770    -0.0000120
  C        0.8140500    -0.7053830     0.0000180
  C       -1.7771950    -1.0598978    -0.0000164
  C        2.0167370     0.2220750     0.0000010
  C        3.3799790    -0.4356510     0.0000020
  C       -3.0337740    -0.2274000    -0.0000030
  H       -0.5729570     0.6949060     0.8703990
  H       -0.5729310     0.6948780    -0.8704450
  H        0.8958950    -1.3682810    -0.8735520
  H        0.8958840    -1.3682250     0.8736320
  H       -1.6727150    -1.5924060     0.8735570
  H       -1.6727210    -1.5923950    -0.8735930
  H        3.4942430    -1.0743930    -0.8818600
  H        3.4942540    -1.0743610     0.8818860
  H        4.1535670     0.3330070    -0.0000160
  H       -3.9203830    -0.8957560    -0.0000150
units angstrom
no_reorient  #important for SAPT in psi4, default
symmetry c1  #important for SAPT in psi4, default
}

set PROPERTIES_ORIGIN ["COM"]
properties('MP2/aug-cc-pvtz', properties = ['dipole'])
--------------------------------------------------------------------------

    Molecular point group: c1
  Charge       = 0
  Multiplicity = 1
  Basis Set: AUG-CC-PVTZ
    Blend: AUG-CC-PVTZ
  Basis Set: (AUG-CC-PVTZ AUX)
    Blend: AUG-CC-PVTZ-JKFIT

    Orbital Energies [Eh]
    ---------------------

    Doubly Occupied:

       1A    -20.565188     2A    -20.548196     3A    -11.339934
       4A    -11.336091     5A    -11.246313     6A    -11.245728
       7A    -11.239746     8A    -11.237347     9A     -1.386402
      10A     -1.378799    11A     -1.086723    12A     -1.035101
      13A     -0.987048    14A     -0.864741    15A     -0.787422
      16A     -0.739444    17A     -0.672256    18A     -0.670711
      19A     -0.655064    20A     -0.628461    21A     -0.626677
      22A     -0.614604    23A     -0.578240    24A     -0.559511
      25A     -0.511892    26A     -0.510618    27A     -0.501491
      28A     -0.484786    29A     -0.481833    30A     -0.428081
      31A     -0.407377

  @DF-RHF Final Energy:  -382.86955550763383

   => Energetics <=

    Nuclear Repulsion Energy =            351.4169225905899339
    One-Electron Energy =               -1217.8613007865149029
    Two-Electron Energy =                 483.5748226882911354
    Total Energy =                       -382.8695555076338337
  Basis Set: (AUG-CC-PVTZ AUX)
    Blend: AUG-CC-PVTZ-RI
    Molecular point group: c1

    Geometry (in Angstrom), charge = 0, multiplicity = 1:

       Center              X                  Y                   Z               Mass
    ------------   -----------------  -----------------  -----------------  -----------------
         O            1.935871820786     1.394680450088    -0.000009825627    15.994914619570
         O           -3.128997179214     0.939512450088     0.000017174373    15.994914619570
         C           -0.467863179214    -0.012917549912    -0.000011825627    12.000000000000
         C            0.861756820786    -0.753977549912     0.000018174373    12.000000000000
         C           -1.729488179214    -1.108492349912    -0.000016225627    12.000000000000
         C            2.064443820786     0.173480450088     0.000001174373    12.000000000000
         C            3.427685820786    -0.484245549912     0.000002174373    12.000000000000
         C           -2.986067179214    -0.275994549912    -0.000002825627    12.000000000000
         H           -0.525250179214     0.646311450088     0.870399174373     1.007825032230
         H           -0.525224179214     0.646283450088    -0.870444825627     1.007825032230
         H            0.943601820786    -1.416875549912    -0.873551825627     1.007825032230
         H            0.943590820786    -1.416819549912     0.873632174373     1.007825032230
         H           -1.625008179214    -1.641000549912     0.873557174373     1.007825032230
         H           -1.625014179214    -1.640989549912    -0.873592825627     1.007825032230
         H            3.541949820786    -1.122987549912    -0.881859825627     1.007825032230
         H            3.541960820786    -1.122955549912     0.881886174373     1.007825032230
         H            4.201273820786     0.284412450088    -0.000015825627     1.007825032230
         H           -3.872676179214    -0.944350549912    -0.000014825627     1.007825032230

  Basis Set: AUG-CC-PVTZ
    Blend: AUG-CC-PVTZ
  Basis Set: (AUG-CC-PVTZ AUX)
    Blend: AUG-CC-PVTZ-JKFIT
	 Reference Energy          =    -382.8695555076338337 [Eh]
	 Singles Energy            =      -0.0000000000000000 [Eh]
	 Same-Spin Energy          =      -0.3791783916668457 [Eh]
	 Opposite-Spin Energy      =      -1.2556369809295544 [Eh]
	 Correlation Energy        =      -1.6348153725964001 [Eh]
	 Total Energy              =    -384.5043708802302262 [Eh]

	 ================> DF-SCS-MP2 Energies <==================
	-----------------------------------------------------------
	 SCS Same-Spin Scale       =       0.3333333333333333 [-]
	 SCS Opposite-Spin Scale   =       1.2000000000000000 [-]
	 SCS Same-Spin Energy      =      -0.1263927972222819 [Eh]
	 SCS Opposite-Spin Energy  =      -1.5067643771154653 [Eh]
	 SCS Correlation Energy    =      -1.6331571743377471 [Eh]
	 SCS Total Energy          =    -384.5027126819715590 [Eh]
	-----------------------------------------------------------

  Dipole Moment: [D]
     X:     1.1110      Y:    -5.1229      Z:    -0.0000     Total:     5.2420

*** Psi4 exiting successfully. Buy a developer a beer!
