                               Psi4 1.4a3.dev225

  ==> Input File <==

--------------------------------------------------------------------------
#psi4
#
memory 32 gb

molecule  {
0 1
  O        1.8881650     1.4432750    -0.0000100
  O       -3.1767040     0.9881070     0.0000170
  C       -0.5155700     0.0356770    -0.0000120
  C        0.8140500    -0.7053830     0.0000180
  C       -1.6970590    -0.9239890    -0.0000140
  C        2.0167370     0.2220750     0.0000010
  C        3.3799790    -0.4356510     0.0000020
  C       -3.0337740    -0.2274000    -0.0000030
  H       -0.5729570     0.6949060     0.8703990
  H       -0.5729310     0.6948780    -0.8704450
  H        0.8958950    -1.3682810    -0.8735520
  H        0.8958840    -1.3682250     0.8736320
  H       -1.6727150    -1.5924060     0.8735570
  H       -1.6727210    -1.5923950    -0.8735930
  H        3.4942430    -1.0743930    -0.8818600
  H        3.4942540    -1.0743610     0.8818860
  H        4.2954397     0.4739756    -0.0000193
  H       -3.9203830    -0.8957560    -0.0000150
units angstrom
no_reorient  #important for SAPT in psi4, default
symmetry c1  #important for SAPT in psi4, default
}

set PROPERTIES_ORIGIN ["COM"]
properties('MP2/aug-cc-pvtz', properties = ['dipole'])
--------------------------------------------------------------------------

    Molecular point group: c1
  Charge       = 0
  Multiplicity = 1
  Basis Set: AUG-CC-PVTZ
    Blend: AUG-CC-PVTZ
  Basis Set: (AUG-CC-PVTZ AUX)
    Blend: AUG-CC-PVTZ-JKFIT

    Orbital Energies [Eh]
    ---------------------

    Doubly Occupied:

       1A    -20.561054     2A    -20.549156     3A    -11.338684
       4A    -11.338573     5A    -11.261221     6A    -11.251522
       7A    -11.249884     8A    -11.232068     9A     -1.385829
      10A     -1.379586    11A     -1.099252    12A     -1.033163
      13A     -0.976858    14A     -0.870907    15A     -0.777610
      16A     -0.740226    17A     -0.676166    18A     -0.666735
      19A     -0.657746    20A     -0.624442    21A     -0.616416
      22A     -0.603786    23A     -0.572626    24A     -0.545273
      25A     -0.508844    26A     -0.508218    27A     -0.501444
      28A     -0.488876    29A     -0.485280    30A     -0.431714
      31A     -0.413655

  @DF-RHF Final Energy:  -382.87057865050986

   => Energetics <=

    Nuclear Repulsion Energy =            352.5076732043912671
    One-Electron Energy =               -1220.0628767833093207
    Two-Electron Energy =                 484.6846249284081978
    Total Energy =                       -382.8705786505098558
  Basis Set: (AUG-CC-PVTZ AUX)
    Blend: AUG-CC-PVTZ-RI
    Molecular point group: c1

    Geometry (in Angstrom), charge = 0, multiplicity = 1:

       Center              X                  Y                   Z               Mass
    ------------   -----------------  -----------------  -----------------  -----------------
         O            1.926187999837     1.379137299974    -0.000010048952    15.994914619570
         O           -3.138681000163     0.923969299974     0.000016951048    15.994914619570
         C           -0.477547000163    -0.028460700026    -0.000012048952    12.000000000000
         C            0.852072999837    -0.769520700026     0.000017951048    12.000000000000
         C           -1.659036000163    -0.988126700026    -0.000014048952    12.000000000000
         C            2.054759999837     0.157937299974     0.000000951048    12.000000000000
         C            3.418001999837    -0.499788700026     0.000001951048    12.000000000000
         C           -2.995751000163    -0.291537700026    -0.000003048952    12.000000000000
         H           -0.534934000163     0.630768299974     0.870398951048     1.007825032230
         H           -0.534908000163     0.630740299974    -0.870445048952     1.007825032230
         H            0.933917999837    -1.432418700026    -0.873552048952     1.007825032230
         H            0.933906999837    -1.432362700026     0.873631951048     1.007825032230
         H           -1.634692000163    -1.656543700026     0.873556951048     1.007825032230
         H           -1.634698000163    -1.656532700026    -0.873593048952     1.007825032230
         H            3.532265999837    -1.138530700026    -0.881860048952     1.007825032230
         H            3.532276999837    -1.138498700026     0.881885951048     1.007825032230
         H            4.333462699837     0.409837899974    -0.000019348952     1.007825032230
         H           -3.882360000163    -0.959893700026    -0.000015048952     1.007825032230

  Basis Set: AUG-CC-PVTZ
    Blend: AUG-CC-PVTZ
  Basis Set: (AUG-CC-PVTZ AUX)
    Blend: AUG-CC-PVTZ-JKFIT
	 Reference Energy          =    -382.8705786505098558 [Eh]
	 Singles Energy            =      -0.0000000000000000 [Eh]
	 Same-Spin Energy          =      -0.3796028610536615 [Eh]
	 Opposite-Spin Energy      =      -1.2564481196155084 [Eh]
	 Correlation Energy        =      -1.6360509806691699 [Eh]
	 Total Energy              =    -384.5066296311790097 [Eh]

	 ================> DF-SCS-MP2 Energies <==================
	-----------------------------------------------------------
	 SCS Same-Spin Scale       =       0.3333333333333333 [-]
	 SCS Opposite-Spin Scale   =       1.2000000000000000 [-]
	 SCS Same-Spin Energy      =      -0.1265342870178872 [Eh]
	 SCS Opposite-Spin Energy  =      -1.5077377435386101 [Eh]
	 SCS Correlation Energy    =      -1.6342720305564973 [Eh]
	 SCS Total Energy          =    -384.5048506810663298 [Eh]
	-----------------------------------------------------------

  Dipole Moment: [D]
     X:     1.0303      Y:    -5.1720      Z:    -0.0000     Total:     5.2736

*** Psi4 exiting successfully. Buy a developer a beer!
