                               Psi4 1.4a3.dev225

  ==> Input File <==

--------------------------------------------------------------------------
#psi4
#
memory 32 gb

molecule  {
0 1
  O        1.8881650     1.4432750    -0.0000100
  O       -3.1767040     0.9881070     0.0000170
  C       -0.5155700     0.0356770    -0.0000120
  C        0.8140500    -0.7053830     0.0000180
  C       -1.6970590    -0.9239890    -0.0000140
  C        2.0219722     0.1723498     0.0000014
  C        3.3799790    -0.4356510     0.0000020
  C       -3.0337740    -0.2274000    -0.0000030
  H       -0.5729570     0.6949060     0.8703990
  H       -0.5729310     0.6948780    -0.8704450
  H        0.8958950    -1.3682810    -0.8735520
  H        0.8958840    -1.3682250     0.8736320
  H       -1.6727150    -1.5924060     0.8735570
  H       -1.6727210    -1.5923950    -0.8735930
  H        3.4942430    -1.0743930    -0.8818600
  H        3.4942540    -1.0743610     0.8818860
  H        4.1535670     0.3330070    -0.0000160
  H       -3.9203830    -0.8957560    -0.0000150
units angstrom
no_reorient  #important for SAPT in psi4, default
symmetry c1  #important for SAPT in psi4, default
}

set PROPERTIES_ORIGIN ["COM"]
properties('MP2/aug-cc-pvtz', properties = ['dipole'])
--------------------------------------------------------------------------

    Molecular point group: c1
  Charge       = 0
  Multiplicity = 1
  Basis Set: AUG-CC-PVTZ
    Blend: AUG-CC-PVTZ
  Basis Set: (AUG-CC-PVTZ AUX)
    Blend: AUG-CC-PVTZ-JKFIT

    Orbital Energies [Eh]
    ---------------------

    Doubly Occupied:

       1A    -20.560994     2A    -20.544475     3A    -11.341004
       4A    -11.338606     5A    -11.251664     6A    -11.250609
       7A    -11.243134     8A    -11.232297     9A     -1.385741
      10A     -1.347331    11A     -1.101078    12A     -1.043439
      13A     -0.988203    14A     -0.877649    15A     -0.777898
      16A     -0.742824    17A     -0.675736    18A     -0.667423
      19A     -0.653823    20A     -0.621694    21A     -0.616706
      22A     -0.611828    23A     -0.573647    24A     -0.556569
      25A     -0.521284    26A     -0.508193    27A     -0.506017
      28A     -0.487456    29A     -0.467151    30A     -0.431371
      31A     -0.418458

  @DF-RHF Final Energy:  -382.88211219106989

   => Energetics <=

    Nuclear Repulsion Energy =            352.9868770224234709
    One-Electron Energy =               -1221.0493813217253773
    Two-Electron Energy =                 485.1803921082320699
    Total Energy =                       -382.8821121910698935
  Basis Set: (AUG-CC-PVTZ AUX)
    Blend: AUG-CC-PVTZ-RI
    Molecular point group: c1

    Geometry (in Angstrom), charge = 0, multiplicity = 1:

       Center              X                  Y                   Z               Mass
    ------------   -----------------  -----------------  -----------------  -----------------
         O            1.926890742083     1.385613906634    -0.000010120188    15.994914619570
         O           -3.137978257917     0.930445906634     0.000016879812    15.994914619570
         C           -0.476844257917    -0.021984093366    -0.000012120188    12.000000000000
         C            0.852775742083    -0.763044093366     0.000017879812    12.000000000000
         C           -1.658333257917    -0.981650093366    -0.000014120188    12.000000000000
         C            2.060697942083     0.114688706634     0.000001279812    12.000000000000
         C            3.418704742083    -0.493312093366     0.000001879812    12.000000000000
         C           -2.995048257917    -0.285061093366    -0.000003120188    12.000000000000
         H           -0.534231257917     0.637244906634     0.870398879812     1.007825032230
         H           -0.534205257917     0.637216906634    -0.870445120188     1.007825032230
         H            0.934620742083    -1.425942093366    -0.873552120188     1.007825032230
         H            0.934609742083    -1.425886093366     0.873631879812     1.007825032230
         H           -1.633989257917    -1.650067093366     0.873556879812     1.007825032230
         H           -1.633995257917    -1.650056093366    -0.873593120188     1.007825032230
         H            3.532968742083    -1.132054093366    -0.881860120188     1.007825032230
         H            3.532979742083    -1.132022093366     0.881885879812     1.007825032230
         H            4.192292742083     0.275345906634    -0.000016120188     1.007825032230
         H           -3.881657257917    -0.953417093366    -0.000015120188     1.007825032230

  Basis Set: AUG-CC-PVTZ
    Blend: AUG-CC-PVTZ
  Basis Set: (AUG-CC-PVTZ AUX)
    Blend: AUG-CC-PVTZ-JKFIT
	 Reference Energy          =    -382.8821121910698935 [Eh]
	 Singles Energy            =      -0.0000000000000000 [Eh]
	 Same-Spin Energy          =      -0.3810715259657315 [Eh]
	 Opposite-Spin Energy      =      -1.2578715745846569 [Eh]
	 Correlation Energy        =      -1.6389431005503883 [Eh]
	 Total Energy              =    -384.5210552916202573 [Eh]

	 ================> DF-SCS-MP2 Energies <==================
	-----------------------------------------------------------
	 SCS Same-Spin Scale       =       0.3333333333333333 [-]
	 SCS Opposite-Spin Scale   =       1.2000000000000000 [-]
	 SCS Same-Spin Energy      =      -0.1270238419885771 [Eh]
	 SCS Opposite-Spin Energy  =      -1.5094458895015883 [Eh]
	 SCS Correlation Energy    =      -1.6364697314901655 [Eh]
	 SCS Total Energy          =    -384.5185819225600312 [Eh]
	-----------------------------------------------------------

  Dipole Moment: [D]
     X:     1.1479      Y:    -5.3552      Z:    -0.0000     Total:     5.4768

*** Psi4 exiting successfully. Buy a developer a beer!
