                               Psi4 1.4a3.dev225

  ==> Input File <==

--------------------------------------------------------------------------
#psi4
#
memory 32 gb

molecule  {
0 1
  O        1.8881650     1.4432750    -0.0000100
  O       -3.1767040     0.9881070     0.0000170
  C       -0.5155700     0.0356770    -0.0000120
  C        0.8140500    -0.7053830     0.0000180
  C       -1.6970590    -0.9239890    -0.0000140
  C        2.0167370     0.2220750     0.0000010
  C        3.3799790    -0.4356510     0.0000020
  C       -3.0337740    -0.2274000    -0.0000030
  H       -0.5729570     0.6949060     0.8703990
  H       -0.5729310     0.6948780    -0.8704450
  H        0.8958950    -1.3682810    -0.8735520
  H        0.8958840    -1.3682250     0.8736320
  H       -1.6727150    -1.5924060     0.8735570
  H       -1.6727210    -1.5923950    -0.8735930
  H        3.4890248    -1.0452231    -0.8415873
  H        3.4942540    -1.0743610     0.8818860
  H        4.1535670     0.3330070    -0.0000160
  H       -3.9203830    -0.8957560    -0.0000150
units angstrom
no_reorient  #important for SAPT in psi4, default
symmetry c1  #important for SAPT in psi4, default
}

set PROPERTIES_ORIGIN ["COM"]
properties('MP2/aug-cc-pvtz', properties = ['dipole'])
--------------------------------------------------------------------------

    Molecular point group: c1
  Charge       = 0
  Multiplicity = 1
  Basis Set: AUG-CC-PVTZ
    Blend: AUG-CC-PVTZ
  Basis Set: (AUG-CC-PVTZ AUX)
    Blend: AUG-CC-PVTZ-JKFIT

    Orbital Energies [Eh]
    ---------------------

    Doubly Occupied:

       1A    -20.560524     2A    -20.548442     3A    -11.338013
       4A    -11.336659     5A    -11.250785     6A    -11.247997
       7A    -11.234356     8A    -11.230990     9A     -1.385306
      10A     -1.379105    11A     -1.098330    12A     -1.037835
      13A     -0.985281    14A     -0.873737    15A     -0.777215
      16A     -0.742944    17A     -0.676006    18A     -0.665960
      19A     -0.658284    20A     -0.625511    21A     -0.617545
      22A     -0.611382    23A     -0.574497    24A     -0.564231
      25A     -0.519162    26A     -0.508463    27A     -0.507075
      28A     -0.488663    29A     -0.484649    30A     -0.430968
      31A     -0.412289

  @DF-RHF Final Energy:  -382.89046179138398

   => Energetics <=

    Nuclear Repulsion Energy =            353.4934366061044102
    One-Electron Energy =               -1222.0233873701990888
    Two-Electron Energy =                 485.6394889727106943
    Total Energy =                       -382.8904617913839843
  Basis Set: (AUG-CC-PVTZ AUX)
    Blend: AUG-CC-PVTZ-RI
    Molecular point group: c1

    Geometry (in Angstrom), charge = 0, multiplicity = 1:

       Center              X                  Y                   Z               Mass
    ------------   -----------------  -----------------  -----------------  -----------------
         O            1.927487591201     1.380125074370    -0.000365899257    15.994914619570
         O           -3.137381408799     0.924957074370    -0.000338899257    15.994914619570
         C           -0.476247408799    -0.027472925630    -0.000367899257    12.000000000000
         C            0.853372591201    -0.768532925630    -0.000337899257    12.000000000000
         C           -1.657736408799    -0.987138925630    -0.000369899257    12.000000000000
         C            2.056059591201     0.158925074370    -0.000354899257    12.000000000000
         C            3.419301591201    -0.498800925630    -0.000353899257    12.000000000000
         C           -2.994451408799    -0.290549925630    -0.000358899257    12.000000000000
         H           -0.533634408799     0.631756074370     0.870043100743     1.007825032230
         H           -0.533608408799     0.631728074370    -0.870800899257     1.007825032230
         H            0.935217591201    -1.431430925630    -0.873907899257     1.007825032230
         H            0.935206591201    -1.431374925630     0.873276100743     1.007825032230
         H           -1.633392408799    -1.655555925630     0.873201100743     1.007825032230
         H           -1.633398408799    -1.655544925630    -0.873948899257     1.007825032230
         H            3.528347391201    -1.108373025630    -0.841943199257     1.007825032230
         H            3.533576591201    -1.137510925630     0.881530100743     1.007825032230
         H            4.192889591201     0.269857074370    -0.000371899257     1.007825032230
         H           -3.881060408799    -0.958905925630    -0.000370899257     1.007825032230

  Basis Set: AUG-CC-PVTZ
    Blend: AUG-CC-PVTZ
  Basis Set: (AUG-CC-PVTZ AUX)
    Blend: AUG-CC-PVTZ-JKFIT
	 Reference Energy          =    -382.8904617913839843 [Eh]
	 Singles Energy            =      -0.0000000000000000 [Eh]
	 Same-Spin Energy          =      -0.3794886130073070 [Eh]
	 Opposite-Spin Energy      =      -1.2544201413304432 [Eh]
	 Correlation Energy        =      -1.6339087543377502 [Eh]
	 Total Energy              =    -384.5243705457217516 [Eh]

	 ================> DF-SCS-MP2 Energies <==================
	-----------------------------------------------------------
	 SCS Same-Spin Scale       =       0.3333333333333333 [-]
	 SCS Opposite-Spin Scale   =       1.2000000000000000 [-]
	 SCS Same-Spin Energy      =      -0.1264962043357690 [Eh]
	 SCS Opposite-Spin Energy  =      -1.5053041695965319 [Eh]
	 SCS Correlation Energy    =      -1.6318003739323008 [Eh]
	 SCS Total Energy          =    -384.5222621653163060 [Eh]
	-----------------------------------------------------------

  Dipole Moment: [D]
     X:     1.1391      Y:    -5.1646      Z:    -0.0097     Total:     5.2887

*** Psi4 exiting successfully. Buy a developer a beer!
