                               Psi4 1.4a3.dev225

  ==> Input File <==

--------------------------------------------------------------------------
#psi4
#
memory 32 gb

molecule  {
0 1
  O        1.8881650     1.4432750    -0.0000100
  O       -3.1767040     0.9881070     0.0000170
  C       -0.5155700     0.0356770    -0.0000120
  C        0.8140500    -0.7053830     0.0000180
  C       -1.7141793    -0.9014407    -0.0449720
  C        2.0167370     0.2220750     0.0000010
  C        3.3799790    -0.4356510     0.0000020
  C       -3.0337740    -0.2274000    -0.0000030
  H       -0.5729570     0.6949060     0.8703990
  H       -0.5729310     0.6948780    -0.8704450
  H        0.8958950    -1.3682810    -0.8735520
  H        0.8958840    -1.3682250     0.8736320
  H       -1.6727150    -1.5924060     0.8735570
  H       -1.6727210    -1.5923950    -0.8735930
  H        3.4942430    -1.0743930    -0.8818600
  H        3.4942540    -1.0743610     0.8818860
  H        4.1535670     0.3330070    -0.0000160
  H       -3.9203830    -0.8957560    -0.0000150
units angstrom
no_reorient  #important for SAPT in psi4, default
symmetry c1  #important for SAPT in psi4, default
}

set PROPERTIES_ORIGIN ["COM"]
properties('MP2/aug-cc-pvtz', properties = ['dipole'])
--------------------------------------------------------------------------

    Molecular point group: c1
  Charge       = 0
  Multiplicity = 1
  Basis Set: AUG-CC-PVTZ
    Blend: AUG-CC-PVTZ
  Basis Set: (AUG-CC-PVTZ AUX)
    Blend: AUG-CC-PVTZ-JKFIT

    Orbital Energies [Eh]
    ---------------------

    Doubly Occupied:

       1A    -20.559531     2A    -20.549101     3A    -11.337602
       4A    -11.336948     5A    -11.252211     6A    -11.248727
       7A    -11.240745     8A    -11.231408     9A     -1.385486
      10A     -1.379735    11A     -1.098822    12A     -1.037107
      13A     -0.985094    14A     -0.875241    15A     -0.775599
      16A     -0.742561    17A     -0.679852    18A     -0.664272
      19A     -0.657228    20A     -0.625321    21A     -0.615704
      22A     -0.611488    23A     -0.571222    24A     -0.562880
      25A     -0.520731    26A     -0.507672    27A     -0.506291
      28A     -0.486554    29A     -0.480186    30A     -0.432647
      31A     -0.414101

  @DF-RHF Final Energy:  -382.88865479954887

   => Energetics <=

    Nuclear Repulsion Energy =            353.4702042511405011
    One-Electron Energy =               -1221.9735832482981550
    Two-Electron Energy =                 485.6147241976087230
    Total Energy =                       -382.8886547995488741
  Basis Set: (AUG-CC-PVTZ AUX)
    Blend: AUG-CC-PVTZ-RI
    Molecular point group: c1

    Geometry (in Angstrom), charge = 0, multiplicity = 1:

       Center              X                  Y                   Z               Mass
    ------------   -----------------  -----------------  -----------------  -----------------
         O            1.929242548137     1.378010710338     0.004719518481    15.994914619570
         O           -3.135626451863     0.922842710338     0.004746518481    15.994914619570
         C           -0.474492451863    -0.029587289662     0.004717518481    12.000000000000
         C            0.855127548137    -0.770647289662     0.004747518481    12.000000000000
         C           -1.673101751863    -0.966704989662    -0.040242481519    12.000000000000
         C            2.057814548137     0.156810710338     0.004730518481    12.000000000000
         C            3.421056548137    -0.500915289662     0.004731518481    12.000000000000
         C           -2.992696451863    -0.292664289662     0.004726518481    12.000000000000
         H           -0.531879451863     0.629641710338     0.875128518481     1.007825032230
         H           -0.531853451863     0.629613710338    -0.865715481519     1.007825032230
         H            0.936972548137    -1.433545289662    -0.868822481519     1.007825032230
         H            0.936961548137    -1.433489289662     0.878361518481     1.007825032230
         H           -1.631637451863    -1.657670289662     0.878286518481     1.007825032230
         H           -1.631643451863    -1.657659289662    -0.868863481519     1.007825032230
         H            3.535320548137    -1.139657289662    -0.877130481519     1.007825032230
         H            3.535331548137    -1.139625289662     0.886615518481     1.007825032230
         H            4.194644548137     0.267742710338     0.004713518481     1.007825032230
         H           -3.879305451863    -0.961020289662     0.004714518481     1.007825032230

  Basis Set: AUG-CC-PVTZ
    Blend: AUG-CC-PVTZ
  Basis Set: (AUG-CC-PVTZ AUX)
    Blend: AUG-CC-PVTZ-JKFIT
	 Reference Energy          =    -382.8886547995488741 [Eh]
	 Singles Energy            =      -0.0000000000000000 [Eh]
	 Same-Spin Energy          =      -0.3796780083371397 [Eh]
	 Opposite-Spin Energy      =      -1.2549071216245271 [Eh]
	 Correlation Energy        =      -1.6345851299616667 [Eh]
	 Total Energy              =    -384.5232399295105665 [Eh]

	 ================> DF-SCS-MP2 Energies <==================
	-----------------------------------------------------------
	 SCS Same-Spin Scale       =       0.3333333333333333 [-]
	 SCS Opposite-Spin Scale   =       1.2000000000000000 [-]
	 SCS Same-Spin Energy      =      -0.1265593361123799 [Eh]
	 SCS Opposite-Spin Energy  =      -1.5058885459494324 [Eh]
	 SCS Correlation Energy    =      -1.6324478820618122 [Eh]
	 SCS Total Energy          =    -384.5211026816106710 [Eh]
	-----------------------------------------------------------

  Dipole Moment: [D]
     X:     1.1906      Y:    -5.1721      Z:    -0.0389     Total:     5.3075

*** Psi4 exiting successfully. Buy a developer a beer!
