                               Psi4 1.4a3.dev225

  ==> Input File <==

--------------------------------------------------------------------------
#psi4
#
memory 32 gb

molecule  {
0 1
  O        1.8881650     1.4432750    -0.0000100
  O       -3.1767040     0.9881070     0.0000170
  C       -0.5155700     0.0356770    -0.0000120
  C        0.8140500    -0.7053830     0.0000180
  C       -1.6970590    -0.9239890    -0.0000140
  C        2.0167370     0.2220750     0.0000010
  C        3.3799790    -0.4356510     0.0000020
  C       -3.0337740    -0.2274000    -0.0000030
  H       -0.5740067     0.7069645     0.8863204
  H       -0.5729310     0.6948780    -0.8704450
  H        0.8958950    -1.3682810    -0.8735520
  H        0.8958840    -1.3682250     0.8736320
  H       -1.6727150    -1.5924060     0.8735570
  H       -1.6727210    -1.5923950    -0.8735930
  H        3.4942430    -1.0743930    -0.8818600
  H        3.4942540    -1.0743610     0.8818860
  H        4.1535670     0.3330070    -0.0000160
  H       -3.9203830    -0.8957560    -0.0000150
units angstrom
no_reorient  #important for SAPT in psi4, default
symmetry c1  #important for SAPT in psi4, default
}

set PROPERTIES_ORIGIN ["COM"]
properties('MP2/aug-cc-pvtz', properties = ['dipole'])
--------------------------------------------------------------------------

    Molecular point group: c1
  Charge       = 0
  Multiplicity = 1
  Basis Set: AUG-CC-PVTZ
    Blend: AUG-CC-PVTZ
  Basis Set: (AUG-CC-PVTZ AUX)
    Blend: AUG-CC-PVTZ-JKFIT

    Orbital Energies [Eh]
    ---------------------

    Doubly Occupied:

       1A    -20.560493     2A    -20.548764     3A    -11.337999
       4A    -11.337068     5A    -11.250935     6A    -11.248115
       7A    -11.240413     8A    -11.233283     9A     -1.385265
      10A     -1.379385    11A     -1.097767    12A     -1.035714
      13A     -0.983088    14A     -0.872019    15A     -0.776496
      16A     -0.741843    17A     -0.675891    18A     -0.664802
      19A     -0.657089    20A     -0.624926    21A     -0.614764
      22A     -0.611577    23A     -0.570752    24A     -0.563618
      25A     -0.519180    26A     -0.507839    27A     -0.505809
      28A     -0.487851    29A     -0.483696    30A     -0.431005
      31A     -0.412511

  @DF-RHF Final Energy:  -382.89088970429412

   => Energetics <=

    Nuclear Repulsion Energy =            353.1883958369263041
    One-Electron Energy =               -1221.4386506618864132
    Two-Electron Energy =                 485.3593651206660411
    Total Energy =                       -382.8908897042941248
  Basis Set: (AUG-CC-PVTZ AUX)
    Blend: AUG-CC-PVTZ-RI
    Molecular point group: c1

    Geometry (in Angstrom), charge = 0, multiplicity = 1:

       Center              X                  Y                   Z               Mass
    ------------   -----------------  -----------------  -----------------  -----------------
         O            1.927450761277     1.380276258622    -0.000150748360    15.994914619570
         O           -3.137418238723     0.925108258622    -0.000123748360    15.994914619570
         C           -0.476284238723    -0.027321741378    -0.000152748360    12.000000000000
         C            0.853335761277    -0.768381741378    -0.000122748360    12.000000000000
         C           -1.657773238723    -0.986987741378    -0.000154748360    12.000000000000
         C            2.056022761277     0.159076258622    -0.000139748360    12.000000000000
         C            3.419264761277    -0.498649741378    -0.000138748360    12.000000000000
         C           -2.994488238723    -0.290398741378    -0.000143748360    12.000000000000
         H           -0.534720938723     0.643965758622     0.886179651640     1.007825032230
         H           -0.533645238723     0.631879258622    -0.870585748360     1.007825032230
         H            0.935180761277    -1.431279741378    -0.873692748360     1.007825032230
         H            0.935169761277    -1.431223741378     0.873491251640     1.007825032230
         H           -1.633429238723    -1.655404741378     0.873416251640     1.007825032230
         H           -1.633435238723    -1.655393741378    -0.873733748360     1.007825032230
         H            3.533528761277    -1.137391741378    -0.882000748360     1.007825032230
         H            3.533539761277    -1.137359741378     0.881745251640     1.007825032230
         H            4.192852761277     0.270008258622    -0.000156748360     1.007825032230
         H           -3.881097238723    -0.958754741378    -0.000155748360     1.007825032230

  Basis Set: AUG-CC-PVTZ
    Blend: AUG-CC-PVTZ
  Basis Set: (AUG-CC-PVTZ AUX)
    Blend: AUG-CC-PVTZ-JKFIT
	 Reference Energy          =    -382.8908897042941248 [Eh]
	 Singles Energy            =      -0.0000000000000000 [Eh]
	 Same-Spin Energy          =      -0.3794979545161724 [Eh]
	 Opposite-Spin Energy      =      -1.2548297546550593 [Eh]
	 Correlation Energy        =      -1.6343277091712318 [Eh]
	 Total Energy              =    -384.5252174134653842 [Eh]

	 ================> DF-SCS-MP2 Energies <==================
	-----------------------------------------------------------
	 SCS Same-Spin Scale       =       0.3333333333333333 [-]
	 SCS Opposite-Spin Scale   =       1.2000000000000000 [-]
	 SCS Same-Spin Energy      =      -0.1264993181720575 [Eh]
	 SCS Opposite-Spin Energy  =      -1.5057957055860711 [Eh]
	 SCS Correlation Energy    =      -1.6322950237581286 [Eh]
	 SCS Total Energy          =    -384.5231847280522288 [Eh]
	-----------------------------------------------------------

  Dipole Moment: [D]
     X:     1.1385      Y:    -5.1577      Z:    -0.0053     Total:     5.2819

*** Psi4 exiting successfully. Buy a developer a beer!
