                               Psi4 1.4a3.dev225

  ==> Input File <==

--------------------------------------------------------------------------
#psi4
#
memory 32 gb

molecule  {
0 1
  O        1.8881650     1.4432750    -0.0000100
  O       -3.1767040     0.9881070     0.0000170
  C       -0.4606374     0.1266214    -0.0000141
  C        0.8140500    -0.7053830     0.0000180
  C       -1.6970590    -0.9239890    -0.0000140
  C        2.0167370     0.2220750     0.0000010
  C        3.3799790    -0.4356510     0.0000020
  C       -3.0337740    -0.2274000    -0.0000030
  H       -0.5729570     0.6949060     0.8703990
  H       -0.5729310     0.6948780    -0.8704450
  H        0.8958950    -1.3682810    -0.8735520
  H        0.8958840    -1.3682250     0.8736320
  H       -1.6727150    -1.5924060     0.8735570
  H       -1.6727210    -1.5923950    -0.8735930
  H        3.4942430    -1.0743930    -0.8818600
  H        3.4942540    -1.0743610     0.8818860
  H        4.1535670     0.3330070    -0.0000160
  H       -3.9203830    -0.8957560    -0.0000150
units angstrom
no_reorient  #important for SAPT in psi4, default
symmetry c1  #important for SAPT in psi4, default
}

set PROPERTIES_ORIGIN ["COM"]
properties('MP2/aug-cc-pvtz', properties = ['dipole'])
--------------------------------------------------------------------------

    Molecular point group: c1
  Charge       = 0
  Multiplicity = 1
  Basis Set: AUG-CC-PVTZ
    Blend: AUG-CC-PVTZ
  Basis Set: (AUG-CC-PVTZ AUX)
    Blend: AUG-CC-PVTZ-JKFIT

    Orbital Energies [Eh]
    ---------------------

    Doubly Occupied:

       1A    -20.558625     2A    -20.548687     3A    -11.336044
       4A    -11.335593     5A    -11.251445     6A    -11.248575
       7A    -11.239525     8A    -11.230183     9A     -1.383509
      10A     -1.379808    11A     -1.090454    12A     -1.030785
      13A     -0.982750    14A     -0.875803    15A     -0.777702
      16A     -0.740870    17A     -0.672112    18A     -0.669252
      19A     -0.655425    20A     -0.626190    21A     -0.612907
      22A     -0.608041    23A     -0.573229    24A     -0.561528
      25A     -0.521251    26A     -0.520465    27A     -0.495943
      28A     -0.487275    29A     -0.486985    30A     -0.428553
      31A     -0.409316

  @DF-RHF Final Energy:  -382.88202708097077

   => Energetics <=

    Nuclear Repulsion Energy =            352.8980098221064168
    One-Electron Energy =               -1220.8824091405813306
    Two-Electron Energy =                 485.1023722375041984
    Total Energy =                       -382.8820270809707722
  Basis Set: (AUG-CC-PVTZ AUX)
    Blend: AUG-CC-PVTZ-RI
    Molecular point group: c1

    Geometry (in Angstrom), charge = 0, multiplicity = 1:

       Center              X                  Y                   Z               Mass
    ------------   -----------------  -----------------  -----------------  -----------------
         O            1.921662559034     1.370815417815    -0.000009857187    15.994914619570
         O           -3.143206440966     0.915647417815     0.000017142813    15.994914619570
         C           -0.427139840966     0.054161817815    -0.000013957187    12.000000000000
         C            0.847547559034    -0.777842582185     0.000018142813    12.000000000000
         C           -1.663561440966    -0.996448582185    -0.000013857187    12.000000000000
         C            2.050234559034     0.149615417815     0.000001142813    12.000000000000
         C            3.413476559034    -0.508110582185     0.000002142813    12.000000000000
         C           -3.000276440966    -0.299859582185    -0.000002857187    12.000000000000
         H           -0.539459440966     0.622446417815     0.870399142813     1.007825032230
         H           -0.539433440966     0.622418417815    -0.870444857187     1.007825032230
         H            0.929392559034    -1.440740582185    -0.873551857187     1.007825032230
         H            0.929381559034    -1.440684582185     0.873632142813     1.007825032230
         H           -1.639217440966    -1.664865582185     0.873557142813     1.007825032230
         H           -1.639223440966    -1.664854582185    -0.873592857187     1.007825032230
         H            3.527740559034    -1.146852582185    -0.881859857187     1.007825032230
         H            3.527751559034    -1.146820582185     0.881886142813     1.007825032230
         H            4.187064559034     0.260547417815    -0.000015857187     1.007825032230
         H           -3.886885440966    -0.968215582185    -0.000014857187     1.007825032230

  Basis Set: AUG-CC-PVTZ
    Blend: AUG-CC-PVTZ
  Basis Set: (AUG-CC-PVTZ AUX)
    Blend: AUG-CC-PVTZ-JKFIT
	 Reference Energy          =    -382.8820270809707722 [Eh]
	 Singles Energy            =      -0.0000000000000000 [Eh]
	 Same-Spin Energy          =      -0.3791704936455591 [Eh]
	 Opposite-Spin Energy      =      -1.2546333318953498 [Eh]
	 Correlation Energy        =      -1.6338038255409089 [Eh]
	 Total Energy              =    -384.5158309065116669 [Eh]

	 ================> DF-SCS-MP2 Energies <==================
	-----------------------------------------------------------
	 SCS Same-Spin Scale       =       0.3333333333333333 [-]
	 SCS Opposite-Spin Scale   =       1.2000000000000000 [-]
	 SCS Same-Spin Energy      =      -0.1263901645485197 [Eh]
	 SCS Opposite-Spin Energy  =      -1.5055599982744197 [Eh]
	 SCS Correlation Energy    =      -1.6319501628229394 [Eh]
	 SCS Total Energy          =    -384.5139772437937040 [Eh]
	-----------------------------------------------------------

  Dipole Moment: [D]
     X:     1.1833      Y:    -5.1388      Z:    -0.0000     Total:     5.2733

*** Psi4 exiting successfully. Buy a developer a beer!
