                               Psi4 1.4a3.dev225

  ==> Input File <==

--------------------------------------------------------------------------
#psi4
#
memory 32 gb

molecule  {
0 1
  O        1.8881650     1.4432750    -0.0000100
  O       -3.1767040     0.9881070     0.0000170
  C       -0.5155700     0.0356770    -0.0000120
  C        0.8383473    -0.6541683     0.0898800
  C       -1.6970590    -0.9239890    -0.0000140
  C        2.0167370     0.2220750     0.0000010
  C        3.3799790    -0.4356510     0.0000020
  C       -3.0337740    -0.2274000    -0.0000030
  H       -0.5729570     0.6949060     0.8703990
  H       -0.5729310     0.6948780    -0.8704450
  H        0.8958950    -1.3682810    -0.8735520
  H        0.8958840    -1.3682250     0.8736320
  H       -1.6727150    -1.5924060     0.8735570
  H       -1.6727210    -1.5923950    -0.8735930
  H        3.4942430    -1.0743930    -0.8818600
  H        3.4942540    -1.0743610     0.8818860
  H        4.1535670     0.3330070    -0.0000160
  H       -3.9203830    -0.8957560    -0.0000150
units angstrom
no_reorient  #important for SAPT in psi4, default
symmetry c1  #important for SAPT in psi4, default
}

set PROPERTIES_ORIGIN ["COM"]
properties('MP2/aug-cc-pvtz', properties = ['dipole'])
--------------------------------------------------------------------------

    Molecular point group: c1
  Charge       = 0
  Multiplicity = 1
  Basis Set: AUG-CC-PVTZ
    Blend: AUG-CC-PVTZ
  Basis Set: (AUG-CC-PVTZ AUX)
    Blend: AUG-CC-PVTZ-JKFIT

    Orbital Energies [Eh]
    ---------------------

    Doubly Occupied:

       1A    -20.561253     2A    -20.547234     3A    -11.339150
       4A    -11.335211     5A    -11.252433     6A    -11.251744
       7A    -11.240550     8A    -11.232199     9A     -1.386035
      10A     -1.380299    11A     -1.099738    12A     -1.039195
      13A     -0.984531    14A     -0.877036    15A     -0.778353
      16A     -0.744500    17A     -0.676890    18A     -0.666817
      19A     -0.657348    20A     -0.626821    21A     -0.615777
      22A     -0.612116    23A     -0.569133    24A     -0.562122
      25A     -0.524820    26A     -0.512026    27A     -0.501437
      28A     -0.488345    29A     -0.469401    30A     -0.431957
      31A     -0.417294

  @DF-RHF Final Energy:  -382.88104699004788

   => Energetics <=

    Nuclear Repulsion Energy =            353.7594129145842885
    One-Electron Energy =               -1222.5173880300053497
    Two-Electron Energy =                 485.8769281253731265
    Total Energy =                       -382.8810469900478779
  Basis Set: (AUG-CC-PVTZ AUX)
    Blend: AUG-CC-PVTZ-RI
    Molecular point group: c1

    Geometry (in Angstrom), charge = 0, multiplicity = 1:

       Center              X                  Y                   Z               Mass
    ------------   -----------------  -----------------  -----------------  -----------------
         O            1.924885402808     1.374994995501    -0.009463590468    15.994914619570
         O           -3.139983597192     0.919826995501    -0.009436590468    15.994914619570
         C           -0.478849597192    -0.032603004499    -0.009465590468    12.000000000000
         C            0.875067702808    -0.722448304499     0.080426409532    12.000000000000
         C           -1.660338597192    -0.992269004499    -0.009467590468    12.000000000000
         C            2.053457402808     0.153794995501    -0.009452590468    12.000000000000
         C            3.416699402808    -0.503931004499    -0.009451590468    12.000000000000
         C           -2.997053597192    -0.295680004499    -0.009456590468    12.000000000000
         H           -0.536236597192     0.626625995501     0.860945409532     1.007825032230
         H           -0.536210597192     0.626597995501    -0.879898590468     1.007825032230
         H            0.932615402808    -1.436561004499    -0.883005590468     1.007825032230
         H            0.932604402808    -1.436505004499     0.864178409532     1.007825032230
         H           -1.635994597192    -1.660686004499     0.864103409532     1.007825032230
         H           -1.636000597192    -1.660675004499    -0.883046590468     1.007825032230
         H            3.530963402808    -1.142673004499    -0.891313590468     1.007825032230
         H            3.530974402808    -1.142641004499     0.872432409532     1.007825032230
         H            4.190287402808     0.264726995501    -0.009469590468     1.007825032230
         H           -3.883662597192    -0.964036004499    -0.009468590468     1.007825032230

  Basis Set: AUG-CC-PVTZ
    Blend: AUG-CC-PVTZ
  Basis Set: (AUG-CC-PVTZ AUX)
    Blend: AUG-CC-PVTZ-JKFIT
	 Reference Energy          =    -382.8810469900478779 [Eh]
	 Singles Energy            =      -0.0000000000000000 [Eh]
	 Same-Spin Energy          =      -0.3799515640764835 [Eh]
	 Opposite-Spin Energy      =      -1.2555015919110049 [Eh]
	 Correlation Energy        =      -1.6354531559874883 [Eh]
	 Total Energy              =    -384.5165001460353551 [Eh]

	 ================> DF-SCS-MP2 Energies <==================
	-----------------------------------------------------------
	 SCS Same-Spin Scale       =       0.3333333333333333 [-]
	 SCS Opposite-Spin Scale   =       1.2000000000000000 [-]
	 SCS Same-Spin Energy      =      -0.1266505213588278 [Eh]
	 SCS Opposite-Spin Energy  =      -1.5066019102932058 [Eh]
	 SCS Correlation Energy    =      -1.6332524316520336 [Eh]
	 SCS Total Energy          =    -384.5142994216998886 [Eh]
	-----------------------------------------------------------

  Dipole Moment: [D]
     X:     1.0438      Y:    -5.1875      Z:     0.0760     Total:     5.2920

*** Psi4 exiting successfully. Buy a developer a beer!
