                               Psi4 1.4a3.dev225

  ==> Input File <==

--------------------------------------------------------------------------
#psi4
#
memory 32 gb

molecule  {
0 1
  O        1.8881650     1.4432750    -0.0000100
  O       -3.1767040     0.9881070     0.0000170
  C       -0.5155700     0.0356770    -0.0000120
  C        0.8140500    -0.7053830     0.0000180
  C       -1.6970590    -0.9239890    -0.0000140
  C        2.0167370     0.2220750     0.0000010
  C        3.3799790    -0.4356510     0.0000020
  C       -3.0337740    -0.2274000    -0.0000030
  H       -0.5729570     0.6949060     0.8703990
  H       -0.5729310     0.6948780    -0.8704450
  H        0.8958950    -1.3682810    -0.8735520
  H        0.8958840    -1.3682250     0.8736320
  H       -1.6727150    -1.5924060     0.8735570
  H       -1.6727210    -1.5923950    -0.8735930
  H        3.4942430    -1.0743930    -0.8818600
  H        3.4942540    -1.0743610     0.8818860
  H        4.0116943     0.1920384    -0.0000127
  H       -3.9203830    -0.8957560    -0.0000150
units angstrom
no_reorient  #important for SAPT in psi4, default
symmetry c1  #important for SAPT in psi4, default
}

set PROPERTIES_ORIGIN ["COM"]
properties('MP2/aug-cc-pvtz', properties = ['dipole'])
--------------------------------------------------------------------------

    Molecular point group: c1
  Charge       = 0
  Multiplicity = 1
  Basis Set: AUG-CC-PVTZ
    Blend: AUG-CC-PVTZ
  Basis Set: (AUG-CC-PVTZ AUX)
    Blend: AUG-CC-PVTZ-JKFIT

    Orbital Energies [Eh]
    ---------------------

    Doubly Occupied:

       1A    -20.560219     2A    -20.548991     3A    -11.337687
       4A    -11.336335     5A    -11.250353     6A    -11.246733
       7A    -11.230324     8A    -11.217554     9A     -1.385006
      10A     -1.379776    11A     -1.097861    12A     -1.046370
      13A     -0.993855    14A     -0.877472    15A     -0.777280
      16A     -0.747129    17A     -0.676515    18A     -0.664983
      19A     -0.657968    20A     -0.639799    21A     -0.619935
      22A     -0.614140    23A     -0.578951    24A     -0.570113
      25A     -0.523927    26A     -0.507678    27A     -0.506490
      28A     -0.488174    29A     -0.484359    30A     -0.430669
      31A     -0.411854

  @DF-RHF Final Energy:  -382.85677121534258

   => Energetics <=

    Nuclear Repulsion Energy =            354.2700935087469247
    One-Electron Energy =               -1223.4367245452654061
    Two-Electron Energy =                 486.3098598211759622
    Total Energy =                       -382.8567712153425759
  Basis Set: (AUG-CC-PVTZ AUX)
    Blend: AUG-CC-PVTZ-RI
    Molecular point group: c1

    Geometry (in Angstrom), charge = 0, multiplicity = 1:

       Center              X                  Y                   Z               Mass
    ------------   -----------------  -----------------  -----------------  -----------------
         O            1.928694973900     1.381628298058    -0.000010107264    15.994914619570
         O           -3.136174026100     0.926460298058     0.000016892736    15.994914619570
         C           -0.475040026100    -0.025969701942    -0.000012107264    12.000000000000
         C            0.854579973900    -0.767029701942     0.000017892736    12.000000000000
         C           -1.656529026100    -0.985635701942    -0.000014107264    12.000000000000
         C            2.057266973900     0.160428298058     0.000000892736    12.000000000000
         C            3.420508973900    -0.497297701942     0.000001892736    12.000000000000
         C           -2.993244026100    -0.289046701942    -0.000003107264    12.000000000000
         H           -0.532427026100     0.633259298058     0.870398892736     1.007825032230
         H           -0.532401026100     0.633231298058    -0.870445107264     1.007825032230
         H            0.936424973900    -1.429927701942    -0.873552107264     1.007825032230
         H            0.936413973900    -1.429871701942     0.873631892736     1.007825032230
         H           -1.632185026100    -1.654052701942     0.873556892736     1.007825032230
         H           -1.632191026100    -1.654041701942    -0.873593107264     1.007825032230
         H            3.534772973900    -1.136039701942    -0.881860107264     1.007825032230
         H            3.534783973900    -1.136007701942     0.881885892736     1.007825032230
         H            4.052224273900     0.130391698058    -0.000012807264     1.007825032230
         H           -3.879853026100    -0.957402701942    -0.000015107264     1.007825032230

  Basis Set: AUG-CC-PVTZ
    Blend: AUG-CC-PVTZ
  Basis Set: (AUG-CC-PVTZ AUX)
    Blend: AUG-CC-PVTZ-JKFIT
	 Reference Energy          =    -382.8567712153425759 [Eh]
	 Singles Energy            =      -0.0000000000000000 [Eh]
	 Same-Spin Energy          =      -0.3795302713533770 [Eh]
	 Opposite-Spin Energy      =      -1.2540533250913395 [Eh]
	 Correlation Energy        =      -1.6335835964447165 [Eh]
	 Total Energy              =    -384.4903548117873129 [Eh]

	 ================> DF-SCS-MP2 Energies <==================
	-----------------------------------------------------------
	 SCS Same-Spin Scale       =       0.3333333333333333 [-]
	 SCS Opposite-Spin Scale   =       1.2000000000000000 [-]
	 SCS Same-Spin Energy      =      -0.1265100904511257 [Eh]
	 SCS Opposite-Spin Energy  =      -1.5048639901096073 [Eh]
	 SCS Correlation Energy    =      -1.6313740805607329 [Eh]
	 SCS Total Energy          =    -384.4881452959033368 [Eh]
	-----------------------------------------------------------

  Dipole Moment: [D]
     X:     1.1947      Y:    -5.1568      Z:    -0.0000     Total:     5.2934

*** Psi4 exiting successfully. Buy a developer a beer!
