                               Psi4 1.4a3.dev225

  ==> Input File <==

--------------------------------------------------------------------------
#psi4
#
memory 32 gb

molecule  {
0 1
  O        1.8881650     1.4432750    -0.0000100
  O       -3.1767040     0.9881070     0.0000170
  C       -0.5155700     0.0356770    -0.0000120
  C        0.8140500    -0.7053830     0.0000180
  C       -1.7489068    -1.0155367    -0.0000156
  C        2.0167370     0.2220750     0.0000010
  C        3.3799790    -0.4356510     0.0000020
  C       -3.0337740    -0.2274000    -0.0000030
  H       -0.5729570     0.6949060     0.8703990
  H       -0.5729310     0.6948780    -0.8704450
  H        0.8958950    -1.3682810    -0.8735520
  H        0.8958840    -1.3682250     0.8736320
  H       -1.6727150    -1.5924060     0.8735570
  H       -1.6727210    -1.5923950    -0.8735930
  H        3.4942430    -1.0743930    -0.8818600
  H        3.4942540    -1.0743610     0.8818860
  H        4.1535670     0.3330070    -0.0000160
  H       -3.9203830    -0.8957560    -0.0000150
units angstrom
no_reorient  #important for SAPT in psi4, default
symmetry c1  #important for SAPT in psi4, default
}

set PROPERTIES_ORIGIN ["COM"]
properties('MP2/aug-cc-pvtz', properties = ['dipole'])
--------------------------------------------------------------------------

    Molecular point group: c1
  Charge       = 0
  Multiplicity = 1
  Basis Set: AUG-CC-PVTZ
    Blend: AUG-CC-PVTZ
  Basis Set: (AUG-CC-PVTZ AUX)
    Blend: AUG-CC-PVTZ-JKFIT

    Orbital Energies [Eh]
    ---------------------

    Doubly Occupied:

       1A    -20.563673     2A    -20.548323     3A    -11.339047
       4A    -11.336326     5A    -11.246673     6A    -11.246653
       7A    -11.239896     8A    -11.235251     9A     -1.385966
      10A     -1.378931    11A     -1.089820    12A     -1.035011
      13A     -0.985771    14A     -0.867110    15A     -0.784060
      16A     -0.740136    17A     -0.672468    18A     -0.668745
      19A     -0.655642    20A     -0.626861    21A     -0.622462
      22A     -0.613624    23A     -0.576245    24A     -0.560510
      25A     -0.511813    26A     -0.508808    27A     -0.498958
      28A     -0.492970    29A     -0.484942    30A     -0.429397
      31A     -0.409826

  @DF-RHF Final Energy:  -382.88152212891993

   => Energetics <=

    Nuclear Repulsion Energy =            352.0303390632099081
    One-Electron Energy =               -1219.1118840726685448
    Two-Electron Energy =                 484.2000228805387110
    Total Energy =                       -382.8815221289199258
  Basis Set: (AUG-CC-PVTZ AUX)
    Blend: AUG-CC-PVTZ-RI
    Molecular point group: c1

    Geometry (in Angstrom), charge = 0, multiplicity = 1:

       Center              X                  Y                   Z               Mass
    ------------   -----------------  -----------------  -----------------  -----------------
         O            1.932895892715     1.390013647578    -0.000009909787    15.994914619570
         O           -3.131973107285     0.934845647578     0.000017090213    15.994914619570
         C           -0.470839107285    -0.017584352422    -0.000011909787    12.000000000000
         C            0.858780892715    -0.758644352422     0.000018090213    12.000000000000
         C           -1.704175907285    -1.068798052422    -0.000015509787    12.000000000000
         C            2.061467892715     0.168813647578     0.000001090213    12.000000000000
         C            3.424709892715    -0.488912352422     0.000002090213    12.000000000000
         C           -2.989043107285    -0.280661352422    -0.000002909787    12.000000000000
         H           -0.528226107285     0.641644647578     0.870399090213     1.007825032230
         H           -0.528200107285     0.641616647578    -0.870444909787     1.007825032230
         H            0.940625892715    -1.421542352422    -0.873551909787     1.007825032230
         H            0.940614892715    -1.421486352422     0.873632090213     1.007825032230
         H           -1.627984107285    -1.645667352422     0.873557090213     1.007825032230
         H           -1.627990107285    -1.645656352422    -0.873592909787     1.007825032230
         H            3.538973892715    -1.127654352422    -0.881859909787     1.007825032230
         H            3.538984892715    -1.127622352422     0.881886090213     1.007825032230
         H            4.198297892715     0.279745647578    -0.000015909787     1.007825032230
         H           -3.875652107285    -0.949017352422    -0.000014909787     1.007825032230

  Basis Set: AUG-CC-PVTZ
    Blend: AUG-CC-PVTZ
  Basis Set: (AUG-CC-PVTZ AUX)
    Blend: AUG-CC-PVTZ-JKFIT
	 Reference Energy          =    -382.8815221289199258 [Eh]
	 Singles Energy            =      -0.0000000000000000 [Eh]
	 Same-Spin Energy          =      -0.3790839662923525 [Eh]
	 Opposite-Spin Energy      =      -1.2549355757123690 [Eh]
	 Correlation Energy        =      -1.6340195420047214 [Eh]
	 Total Energy              =    -384.5155416709246197 [Eh]

	 ================> DF-SCS-MP2 Energies <==================
	-----------------------------------------------------------
	 SCS Same-Spin Scale       =       0.3333333333333333 [-]
	 SCS Opposite-Spin Scale   =       1.2000000000000000 [-]
	 SCS Same-Spin Energy      =      -0.1263613220974508 [Eh]
	 SCS Opposite-Spin Energy  =      -1.5059226908548429 [Eh]
	 SCS Correlation Energy    =      -1.6322840129522938 [Eh]
	 SCS Total Energy          =    -384.5138061418722373 [Eh]
	-----------------------------------------------------------

  Dipole Moment: [D]
     X:     1.1095      Y:    -5.1410      Z:    -0.0000     Total:     5.2594

*** Psi4 exiting successfully. Buy a developer a beer!
