                               Psi4 1.4a3.dev225

  ==> Input File <==

--------------------------------------------------------------------------
#psi4
#
memory 32 gb

molecule  {
0 1
  O        1.8881650     1.4432750    -0.0000100
  O       -3.1767040     0.9881070     0.0000170
  C       -0.5640248    -0.0588778    -0.0000097
  C        0.8140500    -0.7053830     0.0000180
  C       -1.6970590    -0.9239890    -0.0000140
  C        2.0167370     0.2220750     0.0000010
  C        3.3799790    -0.4356510     0.0000020
  C       -3.0337740    -0.2274000    -0.0000030
  H       -0.5729570     0.6949060     0.8703990
  H       -0.5729310     0.6948780    -0.8704450
  H        0.8958950    -1.3682810    -0.8735520
  H        0.8958840    -1.3682250     0.8736320
  H       -1.6727150    -1.5924060     0.8735570
  H       -1.6727210    -1.5923950    -0.8735930
  H        3.4942430    -1.0743930    -0.8818600
  H        3.4942540    -1.0743610     0.8818860
  H        4.1535670     0.3330070    -0.0000160
  H       -3.9203830    -0.8957560    -0.0000150
units angstrom
no_reorient  #important for SAPT in psi4, default
symmetry c1  #important for SAPT in psi4, default
}

set PROPERTIES_ORIGIN ["COM"]
properties('MP2/aug-cc-pvtz', properties = ['dipole'])
--------------------------------------------------------------------------

    Molecular point group: c1
  Charge       = 0
  Multiplicity = 1
  Basis Set: AUG-CC-PVTZ
    Blend: AUG-CC-PVTZ
  Basis Set: (AUG-CC-PVTZ AUX)
    Blend: AUG-CC-PVTZ-JKFIT

    Orbital Energies [Eh]
    ---------------------

    Doubly Occupied:

       1A    -20.562272     2A    -20.549626     3A    -11.339963
       4A    -11.339334     5A    -11.248959     6A    -11.248546
       7A    -11.241716     8A    -11.234988     9A     -1.386872
      10A     -1.379899    11A     -1.110885    12A     -1.040767
      13A     -0.983928    14A     -0.872885    15A     -0.775105
      16A     -0.743508    17A     -0.680081    18A     -0.665650
      19A     -0.659192    20A     -0.624950    21A     -0.617397
      22A     -0.617309    23A     -0.569654    24A     -0.569175
      25A     -0.539669    26A     -0.506723    27A     -0.494780
      28A     -0.487507    29A     -0.460095    30A     -0.432975
      31A     -0.415232

  @DF-RHF Final Energy:  -382.87764979207776

   => Energetics <=

    Nuclear Repulsion Energy =            353.7203481198812369
    One-Electron Energy =               -1222.3967079772362467
    Two-Electron Energy =                 485.7987100652772483
    Total Energy =                       -382.8776497920777615
  Basis Set: (AUG-CC-PVTZ AUX)
    Blend: AUG-CC-PVTZ-RI
    Molecular point group: c1

    Geometry (in Angstrom), charge = 0, multiplicity = 1:

       Center              X                  Y                   Z               Mass
    ------------   -----------------  -----------------  -----------------  -----------------
         O            1.932538947984     1.390329995500    -0.000010320069    15.994914619570
         O           -3.132330052016     0.935161995500     0.000016679931    15.994914619570
         C           -0.519650852016    -0.111822804500    -0.000010020069    12.000000000000
         C            0.858423947984    -0.758328004500     0.000017679931    12.000000000000
         C           -1.652685052016    -0.976934004500    -0.000014320069    12.000000000000
         C            2.061110947984     0.169129995500     0.000000679931    12.000000000000
         C            3.424352947984    -0.488596004500     0.000001679931    12.000000000000
         C           -2.989400052016    -0.280345004500    -0.000003320069    12.000000000000
         H           -0.528583052016     0.641960995500     0.870398679931     1.007825032230
         H           -0.528557052016     0.641932995500    -0.870445320069     1.007825032230
         H            0.940268947984    -1.421226004500    -0.873552320069     1.007825032230
         H            0.940257947984    -1.421170004500     0.873631679931     1.007825032230
         H           -1.628341052016    -1.645351004500     0.873556679931     1.007825032230
         H           -1.628347052016    -1.645340004500    -0.873593320069     1.007825032230
         H            3.538616947984    -1.127338004500    -0.881860320069     1.007825032230
         H            3.538627947984    -1.127306004500     0.881885679931     1.007825032230
         H            4.197940947984     0.280061995500    -0.000016320069     1.007825032230
         H           -3.876009052016    -0.948701004500    -0.000015320069     1.007825032230

  Basis Set: AUG-CC-PVTZ
    Blend: AUG-CC-PVTZ
  Basis Set: (AUG-CC-PVTZ AUX)
    Blend: AUG-CC-PVTZ-JKFIT
	 Reference Energy          =    -382.8776497920777615 [Eh]
	 Singles Energy            =      -0.0000000000000000 [Eh]
	 Same-Spin Energy          =      -0.3806198002035924 [Eh]
	 Opposite-Spin Energy      =      -1.2563474926380760 [Eh]
	 Correlation Energy        =      -1.6369672928416685 [Eh]
	 Total Energy              =    -384.5146170849194505 [Eh]

	 ================> DF-SCS-MP2 Energies <==================
	-----------------------------------------------------------
	 SCS Same-Spin Scale       =       0.3333333333333333 [-]
	 SCS Opposite-Spin Scale   =       1.2000000000000000 [-]
	 SCS Same-Spin Energy      =      -0.1268732667345308 [Eh]
	 SCS Opposite-Spin Energy  =      -1.5076169911656911 [Eh]
	 SCS Correlation Energy    =      -1.6344902579002218 [Eh]
	 SCS Total Energy          =    -384.5121400499779725 [Eh]
	-----------------------------------------------------------

  Dipole Moment: [D]
     X:     1.1255      Y:    -5.1626      Z:    -0.0000     Total:     5.2838

*** Psi4 exiting successfully. Buy a developer a beer!
