                               Psi4 1.4a3.dev225

  ==> Input File <==

--------------------------------------------------------------------------
#psi4
#
memory 32 gb

molecule  {
0 1
  O        1.8881650     1.4432750    -0.0000100
  O       -3.1767040     0.9881070     0.0000170
  C       -0.5155700     0.0356770    -0.0000120
  C        0.8140500    -0.7053830     0.0000180
  C       -1.6970590    -0.9239890    -0.0000140
  C        1.9890047     0.1455134    -0.1359044
  C        3.3799790    -0.4356510     0.0000020
  C       -3.0337740    -0.2274000    -0.0000030
  H       -0.5729570     0.6949060     0.8703990
  H       -0.5729310     0.6948780    -0.8704450
  H        0.8958950    -1.3682810    -0.8735520
  H        0.8958840    -1.3682250     0.8736320
  H       -1.6727150    -1.5924060     0.8735570
  H       -1.6727210    -1.5923950    -0.8735930
  H        3.4942430    -1.0743930    -0.8818600
  H        3.4942540    -1.0743610     0.8818860
  H        4.1535670     0.3330070    -0.0000160
  H       -3.9203830    -0.8957560    -0.0000150
units angstrom
no_reorient  #important for SAPT in psi4, default
symmetry c1  #important for SAPT in psi4, default
}

set PROPERTIES_ORIGIN ["COM"]
properties('MP2/aug-cc-pvtz', properties = ['dipole'])
--------------------------------------------------------------------------

    Molecular point group: c1
  Charge       = 0
  Multiplicity = 1
  Basis Set: AUG-CC-PVTZ
    Blend: AUG-CC-PVTZ
  Basis Set: (AUG-CC-PVTZ AUX)
    Blend: AUG-CC-PVTZ-JKFIT

    Orbital Energies [Eh]
    ---------------------

    Doubly Occupied:

       1A    -20.561789     2A    -20.544524     3A    -11.344875
       4A    -11.339414     5A    -11.252735     6A    -11.252385
       7A    -11.244497     8A    -11.233983     9A     -1.386515
      10A     -1.330783    11A     -1.105588    12A     -1.043544
      13A     -0.987731    14A     -0.882451    15A     -0.779124
      16A     -0.744436    17A     -0.676128    18A     -0.670198
      19A     -0.651088    20A     -0.621551    21A     -0.616227
      22A     -0.607765    23A     -0.573452    24A     -0.552419
      25A     -0.522140    26A     -0.509556    27A     -0.506380
      28A     -0.488914    29A     -0.456029    30A     -0.431064
      31A     -0.419531

  @DF-RHF Final Energy:  -382.86336210549700

   => Energetics <=

    Nuclear Repulsion Energy =            352.8526100552511480
    One-Electron Energy =               -1220.7583137521603476
    Two-Electron Energy =                 485.0423415914121961
    Total Energy =                       -382.8633621054970035
  Basis Set: (AUG-CC-PVTZ AUX)
    Blend: AUG-CC-PVTZ-RI
    Molecular point group: c1

    Geometry (in Angstrom), charge = 0, multiplicity = 1:

       Center              X                  Y                   Z               Mass
    ------------   -----------------  -----------------  -----------------  -----------------
         O            1.930358934075     1.388437104861     0.014287215283    15.994914619570
         O           -3.134510065925     0.933269104861     0.014314215283    15.994914619570
         C           -0.473376065925    -0.019160895139     0.014285215283    12.000000000000
         C            0.856243934075    -0.760220895139     0.014315215283    12.000000000000
         C           -1.654865065925    -0.978826895139     0.014283215283    12.000000000000
         C            2.031198634075     0.090675504861    -0.121607184717    12.000000000000
         C            3.422172934075    -0.490488895139     0.014299215283    12.000000000000
         C           -2.991580065925    -0.282237895139     0.014294215283    12.000000000000
         H           -0.530763065925     0.640068104861     0.884696215283     1.007825032230
         H           -0.530737065925     0.640040104861    -0.856147784717     1.007825032230
         H            0.938088934075    -1.423118895139    -0.859254784717     1.007825032230
         H            0.938077934075    -1.423062895139     0.887929215283     1.007825032230
         H           -1.630521065925    -1.647243895139     0.887854215283     1.007825032230
         H           -1.630527065925    -1.647232895139    -0.859295784717     1.007825032230
         H            3.536436934075    -1.129230895139    -0.867562784717     1.007825032230
         H            3.536447934075    -1.129198895139     0.896183215283     1.007825032230
         H            4.195760934075     0.278169104861     0.014281215283     1.007825032230
         H           -3.878189065925    -0.950593895139     0.014282215283     1.007825032230

  Basis Set: AUG-CC-PVTZ
    Blend: AUG-CC-PVTZ
  Basis Set: (AUG-CC-PVTZ AUX)
    Blend: AUG-CC-PVTZ-JKFIT
	 Reference Energy          =    -382.8633621054970035 [Eh]
	 Singles Energy            =      -0.0000000000000000 [Eh]
	 Same-Spin Energy          =      -0.3824477959890209 [Eh]
	 Opposite-Spin Energy      =      -1.2612512665722575 [Eh]
	 Correlation Energy        =      -1.6436990625612784 [Eh]
	 Total Energy              =    -384.5070611680582715 [Eh]

	 ================> DF-SCS-MP2 Energies <==================
	-----------------------------------------------------------
	 SCS Same-Spin Scale       =       0.3333333333333333 [-]
	 SCS Opposite-Spin Scale   =       1.2000000000000000 [-]
	 SCS Same-Spin Energy      =      -0.1274825986630070 [Eh]
	 SCS Opposite-Spin Energy  =      -1.5135015198867090 [Eh]
	 SCS Correlation Energy    =      -1.6409841185497160 [Eh]
	 SCS Total Energy          =    -384.5043462240467420 [Eh]
	-----------------------------------------------------------

  Dipole Moment: [D]
     X:     0.9755      Y:    -5.4054      Z:    -0.0184     Total:     5.4927

*** Psi4 exiting successfully. Buy a developer a beer!
