                               Psi4 1.4a3.dev225

  ==> Input File <==

--------------------------------------------------------------------------
#psi4
#
memory 32 gb

molecule  {
0 1
  O        1.8881650     1.4432750    -0.0000100
  O       -3.1767040     0.9881070     0.0000170
  C       -0.5155700     0.0356770    -0.0000120
  C        0.8140500    -0.7053830     0.0000180
  C       -1.6970590    -0.9239890    -0.0000140
  C        2.0167370     0.2220750     0.0000010
  C        3.3799790    -0.4356510     0.0000020
  C       -3.0337740    -0.2274000    -0.0000030
  H       -0.5729570     0.6949060     0.8703990
  H       -0.5729310     0.6948780    -0.8704450
  H        0.8958950    -1.3682810    -0.8735520
  H        0.8958840    -1.3682250     0.8736320
  H       -1.6727150    -1.5924060     0.8735570
  H       -1.6727210    -1.5923950    -0.8735930
  H        3.4942430    -1.0743930    -0.8818600
  H        3.4942540    -1.0743610     0.8818860
  H        4.1535670     0.3330070    -0.0000160
  H       -3.9203830    -0.8957560    -0.0000150
units angstrom
no_reorient  #important for SAPT in psi4, default
symmetry c1  #important for SAPT in psi4, default
}

set PROPERTIES_ORIGIN ["COM"]
properties('MP2/aug-cc-pvtz', properties = ['dipole'])
--------------------------------------------------------------------------

    Molecular point group: c1
  Charge       = 0
  Multiplicity = 1
  Basis Set: AUG-CC-PVTZ
    Blend: AUG-CC-PVTZ
  Basis Set: (AUG-CC-PVTZ AUX)
    Blend: AUG-CC-PVTZ-JKFIT

    Orbital Energies [Eh]
    ---------------------

    Doubly Occupied:

       1A    -20.560522     2A    -20.548797     3A    -11.338011
       4A    -11.337078     5A    -11.250780     6A    -11.247957
       7A    -11.240404     8A    -11.230978     9A     -1.385305
      10A     -1.379425    11A     -1.098221    12A     -1.035713
      13A     -0.983142    14A     -0.873134    15A     -0.777152
      16A     -0.742002    17A     -0.675879    18A     -0.665613
      19A     -0.657123    20A     -0.625138    21A     -0.614818
      22A     -0.611554    23A     -0.570868    24A     -0.563593
      25A     -0.519047    26A     -0.508065    27A     -0.507077
      28A     -0.488304    29A     -0.484633    30A     -0.431020
      31A     -0.412506

  @DF-RHF Final Energy:  -382.89145508773635

   => Energetics <=

    Nuclear Repulsion Energy =            353.2793940673052475
    One-Electron Energy =               -1221.6139783892604100
    Two-Electron Energy =                 485.4431292342188158
    Total Energy =                       -382.8914550877363467
  Basis Set: (AUG-CC-PVTZ AUX)
    Blend: AUG-CC-PVTZ-RI
    Molecular point group: c1

    Geometry (in Angstrom), charge = 0, multiplicity = 1:

       Center              X                  Y                   Z               Mass
    ------------   -----------------  -----------------  -----------------  -----------------
         O            1.927441486869     1.380382799016    -0.000010078108    15.994914619570
         O           -3.137427513131     0.925214799016     0.000016921892    15.994914619570
         C           -0.476293513131    -0.027215200984    -0.000012078108    12.000000000000
         C            0.853326486869    -0.768275200984     0.000017921892    12.000000000000
         C           -1.657782513131    -0.986881200984    -0.000014078108    12.000000000000
         C            2.056013486869     0.159182799016     0.000000921892    12.000000000000
         C            3.419255486869    -0.498543200984     0.000001921892    12.000000000000
         C           -2.994497513131    -0.290292200984    -0.000003078108    12.000000000000
         H           -0.533680513131     0.632013799016     0.870398921892     1.007825032230
         H           -0.533654513131     0.631985799016    -0.870445078108     1.007825032230
         H            0.935171486869    -1.431173200984    -0.873552078108     1.007825032230
         H            0.935160486869    -1.431117200984     0.873631921892     1.007825032230
         H           -1.633438513131    -1.655298200984     0.873556921892     1.007825032230
         H           -1.633444513131    -1.655287200984    -0.873593078108     1.007825032230
         H            3.533519486869    -1.137285200984    -0.881860078108     1.007825032230
         H            3.533530486869    -1.137253200984     0.881885921892     1.007825032230
         H            4.192843486869     0.270114799016    -0.000016078108     1.007825032230
         H           -3.881106513131    -0.958648200984    -0.000015078108     1.007825032230

  Basis Set: AUG-CC-PVTZ
    Blend: AUG-CC-PVTZ
  Basis Set: (AUG-CC-PVTZ AUX)
    Blend: AUG-CC-PVTZ-JKFIT
	 Reference Energy          =    -382.8914550877363467 [Eh]
	 Singles Energy            =      -0.0000000000000000 [Eh]
	 Same-Spin Energy          =      -0.3794732603434262 [Eh]
	 Opposite-Spin Energy      =      -1.2546689401586151 [Eh]
	 Correlation Energy        =      -1.6341422005020414 [Eh]
	 Total Energy              =    -384.5255972882383730 [Eh]

	 ================> DF-SCS-MP2 Energies <==================
	-----------------------------------------------------------
	 SCS Same-Spin Scale       =       0.3333333333333333 [-]
	 SCS Opposite-Spin Scale   =       1.2000000000000000 [-]
	 SCS Same-Spin Energy      =      -0.1264910867811421 [Eh]
	 SCS Opposite-Spin Energy  =      -1.5056027281903381 [Eh]
	 SCS Correlation Energy    =      -1.6320938149714801 [Eh]
	 SCS Total Energy          =    -384.5235489027078302 [Eh]
	-----------------------------------------------------------

  Dipole Moment: [D]
     X:     1.1380      Y:    -5.1544      Z:    -0.0000     Total:     5.2785

*** Psi4 exiting successfully. Buy a developer a beer!
