                               Psi4 1.4a3.dev225

  ==> Input File <==

--------------------------------------------------------------------------
#psi4
#
memory 32 gb

molecule  {
0 1
  O        1.8881650     1.4432750    -0.0000100
  O       -3.1767040     0.9881070     0.0000170
  C       -0.5155700     0.0356770    -0.0000120
  C        0.8140500    -0.7053830     0.0000180
  C       -1.6970590    -0.9239890    -0.0000140
  C        2.0167370     0.2220750     0.0000010
  C        3.3799790    -0.4356510     0.0000020
  C       -3.0337740    -0.2274000    -0.0000030
  H       -0.5729570     0.6949060     0.8703990
  H       -0.5729310     0.6948780    -0.8704450
  H        0.8958950    -1.3682810    -0.8735520
  H        0.8958840    -1.3682250     0.8736320
  H       -1.6727150    -1.5924060     0.8735570
  H       -1.6727210    -1.5923950    -0.8735930
  H        3.4942430    -1.0743930    -0.8818600
  H        3.4942540    -1.0743610     0.8818860
  H        4.1890352     0.3682491    -0.0000168
  H       -3.9203830    -0.8957560    -0.0000150
units angstrom
no_reorient  #important for SAPT in psi4, default
symmetry c1  #important for SAPT in psi4, default
}

set PROPERTIES_ORIGIN ["COM"]
properties('MP2/aug-cc-pvtz', properties = ['dipole'])
--------------------------------------------------------------------------

    Molecular point group: c1
  Charge       = 0
  Multiplicity = 1
  Basis Set: AUG-CC-PVTZ
    Blend: AUG-CC-PVTZ
  Basis Set: (AUG-CC-PVTZ AUX)
    Blend: AUG-CC-PVTZ-JKFIT

    Orbital Energies [Eh]
    ---------------------

    Doubly Occupied:

       1A    -20.560634     2A    -20.548828     3A    -11.338130
       4A    -11.337400     5A    -11.250936     6A    -11.248375
       7A    -11.245910     8A    -11.231211     9A     -1.385415
      10A     -1.379410    11A     -1.098425    12A     -1.034607
      13A     -0.981095    14A     -0.872379    15A     -0.777221
      16A     -0.741296    17A     -0.675893    18A     -0.665848
      19A     -0.657189    20A     -0.624564    21A     -0.615132
      22A     -0.608747    23A     -0.571218    24A     -0.558252
      25A     -0.516442    26A     -0.508223    27A     -0.507282
      28A     -0.488404    29A     -0.484757    30A     -0.431161
      31A     -0.412753

  @DF-RHF Final Energy:  -382.88924952541345

   => Energetics <=

    Nuclear Repulsion Energy =            353.0700460633323701
    One-Electron Energy =               -1221.2043161661663362
    Two-Electron Energy =                 485.2450205774205187
    Total Energy =                       -382.8892495254134474
  Basis Set: (AUG-CC-PVTZ AUX)
    Blend: AUG-CC-PVTZ-RI
    Molecular point group: c1

    Geometry (in Angstrom), charge = 0, multiplicity = 1:

       Center              X                  Y                   Z               Mass
    ------------   -----------------  -----------------  -----------------  -----------------
         O            1.927128114890     1.380071424697    -0.000010071040    15.994914619570
         O           -3.137740885110     0.924903424697     0.000016928960    15.994914619570
         C           -0.476606885110    -0.027526575303    -0.000012071040    12.000000000000
         C            0.853013114890    -0.768586575303     0.000017928960    12.000000000000
         C           -1.658095885110    -0.987192575303    -0.000014071040    12.000000000000
         C            2.055700114890     0.158871424697     0.000000928960    12.000000000000
         C            3.418942114890    -0.498854575303     0.000001928960    12.000000000000
         C           -2.994810885110    -0.290603575303    -0.000003071040    12.000000000000
         H           -0.533993885110     0.631702424697     0.870398928960     1.007825032230
         H           -0.533967885110     0.631674424697    -0.870445071040     1.007825032230
         H            0.934858114890    -1.431484575303    -0.873552071040     1.007825032230
         H            0.934847114890    -1.431428575303     0.873631928960     1.007825032230
         H           -1.633751885110    -1.655609575303     0.873556928960     1.007825032230
         H           -1.633757885110    -1.655598575303    -0.873593071040     1.007825032230
         H            3.533206114890    -1.137596575303    -0.881860071040     1.007825032230
         H            3.533217114890    -1.137564575303     0.881885928960     1.007825032230
         H            4.227998314890     0.305045524697    -0.000016871040     1.007825032230
         H           -3.881419885110    -0.958959575303    -0.000015071040     1.007825032230

  Basis Set: AUG-CC-PVTZ
    Blend: AUG-CC-PVTZ
  Basis Set: (AUG-CC-PVTZ AUX)
    Blend: AUG-CC-PVTZ-JKFIT
	 Reference Energy          =    -382.8892495254134474 [Eh]
	 Singles Energy            =      -0.0000000000000000 [Eh]
	 Same-Spin Energy          =      -0.3794980862217387 [Eh]
	 Opposite-Spin Energy      =      -1.2550366524351813 [Eh]
	 Correlation Energy        =      -1.6345347386569200 [Eh]
	 Total Energy              =    -384.5237842640703434 [Eh]

	 ================> DF-SCS-MP2 Energies <==================
	-----------------------------------------------------------
	 SCS Same-Spin Scale       =       0.3333333333333333 [-]
	 SCS Opposite-Spin Scale   =       1.2000000000000000 [-]
	 SCS Same-Spin Energy      =      -0.1264993620739129 [Eh]
	 SCS Opposite-Spin Energy  =      -1.5060439829222174 [Eh]
	 SCS Correlation Energy    =      -1.6325433449961304 [Eh]
	 SCS Total Energy          =    -384.5217928704095698 [Eh]
	-----------------------------------------------------------

  Dipole Moment: [D]
     X:     1.1156      Y:    -5.1570      Z:    -0.0000     Total:     5.2763

*** Psi4 exiting successfully. Buy a developer a beer!
