                               Psi4 1.4a3.dev225

  ==> Input File <==

--------------------------------------------------------------------------
#psi4
#
memory 32 gb

molecule  {
0 1
  O        1.8881650     1.4432750    -0.0000100
  O       -3.1767040     0.9881070     0.0000170
  C       -0.4888974     0.0816286    -0.0000131
  C        0.8140500    -0.7053830     0.0000180
  C       -1.6970590    -0.9239890    -0.0000140
  C        2.0167370     0.2220750     0.0000010
  C        3.3799790    -0.4356510     0.0000020
  C       -3.0337740    -0.2274000    -0.0000030
  H       -0.5729570     0.6949060     0.8703990
  H       -0.5729310     0.6948780    -0.8704450
  H        0.8958950    -1.3682810    -0.8735520
  H        0.8958840    -1.3682250     0.8736320
  H       -1.6727150    -1.5924060     0.8735570
  H       -1.6727210    -1.5923950    -0.8735930
  H        3.4942430    -1.0743930    -0.8818600
  H        3.4942540    -1.0743610     0.8818860
  H        4.1535670     0.3330070    -0.0000160
  H       -3.9203830    -0.8957560    -0.0000150
units angstrom
no_reorient  #important for SAPT in psi4, default
symmetry c1  #important for SAPT in psi4, default
}

set PROPERTIES_ORIGIN ["COM"]
properties('MP2/aug-cc-pvtz', properties = ['dipole'])
--------------------------------------------------------------------------

    Molecular point group: c1
  Charge       = 0
  Multiplicity = 1
  Basis Set: AUG-CC-PVTZ
    Blend: AUG-CC-PVTZ
  Basis Set: (AUG-CC-PVTZ AUX)
    Blend: AUG-CC-PVTZ-JKFIT

    Orbital Energies [Eh]
    ---------------------

    Doubly Occupied:

       1A    -20.559605     2A    -20.548638     3A    -11.337042
       4A    -11.336227     5A    -11.251345     6A    -11.248067
       7A    -11.239904     8A    -11.230135     9A     -1.384444
      10A     -1.379492    11A     -1.093785    12A     -1.033207
      13A     -0.982913    14A     -0.874229    15A     -0.777626
      16A     -0.741369    17A     -0.673960    18A     -0.666979
      19A     -0.656181    20A     -0.625560    21A     -0.613764
      22A     -0.609619    23A     -0.571913    24A     -0.562177
      25A     -0.516819    26A     -0.512693    27A     -0.501319
      28A     -0.493589    29A     -0.486620    30A     -0.429834
      31A     -0.411025

  @DF-RHF Final Energy:  -382.88929193433165

   => Energetics <=

    Nuclear Repulsion Energy =            353.0816773434727907
    One-Electron Energy =               -1221.2417741357032810
    Two-Electron Energy =                 485.2708048578987814
    Total Energy =                       -382.8892919343316521
  Basis Set: (AUG-CC-PVTZ AUX)
    Blend: AUG-CC-PVTZ-RI
    Molecular point group: c1

    Geometry (in Angstrom), charge = 0, multiplicity = 1:

       Center              X                  Y                   Z               Mass
    ------------   -----------------  -----------------  -----------------  -----------------
         O            1.924635520456     1.375548675376    -0.000009962388    15.994914619570
         O           -3.140233479544     0.920380675376     0.000017037612    15.994914619570
         C           -0.452426879544     0.013902275376    -0.000013062388    12.000000000000
         C            0.850520520456    -0.773109324624     0.000018037612    12.000000000000
         C           -1.660588479544    -0.991715324624    -0.000013962388    12.000000000000
         C            2.053207520456     0.154348675376     0.000001037612    12.000000000000
         C            3.416449520456    -0.503377324624     0.000002037612    12.000000000000
         C           -2.997303479544    -0.295126324624    -0.000002962388    12.000000000000
         H           -0.536486479544     0.627179675376     0.870399037612     1.007825032230
         H           -0.536460479544     0.627151675376    -0.870444962388     1.007825032230
         H            0.932365520456    -1.436007324624    -0.873551962388     1.007825032230
         H            0.932354520456    -1.435951324624     0.873632037612     1.007825032230
         H           -1.636244479544    -1.660132324624     0.873557037612     1.007825032230
         H           -1.636250479544    -1.660121324624    -0.873592962388     1.007825032230
         H            3.530713520456    -1.142119324624    -0.881859962388     1.007825032230
         H            3.530724520456    -1.142087324624     0.881886037612     1.007825032230
         H            4.190037520456     0.265280675376    -0.000015962388     1.007825032230
         H           -3.883912479544    -0.963482324624    -0.000014962388     1.007825032230

  Basis Set: AUG-CC-PVTZ
    Blend: AUG-CC-PVTZ
  Basis Set: (AUG-CC-PVTZ AUX)
    Blend: AUG-CC-PVTZ-JKFIT
	 Reference Energy          =    -382.8892919343316521 [Eh]
	 Singles Energy            =      -0.0000000000000000 [Eh]
	 Same-Spin Energy          =      -0.3792195899095296 [Eh]
	 Opposite-Spin Energy      =      -1.2544517705385585 [Eh]
	 Correlation Energy        =      -1.6336713604480881 [Eh]
	 Total Energy              =    -384.5229632947797427 [Eh]

	 ================> DF-SCS-MP2 Energies <==================
	-----------------------------------------------------------
	 SCS Same-Spin Scale       =       0.3333333333333333 [-]
	 SCS Opposite-Spin Scale   =       1.2000000000000000 [-]
	 SCS Same-Spin Energy      =      -0.1264065299698432 [Eh]
	 SCS Opposite-Spin Energy  =      -1.5053421246462702 [Eh]
	 SCS Correlation Energy    =      -1.6317486546161133 [Eh]
	 SCS Total Energy          =    -384.5210405889477556 [Eh]
	-----------------------------------------------------------

  Dipole Moment: [D]
     X:     1.1560      Y:    -5.1481      Z:    -0.0000     Total:     5.2763

*** Psi4 exiting successfully. Buy a developer a beer!
