                               Psi4 1.4a3.dev225

  ==> Input File <==

--------------------------------------------------------------------------
#psi4
#
memory 32 gb

molecule  {
0 1
  O        1.8881650     1.4432750    -0.0000100
  O       -3.1767040     0.9881070     0.0000170
  C       -0.5155700     0.0356770    -0.0000120
  C        0.7832749    -0.7529873    -0.0898441
  C       -1.6970590    -0.9239890    -0.0000140
  C        2.0167370     0.2220750     0.0000010
  C        3.3799790    -0.4356510     0.0000020
  C       -3.0337740    -0.2274000    -0.0000030
  H       -0.5729570     0.6949060     0.8703990
  H       -0.5729310     0.6948780    -0.8704450
  H        0.8958950    -1.3682810    -0.8735520
  H        0.8958840    -1.3682250     0.8736320
  H       -1.6727150    -1.5924060     0.8735570
  H       -1.6727210    -1.5923950    -0.8735930
  H        3.4942430    -1.0743930    -0.8818600
  H        3.4942540    -1.0743610     0.8818860
  H        4.1535670     0.3330070    -0.0000160
  H       -3.9203830    -0.8957560    -0.0000150
units angstrom
no_reorient  #important for SAPT in psi4, default
symmetry c1  #important for SAPT in psi4, default
}

set PROPERTIES_ORIGIN ["COM"]
properties('MP2/aug-cc-pvtz', properties = ['dipole'])
--------------------------------------------------------------------------

    Molecular point group: c1
  Charge       = 0
  Multiplicity = 1
  Basis Set: AUG-CC-PVTZ
    Blend: AUG-CC-PVTZ
  Basis Set: (AUG-CC-PVTZ AUX)
    Blend: AUG-CC-PVTZ-JKFIT

    Orbital Energies [Eh]
    ---------------------

    Doubly Occupied:

       1A    -20.560024     2A    -20.550241     3A    -11.339711
       4A    -11.337080     5A    -11.249528     6A    -11.247027
       7A    -11.240490     8A    -11.231349     9A     -1.384811
      10A     -1.378886    11A     -1.097814    12A     -1.032408
      13A     -0.982634    14A     -0.871459    15A     -0.777145
      16A     -0.743320    17A     -0.677093    18A     -0.668212
      19A     -0.652451    20A     -0.624742    21A     -0.615401
      22A     -0.609780    23A     -0.575770    24A     -0.561070
      25A     -0.524828    26A     -0.511554    27A     -0.503705
      28A     -0.488632    29A     -0.483273    30A     -0.430100
      31A     -0.405876

  @DF-RHF Final Energy:  -382.87909805312972

   => Energetics <=

    Nuclear Repulsion Energy =            352.7651638752608392
    One-Electron Energy =               -1220.5756949911531137
    Two-Electron Energy =                 484.9314330627624940
    Total Energy =                       -382.8790980531297237
  Basis Set: (AUG-CC-PVTZ AUX)
    Blend: AUG-CC-PVTZ-RI
    Molecular point group: c1

    Geometry (in Angstrom), charge = 0, multiplicity = 1:

       Center              X                  Y                   Z               Mass
    ------------   -----------------  -----------------  -----------------  -----------------
         O            1.930679037649     1.385390787247     0.009443444772    15.994914619570
         O           -3.134189962351     0.930222787247     0.009470444772    15.994914619570
         C           -0.473055962351    -0.022207212753     0.009441444772    12.000000000000
         C            0.825788937649    -0.810871512753    -0.080390655228    12.000000000000
         C           -1.654544962351    -0.981873212753     0.009439444772    12.000000000000
         C            2.059251037649     0.164190787247     0.009454444772    12.000000000000
         C            3.422493037649    -0.493535212753     0.009455444772    12.000000000000
         C           -2.991259962351    -0.285284212753     0.009450444772    12.000000000000
         H           -0.530442962351     0.637021787247     0.879852444772     1.007825032230
         H           -0.530416962351     0.636993787247    -0.860991555228     1.007825032230
         H            0.938409037649    -1.426165212753    -0.864098555228     1.007825032230
         H            0.938398037649    -1.426109212753     0.883085444772     1.007825032230
         H           -1.630200962351    -1.650290212753     0.883010444772     1.007825032230
         H           -1.630206962351    -1.650279212753    -0.864139555228     1.007825032230
         H            3.536757037649    -1.132277212753    -0.872406555228     1.007825032230
         H            3.536768037649    -1.132245212753     0.891339444772     1.007825032230
         H            4.196081037649     0.275122787247     0.009437444772     1.007825032230
         H           -3.877868962351    -0.953640212753     0.009438444772     1.007825032230

  Basis Set: AUG-CC-PVTZ
    Blend: AUG-CC-PVTZ
  Basis Set: (AUG-CC-PVTZ AUX)
    Blend: AUG-CC-PVTZ-JKFIT
	 Reference Energy          =    -382.8790980531297237 [Eh]
	 Singles Energy            =      -0.0000000000000000 [Eh]
	 Same-Spin Energy          =      -0.3795024807935984 [Eh]
	 Opposite-Spin Energy      =      -1.2551639025196895 [Eh]
	 Correlation Energy        =      -1.6346663833132880 [Eh]
	 Total Energy              =    -384.5137644364430116 [Eh]

	 ================> DF-SCS-MP2 Energies <==================
	-----------------------------------------------------------
	 SCS Same-Spin Scale       =       0.3333333333333333 [-]
	 SCS Opposite-Spin Scale   =       1.2000000000000000 [-]
	 SCS Same-Spin Energy      =      -0.1265008269311995 [Eh]
	 SCS Opposite-Spin Energy  =      -1.5061966830236273 [Eh]
	 SCS Correlation Energy    =      -1.6326975099548267 [Eh]
	 SCS Total Energy          =    -384.5117955630845472 [Eh]
	-----------------------------------------------------------

  Dipole Moment: [D]
     X:     1.2155      Y:    -5.0943      Z:    -0.0639     Total:     5.2377

*** Psi4 exiting successfully. Buy a developer a beer!
