                               Psi4 1.4a3.dev225

  ==> Input File <==

--------------------------------------------------------------------------
#psi4
#
memory 32 gb

molecule  {
0 1
  O        1.8881650     1.4432750    -0.0000100
  O       -3.1767040     0.9881070     0.0000170
  C       -0.5155700     0.0356770    -0.0000120
  C        0.8140500    -0.7053830     0.0000180
  C       -1.6585227    -0.9655520     0.0898473
  C        2.0167370     0.2220750     0.0000010
  C        3.3799790    -0.4356510     0.0000020
  C       -3.0337740    -0.2274000    -0.0000030
  H       -0.5729570     0.6949060     0.8703990
  H       -0.5729310     0.6948780    -0.8704450
  H        0.8958950    -1.3682810    -0.8735520
  H        0.8958840    -1.3682250     0.8736320
  H       -1.6727150    -1.5924060     0.8735570
  H       -1.6727210    -1.5923950    -0.8735930
  H        3.4942430    -1.0743930    -0.8818600
  H        3.4942540    -1.0743610     0.8818860
  H        4.1535670     0.3330070    -0.0000160
  H       -3.9203830    -0.8957560    -0.0000150
units angstrom
no_reorient  #important for SAPT in psi4, default
symmetry c1  #important for SAPT in psi4, default
}

set PROPERTIES_ORIGIN ["COM"]
properties('MP2/aug-cc-pvtz', properties = ['dipole'])
--------------------------------------------------------------------------

    Molecular point group: c1
  Charge       = 0
  Multiplicity = 1
  Basis Set: AUG-CC-PVTZ
    Blend: AUG-CC-PVTZ
  Basis Set: (AUG-CC-PVTZ AUX)
    Blend: AUG-CC-PVTZ-JKFIT

    Orbital Energies [Eh]
    ---------------------

    Doubly Occupied:

       1A    -20.562226     2A    -20.548384     3A    -11.340602
       4A    -11.336210     5A    -11.250139     6A    -11.246760
       7A    -11.239862     8A    -11.231375     9A     -1.385046
      10A     -1.379002    11A     -1.097923    12A     -1.033572
      13A     -0.979761    14A     -0.869644    15A     -0.783783
      16A     -0.741225    17A     -0.674714    18A     -0.664464
      19A     -0.657127    20A     -0.626291    21A     -0.617403
      22A     -0.604817    23A     -0.574737    24A     -0.561953
      25A     -0.521990    26A     -0.512847    27A     -0.507719
      28A     -0.487137    29A     -0.483245    30A     -0.427645
      31A     -0.408056

  @DF-RHF Final Energy:  -382.87915037156512

   => Energetics <=

    Nuclear Repulsion Energy =            352.9006690469090017
    One-Electron Energy =               -1220.8483228221725767
    Two-Electron Energy =                 485.0685034036984575
    Total Energy =                       -382.8791503715651174
  Basis Set: (AUG-CC-PVTZ AUX)
    Blend: AUG-CC-PVTZ-RI
    Molecular point group: c1

    Geometry (in Angstrom), charge = 0, multiplicity = 1:

       Center              X                  Y                   Z               Mass
    ------------   -----------------  -----------------  -----------------  -----------------
         O            1.923387455261     1.384755240473    -0.009463516828    15.994914619570
         O           -3.141481544739     0.929587240473    -0.009436516828    15.994914619570
         C           -0.480347544739    -0.022842759527    -0.009465516828    12.000000000000
         C            0.849272455261    -0.763902759527    -0.009435516828    12.000000000000
         C           -1.623300244739    -1.024071759527     0.080393783172    12.000000000000
         C            2.051959455261     0.163555240473    -0.009452516828    12.000000000000
         C            3.415201455261    -0.494170759527    -0.009451516828    12.000000000000
         C           -2.998551544739    -0.285919759527    -0.009456516828    12.000000000000
         H           -0.537734544739     0.636386240473     0.860945483172     1.007825032230
         H           -0.537708544739     0.636358240473    -0.879898516828     1.007825032230
         H            0.931117455261    -1.426800759527    -0.883005516828     1.007825032230
         H            0.931106455261    -1.426744759527     0.864178483172     1.007825032230
         H           -1.637492544739    -1.650925759527     0.864103483172     1.007825032230
         H           -1.637498544739    -1.650914759527    -0.883046516828     1.007825032230
         H            3.529465455261    -1.132912759527    -0.891313516828     1.007825032230
         H            3.529476455261    -1.132880759527     0.872432483172     1.007825032230
         H            4.188789455261     0.274487240473    -0.009469516828     1.007825032230
         H           -3.885160544739    -0.954275759527    -0.009468516828     1.007825032230

  Basis Set: AUG-CC-PVTZ
    Blend: AUG-CC-PVTZ
  Basis Set: (AUG-CC-PVTZ AUX)
    Blend: AUG-CC-PVTZ-JKFIT
	 Reference Energy          =    -382.8791503715651174 [Eh]
	 Singles Energy            =      -0.0000000000000000 [Eh]
	 Same-Spin Energy          =      -0.3794453400727021 [Eh]
	 Opposite-Spin Energy      =      -1.2551451339678446 [Eh]
	 Correlation Energy        =      -1.6345904740405466 [Eh]
	 Total Energy              =    -384.5137408456056392 [Eh]

	 ================> DF-SCS-MP2 Energies <==================
	-----------------------------------------------------------
	 SCS Same-Spin Scale       =       0.3333333333333333 [-]
	 SCS Opposite-Spin Scale   =       1.2000000000000000 [-]
	 SCS Same-Spin Energy      =      -0.1264817800242340 [Eh]
	 SCS Opposite-Spin Energy  =      -1.5061741607614134 [Eh]
	 SCS Correlation Energy    =      -1.6326559407856474 [Eh]
	 SCS Total Energy          =    -384.5118063123507568 [Eh]
	-----------------------------------------------------------

  Dipole Moment: [D]
     X:     1.0477      Y:    -5.0995      Z:     0.0693     Total:     5.2065

*** Psi4 exiting successfully. Buy a developer a beer!
