                               Psi4 1.4a3.dev225

  ==> Input File <==

--------------------------------------------------------------------------
#psi4
#
memory 32 gb

molecule  {
0 1
  O        1.8881650     1.4432750    -0.0000100
  O       -3.1767040     0.9881070     0.0000170
  C       -0.5155700     0.0356770    -0.0000120
  C        0.8140500    -0.7053830     0.0000180
  C       -1.6970590    -0.9239890    -0.0000140
  C        2.0062665     0.3215253     0.0000001
  C        3.3799790    -0.4356510     0.0000020
  C       -3.0337740    -0.2274000    -0.0000030
  H       -0.5729570     0.6949060     0.8703990
  H       -0.5729310     0.6948780    -0.8704450
  H        0.8958950    -1.3682810    -0.8735520
  H        0.8958840    -1.3682250     0.8736320
  H       -1.6727150    -1.5924060     0.8735570
  H       -1.6727210    -1.5923950    -0.8735930
  H        3.4942430    -1.0743930    -0.8818600
  H        3.4942540    -1.0743610     0.8818860
  H        4.1535670     0.3330070    -0.0000160
  H       -3.9203830    -0.8957560    -0.0000150
units angstrom
no_reorient  #important for SAPT in psi4, default
symmetry c1  #important for SAPT in psi4, default
}

set PROPERTIES_ORIGIN ["COM"]
properties('MP2/aug-cc-pvtz', properties = ['dipole'])
--------------------------------------------------------------------------

    Molecular point group: c1
  Charge       = 0
  Multiplicity = 1
  Basis Set: AUG-CC-PVTZ
    Blend: AUG-CC-PVTZ
  Basis Set: (AUG-CC-PVTZ AUX)
    Blend: AUG-CC-PVTZ-JKFIT

    Orbital Energies [Eh]
    ---------------------

    Doubly Occupied:

       1A    -20.559528     2A    -20.557539     3A    -11.336748
       4A    -11.329553     5A    -11.248874     6A    -11.241713
       7A    -11.233920     8A    -11.228396     9A     -1.454119
      10A     -1.384372    11A     -1.092932    12A     -1.019724
      13A     -0.973272    14A     -0.864194    15A     -0.775685
      16A     -0.742722    17A     -0.678659    18A     -0.668907
      19A     -0.663309    20A     -0.637394    21A     -0.616592
      22A     -0.612655    23A     -0.567784    24A     -0.565450
      25A     -0.530946    26A     -0.520093    27A     -0.506375
      28A     -0.502708    29A     -0.484341    30A     -0.429122
      31A     -0.391146

  @DF-RHF Final Energy:  -382.88308843204129

   => Energetics <=

    Nuclear Repulsion Energy =            354.0537741242402490
    One-Electron Energy =               -1223.0361846586508818
    Two-Electron Energy =                 486.0993221023693422
    Total Energy =                       -382.8830884320412906
  Basis Set: (AUG-CC-PVTZ AUX)
    Blend: AUG-CC-PVTZ-RI
    Molecular point group: c1

    Geometry (in Angstrom), charge = 0, multiplicity = 1:

       Center              X                  Y                   Z               Mass
    ------------   -----------------  -----------------  -----------------  -----------------
         O            1.928542986960     1.369920594299    -0.000009983428    15.994914619570
         O           -3.136326013040     0.914752594299     0.000017016572    15.994914619570
         C           -0.475192013040    -0.037677405701    -0.000011983428    12.000000000000
         C            0.854427986960    -0.778737405701     0.000018016572    12.000000000000
         C           -1.656681013040    -0.997343405701    -0.000013983428    12.000000000000
         C            2.046644486960     0.248170894299     0.000000116572    12.000000000000
         C            3.420356986960    -0.509005405701     0.000002016572    12.000000000000
         C           -2.993396013040    -0.300754405701    -0.000002983428    12.000000000000
         H           -0.532579013040     0.621551594299     0.870399016572     1.007825032230
         H           -0.532553013040     0.621523594299    -0.870444983428     1.007825032230
         H            0.936272986960    -1.441635405701    -0.873551983428     1.007825032230
         H            0.936261986960    -1.441579405701     0.873632016572     1.007825032230
         H           -1.632337013040    -1.665760405701     0.873557016572     1.007825032230
         H           -1.632343013040    -1.665749405701    -0.873592983428     1.007825032230
         H            3.534620986960    -1.147747405701    -0.881859983428     1.007825032230
         H            3.534631986960    -1.147715405701     0.881886016572     1.007825032230
         H            4.193944986960     0.259652594299    -0.000015983428     1.007825032230
         H           -3.880005013040    -0.969110405701    -0.000014983428     1.007825032230

  Basis Set: AUG-CC-PVTZ
    Blend: AUG-CC-PVTZ
  Basis Set: (AUG-CC-PVTZ AUX)
    Blend: AUG-CC-PVTZ-JKFIT
	 Reference Energy          =    -382.8830884320412906 [Eh]
	 Singles Energy            =      -0.0000000000000000 [Eh]
	 Same-Spin Energy          =      -0.3769977750260651 [Eh]
	 Opposite-Spin Energy      =      -1.2494930748554101 [Eh]
	 Correlation Energy        =      -1.6264908498814752 [Eh]
	 Total Energy              =    -384.5095792819227540 [Eh]

	 ================> DF-SCS-MP2 Energies <==================
	-----------------------------------------------------------
	 SCS Same-Spin Scale       =       0.3333333333333333 [-]
	 SCS Opposite-Spin Scale   =       1.2000000000000000 [-]
	 SCS Same-Spin Energy      =      -0.1256659250086883 [Eh]
	 SCS Opposite-Spin Energy  =      -1.4993916898264921 [Eh]
	 SCS Correlation Energy    =      -1.6250576148351805 [Eh]
	 SCS Total Energy          =    -384.5081460468764476 [Eh]
	-----------------------------------------------------------

  Dipole Moment: [D]
     X:     1.1005      Y:    -4.6418      Z:    -0.0000     Total:     4.7705

*** Psi4 exiting successfully. Buy a developer a beer!
