                               Psi4 1.4a3.dev225

  ==> Input File <==

--------------------------------------------------------------------------
#psi4
#
memory 32 gb

molecule  {
0 1
  O        1.8881650     1.4432750    -0.0000100
  O       -3.1767040     0.9881070     0.0000170
  C       -0.5155700     0.0356770    -0.0000120
  C        0.8140500    -0.7053830     0.0000180
  C       -1.6970590    -0.9239890    -0.0000140
  C        2.0167370     0.2220750     0.0000010
  C        3.3799790    -0.4356510     0.0000020
  C       -3.0337740    -0.2274000    -0.0000030
  H       -0.5729570     0.6949060     0.8703990
  H       -0.5729310     0.6948780    -0.8704450
  H        0.8958950    -1.3682810    -0.8735520
  H        0.8958840    -1.3682250     0.8736320
  H       -1.6727150    -1.5924060     0.8735570
  H       -1.6727210    -1.5923950    -0.8735930
  H        3.4838066    -1.0160532    -0.8013147
  H        3.4942540    -1.0743610     0.8818860
  H        4.1535670     0.3330070    -0.0000160
  H       -3.9203830    -0.8957560    -0.0000150
units angstrom
no_reorient  #important for SAPT in psi4, default
symmetry c1  #important for SAPT in psi4, default
}

set PROPERTIES_ORIGIN ["COM"]
properties('MP2/aug-cc-pvtz', properties = ['dipole'])
--------------------------------------------------------------------------

    Molecular point group: c1
  Charge       = 0
  Multiplicity = 1
  Basis Set: AUG-CC-PVTZ
    Blend: AUG-CC-PVTZ
  Basis Set: (AUG-CC-PVTZ AUX)
    Blend: AUG-CC-PVTZ-JKFIT

    Orbital Energies [Eh]
    ---------------------

    Doubly Occupied:

       1A    -20.560532     2A    -20.548155     3A    -11.338020
       4A    -11.336300     5A    -11.250798     6A    -11.248051
       7A    -11.231012     8A    -11.228204     9A     -1.385312
      10A     -1.378844    11A     -1.098484    12A     -1.040595
      13A     -0.987642    14A     -0.874438    15A     -0.777302
      16A     -0.744161    17A     -0.676237    18A     -0.666581
      19A     -0.659704    20A     -0.626657    21A     -0.619875
      22A     -0.611215    23A     -0.577979    24A     -0.564310
      25A     -0.519279    26A     -0.508779    27A     -0.507084
      28A     -0.488949    29A     -0.484660    30A     -0.430932
      31A     -0.412113

  @DF-RHF Final Energy:  -382.88539816503277

   => Energetics <=

    Nuclear Repulsion Energy =            353.7222584796007254
    One-Electron Energy =               -1222.4509016746451380
    Two-Electron Energy =                 485.8432450300117011
    Total Energy =                       -382.8853981650327682
  Basis Set: (AUG-CC-PVTZ AUX)
    Blend: AUG-CC-PVTZ-RI
    Molecular point group: c1

    Geometry (in Angstrom), charge = 0, multiplicity = 1:

       Center              X                  Y                   Z               Mass
    ------------   -----------------  -----------------  -----------------  -----------------
         O            1.927533695532     1.379867349724    -0.000721719523    15.994914619570
         O           -3.137335304468     0.924699349724    -0.000694719523    15.994914619570
         C           -0.476201304468    -0.027730650276    -0.000723719523    12.000000000000
         C            0.853418695532    -0.768790650276    -0.000693719523    12.000000000000
         C           -1.657690304468    -0.987396650276    -0.000725719523    12.000000000000
         C            2.056105695532     0.158667349724    -0.000710719523    12.000000000000
         C            3.419347695532    -0.499058650276    -0.000709719523    12.000000000000
         C           -2.994405304468    -0.290807650276    -0.000714719523    12.000000000000
         H           -0.533588304468     0.631498349724     0.869687280477     1.007825032230
         H           -0.533562304468     0.631470349724    -0.871156719523     1.007825032230
         H            0.935263695532    -1.431688650276    -0.874263719523     1.007825032230
         H            0.935252695532    -1.431632650276     0.872920280477     1.007825032230
         H           -1.633346304468    -1.655813650276     0.872845280477     1.007825032230
         H           -1.633352304468    -1.655802650276    -0.874304719523     1.007825032230
         H            3.523175295532    -1.079460850276    -0.802026419523     1.007825032230
         H            3.533622695532    -1.137768650276     0.881174280477     1.007825032230
         H            4.192935695532     0.269599349724    -0.000727719523     1.007825032230
         H           -3.881014304468    -0.959163650276    -0.000726719523     1.007825032230

  Basis Set: AUG-CC-PVTZ
    Blend: AUG-CC-PVTZ
  Basis Set: (AUG-CC-PVTZ AUX)
    Blend: AUG-CC-PVTZ-JKFIT
	 Reference Energy          =    -382.8853981650327682 [Eh]
	 Singles Energy            =      -0.0000000000000000 [Eh]
	 Same-Spin Energy          =      -0.3795157108444712 [Eh]
	 Opposite-Spin Energy      =      -1.2542493235984828 [Eh]
	 Correlation Energy        =      -1.6337650344429542 [Eh]
	 Total Energy              =    -384.5191631994757131 [Eh]

	 ================> DF-SCS-MP2 Energies <==================
	-----------------------------------------------------------
	 SCS Same-Spin Scale       =       0.3333333333333333 [-]
	 SCS Opposite-Spin Scale   =       1.2000000000000000 [-]
	 SCS Same-Spin Energy      =      -0.1265052369481571 [Eh]
	 SCS Opposite-Spin Energy  =      -1.5050991883181795 [Eh]
	 SCS Correlation Energy    =      -1.6316044252663364 [Eh]
	 SCS Total Energy          =    -384.5170025902991142 [Eh]
	-----------------------------------------------------------

  Dipole Moment: [D]
     X:     1.1391      Y:    -5.1728      Z:    -0.0173     Total:     5.2968

*** Psi4 exiting successfully. Buy a developer a beer!
