                               Psi4 1.4a3.dev225

  ==> Input File <==

--------------------------------------------------------------------------
#psi4
#
memory 32 gb

molecule  {
0 1
  O        1.8881650     1.4432750    -0.0000100
  O       -3.1767040     0.9881070     0.0000170
  C       -0.5283008     0.0123591    -0.0000114
  C        0.8140500    -0.7053830     0.0000180
  C       -1.6970590    -0.9239890    -0.0000140
  C        2.0167370     0.2220750     0.0000010
  C        3.3799790    -0.4356510     0.0000020
  C       -3.0337740    -0.2274000    -0.0000030
  H       -0.5729570     0.6949060     0.8703990
  H       -0.5729310     0.6948780    -0.8704450
  H        0.8958950    -1.3682810    -0.8735520
  H        0.8958840    -1.3682250     0.8736320
  H       -1.6727150    -1.5924060     0.8735570
  H       -1.6727210    -1.5923950    -0.8735930
  H        3.4942430    -1.0743930    -0.8818600
  H        3.4942540    -1.0743610     0.8818860
  H        4.1535670     0.3330070    -0.0000160
  H       -3.9203830    -0.8957560    -0.0000150
units angstrom
no_reorient  #important for SAPT in psi4, default
symmetry c1  #important for SAPT in psi4, default
}

set PROPERTIES_ORIGIN ["COM"]
properties('MP2/aug-cc-pvtz', properties = ['dipole'])
--------------------------------------------------------------------------

    Molecular point group: c1
  Charge       = 0
  Multiplicity = 1
  Basis Set: AUG-CC-PVTZ
    Blend: AUG-CC-PVTZ
  Basis Set: (AUG-CC-PVTZ AUX)
    Blend: AUG-CC-PVTZ-JKFIT

    Orbital Energies [Eh]
    ---------------------

    Doubly Occupied:

       1A    -20.560965     2A    -20.548946     3A    -11.338492
       4A    -11.337578     5A    -11.250342     6A    -11.248054
       7A    -11.240695     8A    -11.231708     9A     -1.385712
      10A     -1.379474    11A     -1.100893    12A     -1.036980
      13A     -0.983292    14A     -0.872810    15A     -0.776766
      16A     -0.742359    17A     -0.676877    18A     -0.665278
      19A     -0.657633    20A     -0.625005    21A     -0.615410
      22A     -0.612716    23A     -0.570457    24A     -0.564622
      25A     -0.524476    26A     -0.507107    27A     -0.504810
      28A     -0.487493    29A     -0.480026    30A     -0.431570
      31A     -0.413204

  @DF-RHF Final Energy:  -382.89039095757062

   => Energetics <=

    Nuclear Repulsion Energy =            353.3838480395583588
    One-Electron Energy =               -1221.8049782633097493
    Two-Electron Energy =                 485.5307392661807171
    Total Energy =                       -382.8903909575706166
  Basis Set: (AUG-CC-PVTZ AUX)
    Blend: AUG-CC-PVTZ-RI
    Molecular point group: c1

    Geometry (in Angstrom), charge = 0, multiplicity = 1:

       Center              X                  Y                   Z               Mass
    ------------   -----------------  -----------------  -----------------  -----------------
         O            1.928780771273     1.382835849870    -0.000010141228    15.994914619570
         O           -3.136088228727     0.927667849870     0.000016858772    15.994914619570
         C           -0.487685028727    -0.048080050130    -0.000011541228    12.000000000000
         C            0.854665771273    -0.765822150130     0.000017858772    12.000000000000
         C           -1.656443228727    -0.984428150130    -0.000014141228    12.000000000000
         C            2.057352771273     0.161635849870     0.000000858772    12.000000000000
         C            3.420594771273    -0.496090150130     0.000001858772    12.000000000000
         C           -2.993158228727    -0.287839150130    -0.000003141228    12.000000000000
         H           -0.532341228727     0.634466849870     0.870398858772     1.007825032230
         H           -0.532315228727     0.634438849870    -0.870445141228     1.007825032230
         H            0.936510771273    -1.428720150130    -0.873552141228     1.007825032230
         H            0.936499771273    -1.428664150130     0.873631858772     1.007825032230
         H           -1.632099228727    -1.652845150130     0.873556858772     1.007825032230
         H           -1.632105228727    -1.652834150130    -0.873593141228     1.007825032230
         H            3.534858771273    -1.134832150130    -0.881860141228     1.007825032230
         H            3.534869771273    -1.134800150130     0.881885858772     1.007825032230
         H            4.194182771273     0.272567849870    -0.000016141228     1.007825032230
         H           -3.879767228727    -0.956195150130    -0.000015141228     1.007825032230

  Basis Set: AUG-CC-PVTZ
    Blend: AUG-CC-PVTZ
  Basis Set: (AUG-CC-PVTZ AUX)
    Blend: AUG-CC-PVTZ-JKFIT
	 Reference Energy          =    -382.8903909575706166 [Eh]
	 Singles Energy            =      -0.0000000000000000 [Eh]
	 Same-Spin Energy          =      -0.3796787947734139 [Eh]
	 Opposite-Spin Energy      =      -1.2549310926745993 [Eh]
	 Correlation Energy        =      -1.6346098874480133 [Eh]
	 Total Energy              =    -384.5250008450186101 [Eh]

	 ================> DF-SCS-MP2 Energies <==================
	-----------------------------------------------------------
	 SCS Same-Spin Scale       =       0.3333333333333333 [-]
	 SCS Opposite-Spin Scale   =       1.2000000000000000 [-]
	 SCS Same-Spin Energy      =      -0.1265595982578046 [Eh]
	 SCS Opposite-Spin Energy  =      -1.5059173112095192 [Eh]
	 SCS Correlation Energy    =      -1.6324769094673239 [Eh]
	 SCS Total Energy          =    -384.5228678670379168 [Eh]
	-----------------------------------------------------------

  Dipole Moment: [D]
     X:     1.1322      Y:    -5.1567      Z:    -0.0000     Total:     5.2796

*** Psi4 exiting successfully. Buy a developer a beer!
