                               Psi4 1.4a3.dev225

  ==> Input File <==

--------------------------------------------------------------------------
#psi4
#
memory 32 gb

molecule  {
0 1
  O        1.8881650     1.4432750    -0.0000100
  O       -3.1767040     0.9881070     0.0000170
  C       -0.5155700     0.0356770    -0.0000120
  C        0.6393516    -0.6080153     0.0000141
  C       -1.6970590    -0.9239890    -0.0000140
  C        2.0167370     0.2220750     0.0000010
  C        3.3799790    -0.4356510     0.0000020
  C       -3.0337740    -0.2274000    -0.0000030
  H       -0.5729570     0.6949060     0.8703990
  H       -0.5729310     0.6948780    -0.8704450
  H        0.8958950    -1.3682810    -0.8735520
  H        0.8958840    -1.3682250     0.8736320
  H       -1.6727150    -1.5924060     0.8735570
  H       -1.6727210    -1.5923950    -0.8735930
  H        3.4942430    -1.0743930    -0.8818600
  H        3.4942540    -1.0743610     0.8818860
  H        4.1535670     0.3330070    -0.0000160
  H       -3.9203830    -0.8957560    -0.0000150
units angstrom
no_reorient  #important for SAPT in psi4, default
symmetry c1  #important for SAPT in psi4, default
}

set PROPERTIES_ORIGIN ["COM"]
properties('MP2/aug-cc-pvtz', properties = ['dipole'])
--------------------------------------------------------------------------

    Molecular point group: c1
  Charge       = 0
  Multiplicity = 1
  Basis Set: AUG-CC-PVTZ
    Blend: AUG-CC-PVTZ
  Basis Set: (AUG-CC-PVTZ AUX)
    Blend: AUG-CC-PVTZ-JKFIT

    Orbital Energies [Eh]
    ---------------------

    Doubly Occupied:

       1A    -20.561648     2A    -20.544753     3A    -11.339742
       4A    -11.339092     5A    -11.258749     6A    -11.253514
       7A    -11.246527     8A    -11.220625     9A     -1.386484
      10A     -1.377201    11A     -1.129463    12A     -1.026552
      13A     -0.996131    14A     -0.862991    15A     -0.783902
      16A     -0.736380    17A     -0.680801    18A     -0.671668
      19A     -0.657163    20A     -0.625903    21A     -0.609847
      22A     -0.608894    23A     -0.570692    24A     -0.569525
      25A     -0.558351    26A     -0.503269    27A     -0.503182
      28A     -0.490065    29A     -0.455065    30A     -0.432613
      31A     -0.396840

  @DF-RHF Final Energy:  -382.83968429571428

   => Energetics <=

    Nuclear Repulsion Energy =            354.8795437958809202
    One-Electron Energy =               -1224.6431915164887414
    Two-Electron Energy =                 486.9239634248935999
    Total Energy =                       -382.8396842957142781
  Basis Set: (AUG-CC-PVTZ AUX)
    Blend: AUG-CC-PVTZ-RI
    Molecular point group: c1

    Geometry (in Angstrom), charge = 0, multiplicity = 1:

       Center              X                  Y                   Z               Mass
    ------------   -----------------  -----------------  -----------------  -----------------
         O            1.945819816793     1.370139684513    -0.000009667827    15.994914619570
         O           -3.119049183207     0.914971684513     0.000017332173    15.994914619570
         C           -0.457915183207    -0.037458315487    -0.000011667827    12.000000000000
         C            0.697006416793    -0.681150615487     0.000014432173    12.000000000000
         C           -1.639404183207    -0.997124315487    -0.000013667827    12.000000000000
         C            2.074391816793     0.148939684513     0.000001332173    12.000000000000
         C            3.437633816793    -0.508786315487     0.000002332173    12.000000000000
         C           -2.976119183207    -0.300535315487    -0.000002667827    12.000000000000
         H           -0.515302183207     0.621770684513     0.870399332173     1.007825032230
         H           -0.515276183207     0.621742684513    -0.870444667827     1.007825032230
         H            0.953549816793    -1.441416315487    -0.873551667827     1.007825032230
         H            0.953538816793    -1.441360315487     0.873632332173     1.007825032230
         H           -1.615060183207    -1.665541315487     0.873557332173     1.007825032230
         H           -1.615066183207    -1.665530315487    -0.873592667827     1.007825032230
         H            3.551897816793    -1.147528315487    -0.881859667827     1.007825032230
         H            3.551908816793    -1.147496315487     0.881886332173     1.007825032230
         H            4.211221816793     0.259871684513    -0.000015667827     1.007825032230
         H           -3.862728183207    -0.968891315487    -0.000014667827     1.007825032230

  Basis Set: AUG-CC-PVTZ
    Blend: AUG-CC-PVTZ
  Basis Set: (AUG-CC-PVTZ AUX)
    Blend: AUG-CC-PVTZ-JKFIT
	 Reference Energy          =    -382.8396842957142781 [Eh]
	 Singles Energy            =      -0.0000000000000000 [Eh]
	 Same-Spin Energy          =      -0.3824473000356945 [Eh]
	 Opposite-Spin Energy      =      -1.2587941225258361 [Eh]
	 Correlation Energy        =      -1.6412414225615306 [Eh]
	 Total Energy              =    -384.4809257182757847 [Eh]

	 ================> DF-SCS-MP2 Energies <==================
	-----------------------------------------------------------
	 SCS Same-Spin Scale       =       0.3333333333333333 [-]
	 SCS Opposite-Spin Scale   =       1.2000000000000000 [-]
	 SCS Same-Spin Energy      =      -0.1274824333452315 [Eh]
	 SCS Opposite-Spin Energy  =      -1.5105529470310033 [Eh]
	 SCS Correlation Energy    =      -1.6380353803762349 [Eh]
	 SCS Total Energy          =    -384.4777196760904872 [Eh]
	-----------------------------------------------------------

  Dipole Moment: [D]
     X:     1.1327      Y:    -5.0264      Z:    -0.0000     Total:     5.1524

*** Psi4 exiting successfully. Buy a developer a beer!
