                               Psi4 1.4a3.dev225

  ==> Input File <==

--------------------------------------------------------------------------
#psi4
#
memory 32 gb

molecule  {
0 1
  O        1.8881650     1.4432750    -0.0000100
  O       -3.1767040     0.9881070     0.0000170
  C       -0.5155700     0.0356770    -0.0000120
  C        0.8140500    -0.7053830     0.0000180
  C       -1.6970590    -0.9239890    -0.0000140
  C        2.0167370     0.2220750     0.0000010
  C        3.3799790    -0.4356510     0.0000020
  C       -3.0337740    -0.2274000    -0.0000030
  H       -0.5729570     0.6949060     0.8703990
  H       -0.5729310     0.6948780    -0.8704450
  H        0.8810095    -1.2477171    -0.7146723
  H        0.8958840    -1.3682250     0.8736320
  H       -1.6727150    -1.5924060     0.8735570
  H       -1.6727210    -1.5923950    -0.8735930
  H        3.4942430    -1.0743930    -0.8818600
  H        3.4942540    -1.0743610     0.8818860
  H        4.1535670     0.3330070    -0.0000160
  H       -3.9203830    -0.8957560    -0.0000150
units angstrom
no_reorient  #important for SAPT in psi4, default
symmetry c1  #important for SAPT in psi4, default
}

set PROPERTIES_ORIGIN ["COM"]
properties('MP2/aug-cc-pvtz', properties = ['dipole'])
--------------------------------------------------------------------------

    Molecular point group: c1
  Charge       = 0
  Multiplicity = 1
  Basis Set: AUG-CC-PVTZ
    Blend: AUG-CC-PVTZ
  Basis Set: (AUG-CC-PVTZ AUX)
    Blend: AUG-CC-PVTZ-JKFIT

    Orbital Energies [Eh]
    ---------------------

    Doubly Occupied:

       1A    -20.560279     2A    -20.547955     3A    -11.337762
       4A    -11.335813     5A    -11.250539     6A    -11.240785
       7A    -11.229281     8A    -11.223074     9A     -1.385015
      10A     -1.378608    11A     -1.106128    12A     -1.039754
      13A     -0.989322    14A     -0.879291    15A     -0.778479
      16A     -0.752471    17A     -0.680059    18A     -0.673067
      19A     -0.657899    20A     -0.625451    21A     -0.618466
      22A     -0.612200    23A     -0.578702    24A     -0.563762
      25A     -0.519109    26A     -0.511778    27A     -0.506632
      28A     -0.488174    29A     -0.487371    30A     -0.430519
      31A     -0.411919

  @DF-RHF Final Energy:  -382.85895564576560

   => Energetics <=

    Nuclear Repulsion Energy =            354.3566323991520335
    One-Electron Energy =               -1223.6318500673494327
    Two-Electron Energy =                 486.4162620224318516
    Total Energy =                       -382.8589556457656045
  Basis Set: (AUG-CC-PVTZ AUX)
    Blend: AUG-CC-PVTZ-RI
    Molecular point group: c1

    Geometry (in Angstrom), charge = 0, multiplicity = 1:

       Center              X                  Y                   Z               Mass
    ------------   -----------------  -----------------  -----------------  -----------------
         O            1.927573004639     1.379317581499    -0.001413826987    15.994914619570
         O           -3.137295995361     0.924149581499    -0.001386826987    15.994914619570
         C           -0.476161995361    -0.028280418501    -0.001415826987    12.000000000000
         C            0.853458004639    -0.769340418501    -0.001385826987    12.000000000000
         C           -1.657650995361    -0.987946418501    -0.001417826987    12.000000000000
         C            2.056145004639     0.158117581499    -0.001402826987    12.000000000000
         C            3.419387004639    -0.499608418501    -0.001401826987    12.000000000000
         C           -2.994365995361    -0.291357418501    -0.001406826987    12.000000000000
         H           -0.533548995361     0.630948581499     0.868995173013     1.007825032230
         H           -0.533522995361     0.630920581499    -0.871848826987     1.007825032230
         H            0.920417504639    -1.311674518501    -0.716076126987     1.007825032230
         H            0.935292004639    -1.432182418501     0.872228173013     1.007825032230
         H           -1.633306995361    -1.656363418501     0.872153173013     1.007825032230
         H           -1.633312995361    -1.656352418501    -0.874996826987     1.007825032230
         H            3.533651004639    -1.138350418501    -0.883263826987     1.007825032230
         H            3.533662004639    -1.138318418501     0.880482173013     1.007825032230
         H            4.192975004639     0.269049581499    -0.001419826987     1.007825032230
         H           -3.880974995361    -0.959713418501    -0.001418826987     1.007825032230

  Basis Set: AUG-CC-PVTZ
    Blend: AUG-CC-PVTZ
  Basis Set: (AUG-CC-PVTZ AUX)
    Blend: AUG-CC-PVTZ-JKFIT
	 Reference Energy          =    -382.8589556457656045 [Eh]
	 Singles Energy            =      -0.0000000000000000 [Eh]
	 Same-Spin Energy          =      -0.3794673889164606 [Eh]
	 Opposite-Spin Energy      =      -1.2540741867418008 [Eh]
	 Correlation Energy        =      -1.6335415756582614 [Eh]
	 Total Energy              =    -384.4924972214238892 [Eh]

	 ================> DF-SCS-MP2 Energies <==================
	-----------------------------------------------------------
	 SCS Same-Spin Scale       =       0.3333333333333333 [-]
	 SCS Opposite-Spin Scale   =       1.2000000000000000 [-]
	 SCS Same-Spin Energy      =      -0.1264891296388202 [Eh]
	 SCS Opposite-Spin Energy  =      -1.5048890240901609 [Eh]
	 SCS Correlation Energy    =      -1.6313781537289811 [Eh]
	 SCS Total Energy          =    -384.4903337994945787 [Eh]
	-----------------------------------------------------------

  Dipole Moment: [D]
     X:     1.1771      Y:    -5.2045      Z:    -0.0383     Total:     5.3360

*** Psi4 exiting successfully. Buy a developer a beer!
