                               Psi4 1.4a3.dev225

  ==> Input File <==

--------------------------------------------------------------------------
#psi4
#
memory 32 gb

molecule  {
0 1
  O        1.8881650     1.4432750    -0.0000100
  O       -3.1767040     0.9881070     0.0000170
  C       -0.5155700     0.0356770    -0.0000120
  C        0.8140500    -0.7053830     0.0000180
  C       -1.6970590    -0.9239890    -0.0000140
  C        2.0167370     0.2220750     0.0000010
  C        3.3799790    -0.4356510     0.0000020
  C       -3.0337740    -0.2274000    -0.0000030
  H       -0.5729570     0.6949060     0.8703990
  H       -0.5729310     0.6948780    -0.8704450
  H        0.8958950    -1.3682810    -0.8735520
  H        0.8996049    -1.3983634     0.9133539
  H       -1.6727150    -1.5924060     0.8735570
  H       -1.6727210    -1.5923950    -0.8735930
  H        3.4942430    -1.0743930    -0.8818600
  H        3.4942540    -1.0743610     0.8818860
  H        4.1535670     0.3330070    -0.0000160
  H       -3.9203830    -0.8957560    -0.0000150
units angstrom
no_reorient  #important for SAPT in psi4, default
symmetry c1  #important for SAPT in psi4, default
}

set PROPERTIES_ORIGIN ["COM"]
properties('MP2/aug-cc-pvtz', properties = ['dipole'])
--------------------------------------------------------------------------

    Molecular point group: c1
  Charge       = 0
  Multiplicity = 1
  Basis Set: AUG-CC-PVTZ
    Blend: AUG-CC-PVTZ
  Basis Set: (AUG-CC-PVTZ AUX)
    Blend: AUG-CC-PVTZ-JKFIT

    Orbital Energies [Eh]
    ---------------------

    Doubly Occupied:

       1A    -20.560611     2A    -20.549172     3A    -11.338102
       4A    -11.337548     5A    -11.253927     6A    -11.250868
       7A    -11.240334     8A    -11.231568     9A     -1.385408
      10A     -1.379773    11A     -1.097268    12A     -1.035111
      13A     -0.982161    14A     -0.872218    15A     -0.777084
      16A     -0.740398    17A     -0.675873    18A     -0.663972
      19A     -0.656394    20A     -0.625221    21A     -0.614207
      22A     -0.611059    23A     -0.568832    24A     -0.563299
      25A     -0.519268    26A     -0.508019    27A     -0.506161
      28A     -0.488489    29A     -0.483090    30A     -0.431199
      31A     -0.412761

  @DF-RHF Final Energy:  -382.88935707422559

   => Energetics <=

    Nuclear Repulsion Energy =            353.0470477904092377
    One-Electron Energy =               -1221.1540191221799887
    Two-Electron Energy =                 485.2176142575451649
    Total Energy =                       -382.8893570742255861
  Basis Set: (AUG-CC-PVTZ AUX)
    Blend: AUG-CC-PVTZ-RI
    Molecular point group: c1

    Geometry (in Angstrom), charge = 0, multiplicity = 1:

       Center              X                  Y                   Z               Mass
    ------------   -----------------  -----------------  -----------------  -----------------
         O            1.927408611623     1.380649080644    -0.000361032777    15.994914619570
         O           -3.137460388377     0.925481080644    -0.000334032777    15.994914619570
         C           -0.476326388377    -0.026948919356    -0.000363032777    12.000000000000
         C            0.853293611623    -0.768008919356    -0.000333032777    12.000000000000
         C           -1.657815388377    -0.986614919356    -0.000365032777    12.000000000000
         C            2.055980611623     0.159449080644    -0.000350032777    12.000000000000
         C            3.419222611623    -0.498276919356    -0.000349032777    12.000000000000
         C           -2.994530388377    -0.290025919356    -0.000354032777    12.000000000000
         H           -0.533713388377     0.632280080644     0.870047967223     1.007825032230
         H           -0.533687388377     0.632252080644    -0.870796032777     1.007825032230
         H            0.935138611623    -1.430906919356    -0.873903032777     1.007825032230
         H            0.938848511623    -1.460989319356     0.913002867223     1.007825032230
         H           -1.633471388377    -1.655031919356     0.873205967223     1.007825032230
         H           -1.633477388377    -1.655020919356    -0.873944032777     1.007825032230
         H            3.533486611623    -1.137018919356    -0.882211032777     1.007825032230
         H            3.533497611623    -1.136986919356     0.881534967223     1.007825032230
         H            4.192810611623     0.270381080644    -0.000367032777     1.007825032230
         H           -3.881139388377    -0.958381919356    -0.000366032777     1.007825032230

  Basis Set: AUG-CC-PVTZ
    Blend: AUG-CC-PVTZ
  Basis Set: (AUG-CC-PVTZ AUX)
    Blend: AUG-CC-PVTZ-JKFIT
	 Reference Energy          =    -382.8893570742255861 [Eh]
	 Singles Energy            =      -0.0000000000000000 [Eh]
	 Same-Spin Energy          =      -0.3795017235393781 [Eh]
	 Opposite-Spin Energy      =      -1.2550156520188502 [Eh]
	 Correlation Energy        =      -1.6345173755582283 [Eh]
	 Total Energy              =    -384.5238744497838184 [Eh]

	 ================> DF-SCS-MP2 Energies <==================
	-----------------------------------------------------------
	 SCS Same-Spin Scale       =       0.3333333333333333 [-]
	 SCS Opposite-Spin Scale   =       1.2000000000000000 [-]
	 SCS Same-Spin Energy      =      -0.1265005745131260 [Eh]
	 SCS Opposite-Spin Energy  =      -1.5060187824226203 [Eh]
	 SCS Correlation Energy    =      -1.6325193569357463 [Eh]
	 SCS Total Energy          =    -384.5218764311613313 [Eh]
	-----------------------------------------------------------

  Dipole Moment: [D]
     X:     1.1275      Y:    -5.1351      Z:    -0.0158     Total:     5.2575

*** Psi4 exiting successfully. Buy a developer a beer!
