                               Psi4 1.4a3.dev225

  ==> Input File <==

--------------------------------------------------------------------------
#psi4
#
memory 32 gb

molecule  {
0 1
  O        1.8881650     1.4432750    -0.0000100
  O       -3.1767040     0.9881070     0.0000170
  C       -0.5155700     0.0356770    -0.0000120
  C        0.8140500    -0.7053830     0.0000180
  C       -1.6970590    -0.9239890    -0.0000140
  C        2.0115018     0.2718002     0.0000006
  C        3.3799790    -0.4356510     0.0000020
  C       -3.0337740    -0.2274000    -0.0000030
  H       -0.5729570     0.6949060     0.8703990
  H       -0.5729310     0.6948780    -0.8704450
  H        0.8958950    -1.3682810    -0.8735520
  H        0.8958840    -1.3682250     0.8736320
  H       -1.6727150    -1.5924060     0.8735570
  H       -1.6727210    -1.5923950    -0.8735930
  H        3.4942430    -1.0743930    -0.8818600
  H        3.4942540    -1.0743610     0.8818860
  H        4.1535670     0.3330070    -0.0000160
  H       -3.9203830    -0.8957560    -0.0000150
units angstrom
no_reorient  #important for SAPT in psi4, default
symmetry c1  #important for SAPT in psi4, default
}

set PROPERTIES_ORIGIN ["COM"]
properties('MP2/aug-cc-pvtz', properties = ['dipole'])
--------------------------------------------------------------------------

    Molecular point group: c1
  Charge       = 0
  Multiplicity = 1
  Basis Set: AUG-CC-PVTZ
    Blend: AUG-CC-PVTZ
  Basis Set: (AUG-CC-PVTZ AUX)
    Blend: AUG-CC-PVTZ-JKFIT

    Orbital Energies [Eh]
    ---------------------

    Doubly Occupied:

       1A    -20.560036     2A    -20.553044     3A    -11.337394
       4A    -11.333223     5A    -11.249853     6A    -11.245026
       7A    -11.237368     8A    -11.229678     9A     -1.415038
      10A     -1.384843    11A     -1.095508    12A     -1.027756
      13A     -0.978190    14A     -0.868638    15A     -0.776414
      16A     -0.741769    17A     -0.676550    18A     -0.664161
      19A     -0.662241    20A     -0.630614    21A     -0.614324
      22A     -0.612011    23A     -0.568081    24A     -0.567205
      25A     -0.518832    26A     -0.513684    27A     -0.507082
      28A     -0.500968    29A     -0.485274    30A     -0.430125
      31A     -0.403353

  @DF-RHF Final Energy:  -382.89253303985993

   => Energetics <=

    Nuclear Repulsion Energy =            353.6312245528363860
    One-Electron Energy =               -1222.2709493219249453
    Two-Electron Energy =                 485.7471917292286889
    Total Energy =                       -382.8925330398599272
  Basis Set: (AUG-CC-PVTZ AUX)
    Blend: AUG-CC-PVTZ-RI
    Molecular point group: c1

    Geometry (in Angstrom), charge = 0, multiplicity = 1:

       Center              X                  Y                   Z               Mass
    ------------   -----------------  -----------------  -----------------  -----------------
         O            1.927992231654     1.375151691397    -0.000010036028    15.994914619570
         O           -3.136876768346     0.919983691397     0.000016963972    15.994914619570
         C           -0.475742768346    -0.032446308603    -0.000012036028    12.000000000000
         C            0.853877231654    -0.773506308603     0.000017963972    12.000000000000
         C           -1.657231768346    -0.992112308603    -0.000014036028    12.000000000000
         C            2.051329031654     0.203676891397     0.000000563972    12.000000000000
         C            3.419806231654    -0.503774308603     0.000001963972    12.000000000000
         C           -2.993946768346    -0.295523308603    -0.000003036028    12.000000000000
         H           -0.533129768346     0.626782691397     0.870398963972     1.007825032230
         H           -0.533103768346     0.626754691397    -0.870445036028     1.007825032230
         H            0.935722231654    -1.436404308603    -0.873552036028     1.007825032230
         H            0.935711231654    -1.436348308603     0.873631963972     1.007825032230
         H           -1.632887768346    -1.660529308603     0.873556963972     1.007825032230
         H           -1.632893768346    -1.660518308603    -0.873593036028     1.007825032230
         H            3.534070231654    -1.142516308603    -0.881860036028     1.007825032230
         H            3.534081231654    -1.142484308603     0.881885963972     1.007825032230
         H            4.193394231654     0.264883691397    -0.000016036028     1.007825032230
         H           -3.880555768346    -0.963879308603    -0.000015036028     1.007825032230

  Basis Set: AUG-CC-PVTZ
    Blend: AUG-CC-PVTZ
  Basis Set: (AUG-CC-PVTZ AUX)
    Blend: AUG-CC-PVTZ-JKFIT
	 Reference Energy          =    -382.8925330398599272 [Eh]
	 Singles Energy            =      -0.0000000000000000 [Eh]
	 Same-Spin Energy          =      -0.3781157827675618 [Eh]
	 Opposite-Spin Energy      =      -1.2518717004092377 [Eh]
	 Correlation Energy        =      -1.6299874831767995 [Eh]
	 Total Energy              =    -384.5225205230367465 [Eh]

	 ================> DF-SCS-MP2 Energies <==================
	-----------------------------------------------------------
	 SCS Same-Spin Scale       =       0.3333333333333333 [-]
	 SCS Opposite-Spin Scale   =       1.2000000000000000 [-]
	 SCS Same-Spin Energy      =      -0.1260385942558539 [Eh]
	 SCS Opposite-Spin Energy  =      -1.5022460404910851 [Eh]
	 SCS Correlation Energy    =      -1.6282846347469391 [Eh]
	 SCS Total Energy          =    -384.5208176746068602 [Eh]
	-----------------------------------------------------------

  Dipole Moment: [D]
     X:     1.1224      Y:    -4.9172      Z:    -0.0000     Total:     5.0437

*** Psi4 exiting successfully. Buy a developer a beer!
