                               Psi4 1.4a3.dev225

  ==> Input File <==

--------------------------------------------------------------------------
#psi4
#
memory 32 gb

molecule  {
0 1
  O        1.8881650     1.4432750    -0.0000100
  O       -3.1767040     0.9881070     0.0000170
  C       -0.5155700     0.0356770    -0.0000120
  C        0.8140500    -0.7053830     0.0000180
  C       -1.6879577    -0.9348264     0.0224684
  C        2.0167370     0.2220750     0.0000010
  C        3.3799790    -0.4356510     0.0000020
  C       -3.0337740    -0.2274000    -0.0000030
  H       -0.5729570     0.6949060     0.8703990
  H       -0.5729310     0.6948780    -0.8704450
  H        0.8958950    -1.3682810    -0.8735520
  H        0.8958840    -1.3682250     0.8736320
  H       -1.6727150    -1.5924060     0.8735570
  H       -1.6727210    -1.5923950    -0.8735930
  H        3.4942430    -1.0743930    -0.8818600
  H        3.4942540    -1.0743610     0.8818860
  H        4.1535670     0.3330070    -0.0000160
  H       -3.9203830    -0.8957560    -0.0000150
units angstrom
no_reorient  #important for SAPT in psi4, default
symmetry c1  #important for SAPT in psi4, default
}

set PROPERTIES_ORIGIN ["COM"]
properties('MP2/aug-cc-pvtz', properties = ['dipole'])
--------------------------------------------------------------------------

    Molecular point group: c1
  Charge       = 0
  Multiplicity = 1
  Basis Set: AUG-CC-PVTZ
    Blend: AUG-CC-PVTZ
  Basis Set: (AUG-CC-PVTZ AUX)
    Blend: AUG-CC-PVTZ-JKFIT

    Orbital Energies [Eh]
    ---------------------

    Doubly Occupied:

       1A    -20.560976     2A    -20.548669     3A    -11.338603
       4A    -11.336839     5A    -11.250343     6A    -11.247614
       7A    -11.240250     8A    -11.230916     9A     -1.385224
      10A     -1.379294    11A     -1.098030    12A     -1.035089
      13A     -0.982207    14A     -0.872149    15A     -0.778343
      16A     -0.741768    17A     -0.674556    18A     -0.666003
      19A     -0.657095    20A     -0.625207    21A     -0.615486
      22A     -0.610179    23A     -0.571278    24A     -0.563555
      25A     -0.518685    26A     -0.508777    27A     -0.508004
      28A     -0.489054    29A     -0.484798    30A     -0.430167
      31A     -0.411574

  @DF-RHF Final Energy:  -382.89078425787909

   => Energetics <=

    Nuclear Repulsion Energy =            353.1834699372739124
    One-Electron Energy =               -1221.4270437516415768
    Two-Electron Energy =                 485.3527895564885739
    Total Energy =                       -382.8907842578790905
  Basis Set: (AUG-CC-PVTZ AUX)
    Blend: AUG-CC-PVTZ-RI
    Molecular point group: c1

    Geometry (in Angstrom), charge = 0, multiplicity = 1:

       Center              X                  Y                   Z               Mass
    ------------   -----------------  -----------------  -----------------  -----------------
         O            1.926484027074     1.381522897109    -0.002375234084    15.994914619570
         O           -3.138384972926     0.926354897109    -0.002348234084    15.994914619570
         C           -0.477250972926    -0.026075102891    -0.002377234084    12.000000000000
         C            0.852369027074    -0.767135102891    -0.002347234084    12.000000000000
         C           -1.649638672926    -0.996578502891     0.020103165916    12.000000000000
         C            2.055056027074     0.160322897109    -0.002364234084    12.000000000000
         C            3.418298027074    -0.497403102891    -0.002363234084    12.000000000000
         C           -2.995454972926    -0.289152102891    -0.002368234084    12.000000000000
         H           -0.534637972926     0.633153897109     0.868033765916     1.007825032230
         H           -0.534611972926     0.633125897109    -0.872810234084     1.007825032230
         H            0.934214027074    -1.430033102891    -0.875917234084     1.007825032230
         H            0.934203027074    -1.429977102891     0.871266765916     1.007825032230
         H           -1.634395972926    -1.654158102891     0.871191765916     1.007825032230
         H           -1.634401972926    -1.654147102891    -0.875958234084     1.007825032230
         H            3.532562027074    -1.136145102891    -0.884225234084     1.007825032230
         H            3.532573027074    -1.136113102891     0.879520765916     1.007825032230
         H            4.191886027074     0.271254897109    -0.002381234084     1.007825032230
         H           -3.882063972926    -0.957508102891    -0.002380234084     1.007825032230

  Basis Set: AUG-CC-PVTZ
    Blend: AUG-CC-PVTZ
  Basis Set: (AUG-CC-PVTZ AUX)
    Blend: AUG-CC-PVTZ-JKFIT
	 Reference Energy          =    -382.8907842578790905 [Eh]
	 Singles Energy            =      -0.0000000000000000 [Eh]
	 Same-Spin Energy          =      -0.3794167760315146 [Eh]
	 Opposite-Spin Energy      =      -1.2546620736714109 [Eh]
	 Correlation Energy        =      -1.6340788497029255 [Eh]
	 Total Energy              =    -384.5248631075820072 [Eh]

	 ================> DF-SCS-MP2 Energies <==================
	-----------------------------------------------------------
	 SCS Same-Spin Scale       =       0.3333333333333333 [-]
	 SCS Opposite-Spin Scale   =       1.2000000000000000 [-]
	 SCS Same-Spin Energy      =      -0.1264722586771715 [Eh]
	 SCS Opposite-Spin Energy  =      -1.5055944884056931 [Eh]
	 SCS Correlation Energy    =      -1.6320667470828647 [Eh]
	 SCS Total Energy          =    -384.5228510049619786 [Eh]
	-----------------------------------------------------------

  Dipole Moment: [D]
     X:     1.1137      Y:    -5.1433      Z:     0.0185     Total:     5.2625

*** Psi4 exiting successfully. Buy a developer a beer!
