                               Psi4 1.4a3.dev225

  ==> Input File <==

--------------------------------------------------------------------------
#psi4
#
memory 32 gb

molecule  {
0 1
  O        1.8881650     1.4432750    -0.0000100
  O       -3.1767040     0.9881070     0.0000170
  C       -0.5155700     0.0356770    -0.0000120
  C        0.8140500    -0.7053830     0.0000180
  C       -1.7058004    -0.9128593    -0.0224964
  C        2.0167370     0.2220750     0.0000010
  C        3.3799790    -0.4356510     0.0000020
  C       -3.0337740    -0.2274000    -0.0000030
  H       -0.5729570     0.6949060     0.8703990
  H       -0.5729310     0.6948780    -0.8704450
  H        0.8958950    -1.3682810    -0.8735520
  H        0.8958840    -1.3682250     0.8736320
  H       -1.6727150    -1.5924060     0.8735570
  H       -1.6727210    -1.5923950    -0.8735930
  H        3.4942430    -1.0743930    -0.8818600
  H        3.4942540    -1.0743610     0.8818860
  H        4.1535670     0.3330070    -0.0000160
  H       -3.9203830    -0.8957560    -0.0000150
units angstrom
no_reorient  #important for SAPT in psi4, default
symmetry c1  #important for SAPT in psi4, default
}

set PROPERTIES_ORIGIN ["COM"]
properties('MP2/aug-cc-pvtz', properties = ['dipole'])
--------------------------------------------------------------------------

    Molecular point group: c1
  Charge       = 0
  Multiplicity = 1
  Basis Set: AUG-CC-PVTZ
    Blend: AUG-CC-PVTZ
  Basis Set: (AUG-CC-PVTZ AUX)
    Blend: AUG-CC-PVTZ-JKFIT

    Orbital Energies [Eh]
    ---------------------

    Doubly Occupied:

       1A    -20.560042     2A    -20.548941     3A    -11.337459
       4A    -11.337333     5A    -11.251402     6A    -11.248328
       7A    -11.240569     8A    -11.231143     9A     -1.385393
      10A     -1.379572    11A     -1.098486    12A     -1.036388
      13A     -0.984109    14A     -0.874168    15A     -0.776247
      16A     -0.742266    17A     -0.677703    18A     -0.664980
      19A     -0.657167    20A     -0.625185    21A     -0.614802
      22A     -0.612071    23A     -0.570881    24A     -0.563338
      25A     -0.519772    26A     -0.507887    27A     -0.506315
      28A     -0.487078    29A     -0.483433    30A     -0.431852
      31A     -0.413343

  @DF-RHF Final Energy:  -382.89070751348567

   => Energetics <=

    Nuclear Repulsion Energy =            353.3751785585390053
    One-Electron Energy =               -1221.7964685856568394
    Two-Electron Energy =                 485.5305825136321687
    Total Energy =                       -382.8907075134856655
  Basis Set: (AUG-CC-PVTZ AUX)
    Blend: AUG-CC-PVTZ-RI
    Molecular point group: c1

    Geometry (in Angstrom), charge = 0, multiplicity = 1:

       Center              X                  Y                   Z               Mass
    ------------   -----------------  -----------------  -----------------  -----------------
         O            1.928361085063     1.379211950865     0.002355077868    15.994914619570
         O           -3.136507914937     0.924043950865     0.002382077868    15.994914619570
         C           -0.475373914937    -0.028386049135     0.002353077868    12.000000000000
         C            0.854246085063    -0.769446049135     0.002383077868    12.000000000000
         C           -1.665604314937    -0.976922349135    -0.020131322132    12.000000000000
         C            2.056933085063     0.158011950865     0.002366077868    12.000000000000
         C            3.420175085063    -0.499714049135     0.002367077868    12.000000000000
         C           -2.993577914937    -0.291463049135     0.002362077868    12.000000000000
         H           -0.532760914937     0.630842950865     0.872764077868     1.007825032230
         H           -0.532734914937     0.630814950865    -0.868079922132     1.007825032230
         H            0.936091085063    -1.432344049135    -0.871186922132     1.007825032230
         H            0.936080085063    -1.432288049135     0.875997077868     1.007825032230
         H           -1.632518914937    -1.656469049135     0.875922077868     1.007825032230
         H           -1.632524914937    -1.656458049135    -0.871227922132     1.007825032230
         H            3.534439085063    -1.138456049135    -0.879494922132     1.007825032230
         H            3.534450085063    -1.138424049135     0.884251077868     1.007825032230
         H            4.193763085063     0.268943950865     0.002349077868     1.007825032230
         H           -3.880186914937    -0.959819049135     0.002350077868     1.007825032230

  Basis Set: AUG-CC-PVTZ
    Blend: AUG-CC-PVTZ
  Basis Set: (AUG-CC-PVTZ AUX)
    Blend: AUG-CC-PVTZ-JKFIT
	 Reference Energy          =    -382.8907075134856655 [Eh]
	 Singles Energy            =      -0.0000000000000000 [Eh]
	 Same-Spin Energy          =      -0.3795607525221850 [Eh]
	 Opposite-Spin Energy      =      -1.2547520013387790 [Eh]
	 Correlation Energy        =      -1.6343127538609639 [Eh]
	 Total Energy              =    -384.5250202673466333 [Eh]

	 ================> DF-SCS-MP2 Energies <==================
	-----------------------------------------------------------
	 SCS Same-Spin Scale       =       0.3333333333333333 [-]
	 SCS Opposite-Spin Scale   =       1.2000000000000000 [-]
	 SCS Same-Spin Energy      =      -0.1265202508407283 [Eh]
	 SCS Opposite-Spin Energy  =      -1.5057024016065348 [Eh]
	 SCS Correlation Energy    =      -1.6322226524472632 [Eh]
	 SCS Total Energy          =    -384.5229301659329053 [Eh]
	-----------------------------------------------------------

  Dipole Moment: [D]
     X:     1.1636      Y:    -5.1639      Z:    -0.0191     Total:     5.2935

*** Psi4 exiting successfully. Buy a developer a beer!
