                               Psi4 1.4a3.dev225

  ==> Input File <==

--------------------------------------------------------------------------
#psi4
#
memory 32 gb

molecule  {
0 1
  O        1.8881650     1.4432750    -0.0000100
  O       -3.1767040     0.9881070     0.0000170
  C       -0.5155700     0.0356770    -0.0000120
  C        0.8140500    -0.7053830     0.0000180
  C       -1.6970590    -0.9239890    -0.0000140
  C        2.0167370     0.2220750     0.0000010
  C        3.3799790    -0.4356510     0.0000020
  C       -3.0337740    -0.2274000    -0.0000030
  H       -0.5729570     0.6949060     0.8703990
  H       -0.5729310     0.6948780    -0.8704450
  H        0.9107805    -1.4888449    -1.0324317
  H        0.8958840    -1.3682250     0.8736320
  H       -1.6727150    -1.5924060     0.8735570
  H       -1.6727210    -1.5923950    -0.8735930
  H        3.4942430    -1.0743930    -0.8818600
  H        3.4942540    -1.0743610     0.8818860
  H        4.1535670     0.3330070    -0.0000160
  H       -3.9203830    -0.8957560    -0.0000150
units angstrom
no_reorient  #important for SAPT in psi4, default
symmetry c1  #important for SAPT in psi4, default
}

set PROPERTIES_ORIGIN ["COM"]
properties('MP2/aug-cc-pvtz', properties = ['dipole'])
--------------------------------------------------------------------------

    Molecular point group: c1
  Charge       = 0
  Multiplicity = 1
  Basis Set: AUG-CC-PVTZ
    Blend: AUG-CC-PVTZ
  Basis Set: (AUG-CC-PVTZ AUX)
    Blend: AUG-CC-PVTZ-JKFIT

    Orbital Energies [Eh]
    ---------------------

    Doubly Occupied:

       1A    -20.560956     2A    -20.550709     3A    -11.339305
       4A    -11.338459     5A    -11.270589     6A    -11.251227
       7A    -11.240215     8A    -11.233702     9A     -1.385806
      10A     -1.381176    11A     -1.095907    12A     -1.034071
      13A     -0.980418    14A     -0.870718    15A     -0.777232
      16A     -0.737655    17A     -0.676313    18A     -0.662610
      19A     -0.652885    20A     -0.625826    21A     -0.613765
      22A     -0.608847    23A     -0.566220    24A     -0.559431
      25A     -0.520369    26A     -0.509164    27A     -0.503004
      28A     -0.489219    29A     -0.474883    30A     -0.431870
      31A     -0.413698

  @DF-RHF Final Energy:  -382.87186850590200

   => Energetics <=

    Nuclear Repulsion Energy =            352.4139812788355357
    One-Electron Energy =               -1219.8592035826243318
    Two-Electron Energy =                 484.5733537978867957
    Total Energy =                       -382.8718685059020004
  Basis Set: (AUG-CC-PVTZ AUX)
    Blend: AUG-CC-PVTZ-RI
    Molecular point group: c1

    Geometry (in Angstrom), charge = 0, multiplicity = 1:

       Center              X                  Y                   Z               Mass
    ------------   -----------------  -----------------  -----------------  -----------------
         O            1.927309969098     1.381448016532     0.001393670771    15.994914619570
         O           -3.137559030902     0.926280016532     0.001420670771    15.994914619570
         C           -0.476425030902    -0.026149983468     0.001391670771    12.000000000000
         C            0.853194969098    -0.767209983468     0.001421670771    12.000000000000
         C           -1.657914030902    -0.985815983468     0.001389670771    12.000000000000
         C            2.055881969098     0.160248016532     0.001404670771    12.000000000000
         C            3.419123969098    -0.497477983468     0.001405670771    12.000000000000
         C           -2.994629030902    -0.289226983468     0.001400670771    12.000000000000
         H           -0.533812030902     0.633079016532     0.871802670771     1.007825032230
         H           -0.533786030902     0.633051016532    -0.869041329229     1.007825032230
         H            0.949925469098    -1.550671883468    -1.031028029229     1.007825032230
         H            0.935028969098    -1.430051983468     0.875035670771     1.007825032230
         H           -1.633570030902    -1.654232983468     0.874960670771     1.007825032230
         H           -1.633576030902    -1.654221983468    -0.872189329229     1.007825032230
         H            3.533387969098    -1.136219983468    -0.880456329229     1.007825032230
         H            3.533398969098    -1.136187983468     0.883289670771     1.007825032230
         H            4.192711969098     0.271180016532     0.001387670771     1.007825032230
         H           -3.881238030902    -0.957582983468     0.001388670771     1.007825032230

  Basis Set: AUG-CC-PVTZ
    Blend: AUG-CC-PVTZ
  Basis Set: (AUG-CC-PVTZ AUX)
    Blend: AUG-CC-PVTZ-JKFIT
	 Reference Energy          =    -382.8718685059020004 [Eh]
	 Singles Energy            =      -0.0000000000000000 [Eh]
	 Same-Spin Energy          =      -0.3795975590397860 [Eh]
	 Opposite-Spin Energy      =      -1.2563150529565521 [Eh]
	 Correlation Energy        =      -1.6359126119963381 [Eh]
	 Total Energy              =    -384.5077811178983325 [Eh]

	 ================> DF-SCS-MP2 Energies <==================
	-----------------------------------------------------------
	 SCS Same-Spin Scale       =       0.3333333333333333 [-]
	 SCS Opposite-Spin Scale   =       1.2000000000000000 [-]
	 SCS Same-Spin Energy      =      -0.1265325196799287 [Eh]
	 SCS Opposite-Spin Energy  =      -1.5075780635478624 [Eh]
	 SCS Correlation Energy    =      -1.6341105832277911 [Eh]
	 SCS Total Energy          =    -384.5059790891297666 [Eh]
	-----------------------------------------------------------

  Dipole Moment: [D]
     X:     1.0945      Y:    -5.0613      Z:     0.0777     Total:     5.1788

*** Psi4 exiting successfully. Buy a developer a beer!
