                               Psi4 1.4a3.dev225

  ==> Input File <==

--------------------------------------------------------------------------
#psi4
#
memory 32 gb

molecule  {
0 1
  O        1.8881650     1.4432750    -0.0000100
  O       -3.1767040     0.9881070     0.0000170
  C       -0.5155700     0.0356770    -0.0000120
  C        0.7994635    -0.7296514    -0.0449404
  C       -1.6970590    -0.9239890    -0.0000140
  C        2.0167370     0.2220750     0.0000010
  C        3.3799790    -0.4356510     0.0000020
  C       -3.0337740    -0.2274000    -0.0000030
  H       -0.5729570     0.6949060     0.8703990
  H       -0.5729310     0.6948780    -0.8704450
  H        0.8958950    -1.3682810    -0.8735520
  H        0.8958840    -1.3682250     0.8736320
  H       -1.6727150    -1.5924060     0.8735570
  H       -1.6727210    -1.5923950    -0.8735930
  H        3.4942430    -1.0743930    -0.8818600
  H        3.4942540    -1.0743610     0.8818860
  H        4.1535670     0.3330070    -0.0000160
  H       -3.9203830    -0.8957560    -0.0000150
units angstrom
no_reorient  #important for SAPT in psi4, default
symmetry c1  #important for SAPT in psi4, default
}

set PROPERTIES_ORIGIN ["COM"]
properties('MP2/aug-cc-pvtz', properties = ['dipole'])
--------------------------------------------------------------------------

    Molecular point group: c1
  Charge       = 0
  Multiplicity = 1
  Basis Set: AUG-CC-PVTZ
    Blend: AUG-CC-PVTZ
  Basis Set: (AUG-CC-PVTZ AUX)
    Blend: AUG-CC-PVTZ-JKFIT

    Orbital Energies [Eh]
    ---------------------

    Doubly Occupied:

       1A    -20.560244     2A    -20.549518     3A    -11.338307
       4A    -11.337519     5A    -11.250102     6A    -11.247138
       7A    -11.240414     8A    -11.230953     9A     -1.385028
      10A     -1.379106    11A     -1.097865    12A     -1.034009
      13A     -0.982750    14A     -0.871894    15A     -0.776959
      16A     -0.742210    17A     -0.675991    18A     -0.667121
      19A     -0.654913    20A     -0.624670    21A     -0.614957
      22A     -0.610805    23A     -0.573197    24A     -0.562587
      25A     -0.519336    26A     -0.511671    27A     -0.505551
      28A     -0.488432    29A     -0.485472    30A     -0.430547
      31A     -0.409432

  @DF-RHF Final Energy:  -382.88857242959364

   => Energetics <=

    Nuclear Repulsion Energy =            353.0240014666516686
    One-Electron Energy =               -1221.1077507805987352
    Two-Electron Energy =                 485.1951768843533728
    Total Energy =                       -382.8885724295936370
  Basis Set: (AUG-CC-PVTZ AUX)
    Blend: AUG-CC-PVTZ-RI
    Molecular point group: c1

    Geometry (in Angstrom), charge = 0, multiplicity = 1:

       Center              X                  Y                   Z               Mass
    ------------   -----------------  -----------------  -----------------  -----------------
         O            1.928975991532     1.382935842787     0.004719560561    15.994914619570
         O           -3.135893008468     0.927767842787     0.004746560561    15.994914619570
         C           -0.474759008468    -0.024662157213     0.004717560561    12.000000000000
         C            0.840274491532    -0.789990557213    -0.040210839439    12.000000000000
         C           -1.656248008468    -0.984328157213     0.004715560561    12.000000000000
         C            2.057547991532     0.161735842787     0.004730560561    12.000000000000
         C            3.420789991532    -0.495990157213     0.004731560561    12.000000000000
         C           -2.992963008468    -0.287739157213     0.004726560561    12.000000000000
         H           -0.532146008468     0.634566842787     0.875128560561     1.007825032230
         H           -0.532120008468     0.634538842787    -0.865715439439     1.007825032230
         H            0.936705991532    -1.428620157213    -0.868822439439     1.007825032230
         H            0.936694991532    -1.428564157213     0.878361560561     1.007825032230
         H           -1.631904008468    -1.652745157213     0.878286560561     1.007825032230
         H           -1.631910008468    -1.652734157213    -0.868863439439     1.007825032230
         H            3.535053991532    -1.134732157213    -0.877130439439     1.007825032230
         H            3.535064991532    -1.134700157213     0.886615560561     1.007825032230
         H            4.194377991532     0.272667842787     0.004713560561     1.007825032230
         H           -3.879572008468    -0.956095157213     0.004714560561     1.007825032230

  Basis Set: AUG-CC-PVTZ
    Blend: AUG-CC-PVTZ
  Basis Set: (AUG-CC-PVTZ AUX)
    Blend: AUG-CC-PVTZ-JKFIT
	 Reference Energy          =    -382.8885724295936370 [Eh]
	 Singles Energy            =      -0.0000000000000000 [Eh]
	 Same-Spin Energy          =      -0.3794196590981000 [Eh]
	 Opposite-Spin Energy      =      -1.2547320987928754 [Eh]
	 Correlation Energy        =      -1.6341517578909754 [Eh]
	 Total Energy              =    -384.5227241874845845 [Eh]

	 ================> DF-SCS-MP2 Energies <==================
	-----------------------------------------------------------
	 SCS Same-Spin Scale       =       0.3333333333333333 [-]
	 SCS Opposite-Spin Scale   =       1.2000000000000000 [-]
	 SCS Same-Spin Energy      =      -0.1264732196993666 [Eh]
	 SCS Opposite-Spin Energy  =      -1.5056785185514505 [Eh]
	 SCS Correlation Energy    =      -1.6321517382508173 [Eh]
	 SCS Total Energy          =    -384.5207241678444348 [Eh]
	-----------------------------------------------------------

  Dipole Moment: [D]
     X:     1.1787      Y:    -5.1282      Z:    -0.0337     Total:     5.2621

*** Psi4 exiting successfully. Buy a developer a beer!
