                               Psi4 1.4a3.dev225

  ==> Input File <==

--------------------------------------------------------------------------
#psi4
#
memory 32 gb

molecule  {
0 1
  O        1.8881650     1.4432750    -0.0000100
  O       -3.1767040     0.9881070     0.0000170
  C       -0.5155700     0.0356770    -0.0000120
  C        0.8140500    -0.7053830     0.0000180
  C       -1.6970590    -0.9239890    -0.0000140
  C        1.8583596     0.0999415     0.0000032
  C        3.3799790    -0.4356510     0.0000020
  C       -3.0337740    -0.2274000    -0.0000030
  H       -0.5729570     0.6949060     0.8703990
  H       -0.5729310     0.6948780    -0.8704450
  H        0.8958950    -1.3682810    -0.8735520
  H        0.8958840    -1.3682250     0.8736320
  H       -1.6727150    -1.5924060     0.8735570
  H       -1.6727210    -1.5923950    -0.8735930
  H        3.4942430    -1.0743930    -0.8818600
  H        3.4942540    -1.0743610     0.8818860
  H        4.1535670     0.3330070    -0.0000160
  H       -3.9203830    -0.8957560    -0.0000150
units angstrom
no_reorient  #important for SAPT in psi4, default
symmetry c1  #important for SAPT in psi4, default
}

set PROPERTIES_ORIGIN ["COM"]
properties('MP2/aug-cc-pvtz', properties = ['dipole'])
--------------------------------------------------------------------------

    Molecular point group: c1
  Charge       = 0
  Multiplicity = 1
  Basis Set: AUG-CC-PVTZ
    Blend: AUG-CC-PVTZ
  Basis Set: (AUG-CC-PVTZ AUX)
    Blend: AUG-CC-PVTZ-JKFIT

    Orbital Energies [Eh]
    ---------------------

    Doubly Occupied:

       1A    -20.564833     2A    -20.537693     3A    -11.344980
       4A    -11.342421     5A    -11.256825     6A    -11.251820
       7A    -11.243912     8A    -11.240104     9A     -1.389474
      10A     -1.310522    11A     -1.131023    12A     -1.054404
      13A     -0.974632    14A     -0.896761    15A     -0.784042
      16A     -0.749530    17A     -0.683024    18A     -0.679902
      19A     -0.647159    20A     -0.624178    21A     -0.619827
      22A     -0.603014    23A     -0.569341    24A     -0.554715
      25A     -0.522787    26A     -0.515898    27A     -0.504781
      28A     -0.494477    29A     -0.442225    30A     -0.431452
      31A     -0.410639

  @DF-RHF Final Energy:  -382.82561520382393

   => Energetics <=

    Nuclear Repulsion Energy =            353.9365244938475143
    One-Electron Energy =               -1222.7714910022664299
    Two-Electron Energy =                 486.0093513045949862
    Total Energy =                       -382.8256152038239293
  Basis Set: (AUG-CC-PVTZ AUX)
    Blend: AUG-CC-PVTZ-RI
    Molecular point group: c1

    Geometry (in Angstrom), charge = 0, multiplicity = 1:

       Center              X                  Y                   Z               Mass
    ------------   -----------------  -----------------  -----------------  -----------------
         O            1.944102842152     1.393231283935    -0.000010309549    15.994914619570
         O           -3.120766157848     0.938063283935     0.000016690451    15.994914619570
         C           -0.459632157848    -0.014366716065    -0.000012309549    12.000000000000
         C            0.869987842152    -0.755426716065     0.000017690451    12.000000000000
         C           -1.641121157848    -0.974032716065    -0.000014309549    12.000000000000
         C            1.914297442152     0.049897783935     0.000002890451    12.000000000000
         C            3.435916842152    -0.485694716065     0.000001690451    12.000000000000
         C           -2.977836157848    -0.277443716065    -0.000003309549    12.000000000000
         H           -0.517019157848     0.644862283935     0.870398690451     1.007825032230
         H           -0.516993157848     0.644834283935    -0.870445309549     1.007825032230
         H            0.951832842152    -1.418324716065    -0.873552309549     1.007825032230
         H            0.951821842152    -1.418268716065     0.873631690451     1.007825032230
         H           -1.616777157848    -1.642449716065     0.873556690451     1.007825032230
         H           -1.616783157848    -1.642438716065    -0.873593309549     1.007825032230
         H            3.550180842152    -1.124436716065    -0.881860309549     1.007825032230
         H            3.550191842152    -1.124404716065     0.881885690451     1.007825032230
         H            4.209504842152     0.282963283935    -0.000016309549     1.007825032230
         H           -3.864445157848    -0.945799716065    -0.000015309549     1.007825032230

  Basis Set: AUG-CC-PVTZ
    Blend: AUG-CC-PVTZ
  Basis Set: (AUG-CC-PVTZ AUX)
    Blend: AUG-CC-PVTZ-JKFIT
	 Reference Energy          =    -382.8256152038239293 [Eh]
	 Singles Energy            =      -0.0000000000000000 [Eh]
	 Same-Spin Energy          =      -0.3847125487929479 [Eh]
	 Opposite-Spin Energy      =      -1.2650191756695204 [Eh]
	 Correlation Energy        =      -1.6497317244624683 [Eh]
	 Total Energy              =    -384.4753469282863989 [Eh]

	 ================> DF-SCS-MP2 Energies <==================
	-----------------------------------------------------------
	 SCS Same-Spin Scale       =       0.3333333333333333 [-]
	 SCS Opposite-Spin Scale   =       1.2000000000000000 [-]
	 SCS Same-Spin Energy      =      -0.1282375162643160 [Eh]
	 SCS Opposite-Spin Energy  =      -1.5180230108034245 [Eh]
	 SCS Correlation Energy    =      -1.6462605270677404 [Eh]
	 SCS Total Energy          =    -384.4718757308916679 [Eh]
	-----------------------------------------------------------

  Dipole Moment: [D]
     X:     0.3129      Y:    -5.6122      Z:     0.0000     Total:     5.6209

*** Psi4 exiting successfully. Buy a developer a beer!
