                               Psi4 1.3.2 release

  ==> Input File <==

--------------------------------------------------------------------------
#psi4
#
memory 32 gb

molecule  {
0 1
  P        2.6712747     0.0961671    -0.2704342
  O       -0.7415730    -0.5166550    -0.8759300
  O       -3.1471200     1.7525200     0.1857420
  O       -3.5574290    -0.5524670    -0.9560380
  O       -0.9262260    -1.6975490     1.1507850
  O        1.5012860     1.2233130    -0.3203930
  O        1.7414800    -1.2994450    -0.3567160
  O        2.9590140    -0.0653000     1.3909990
  O        3.7753660     0.2843820    -1.0654240
  C       -2.1786680     0.7692630     0.5423480
  C       -0.8949230     0.8134730    -0.3165700
  C       -2.7827930    -0.6059770     0.2231310
  C       -1.5369320    -1.4089660    -0.0835960
  C        0.3225300     1.1924080     0.5079200
  H       -1.9376650     0.8286140     1.6117160
  H       -1.0169450     1.4955040    -1.1629930
  H       -3.3413290    -1.0227480     1.0706890
  H       -1.7077950    -2.2947630    -0.7028010
  H        0.4416350     0.4968690     1.3430810
  H        0.1975530     2.2044650     0.9092850
  H       -2.8909940     2.6048820     0.5755830
  H       -4.0423210     0.2940670    -0.9260900
  H       -0.0419210    -2.0739930     0.9730340
  H        0.9072950    -1.0817680    -0.8531670
  H        3.8470510     0.3069850     1.5449930
units angstrom
no_reorient  #important for SAPT in psi4, default
symmetry c1  #important for SAPT in psi4, default
}

set PROPERTIES_ORIGIN ["COM"]
properties('MP2/aug-cc-pvtz', properties = ['dipole'])
--------------------------------------------------------------------------

    Molecular point group: c1
  Charge       = 0
  Multiplicity = 1
  Basis Set: AUG-CC-PVTZ
    Blend: AUG-CC-PVTZ
  Basis Set: (AUG-CC-PVTZ AUX)
    Blend: AUG-CC-PVTZ-JKFIT

    Orbital Energies [Eh]
    ---------------------

    Doubly Occupied:

       1A    -80.109784     2A    -20.604174     3A    -20.603567
       4A    -20.598473     5A    -20.597123     6A    -20.589431
       7A    -20.582981     8A    -20.572429     9A    -20.536628
      10A    -11.358086    11A    -11.320789    12A    -11.319849
      13A    -11.315469    14A    -11.304295    15A     -7.628395
      16A     -5.526486    17A     -5.526019    18A     -5.525865
      19A     -1.456310    20A     -1.441138    21A     -1.408910
      22A     -1.378803    23A     -1.370596    24A     -1.364284
      25A     -1.352649    26A     -1.347672    27A     -1.081611
      28A     -1.044121    29A     -0.945124    30A     -0.850177
      31A     -0.834285    32A     -0.815309    33A     -0.765257
      34A     -0.755078    35A     -0.741534    36A     -0.727174
      37A     -0.693539    38A     -0.689887    39A     -0.679760
      40A     -0.662950    41A     -0.650681    42A     -0.639782
      43A     -0.628686    44A     -0.611397    45A     -0.601299
      46A     -0.595261    47A     -0.583394    48A     -0.570586
      49A     -0.565363    50A     -0.550804    51A     -0.544095
      52A     -0.525384    53A     -0.522050    54A     -0.508742
      55A     -0.507857    56A     -0.500582    57A     -0.485302
      58A     -0.483859    59A     -0.465197    60A     -0.450053

  @DF-RHF Final Energy: -1135.80118093938040

   => Energetics <=

    Nuclear Repulsion Energy =           1213.6941175113297504
    One-Electron Energy =               -3980.9578261305937303
    Two-Electron Energy =                1631.4625276798835785
    Total Energy =                      -1135.8011809393804015
  Basis Set: (AUG-CC-PVTZ AUX)
    Blend: AUG-CC-PVTZ-RI
    Molecular point group: c1

    Geometry (in Angstrom), charge = 0, multiplicity = 1:

       Center              X                  Y                   Z               Mass
    ------------   -----------------  -----------------  -----------------  -----------------
         P            2.610852951742     0.096435970849    -0.239883563121    30.973761998420
         O           -0.801994748258    -0.516386129151    -0.845379363121    15.994914619570
         O           -3.207541748258     1.752788870849     0.216292636879    15.994914619570
         O           -3.617850748258    -0.552198129151    -0.925487363121    15.994914619570
         O           -0.986647748258    -1.697280129151     1.181335636879    15.994914619570
         O            1.440864251742     1.223581870849    -0.289842363121    15.994914619570
         O            1.681058251742    -1.299176129151    -0.326165363121    15.994914619570
         O            2.898592251742    -0.065031129151     1.421549636879    15.994914619570
         O            3.714944251742     0.284650870849    -1.034873363121    15.994914619570
         C           -2.239089748258     0.769531870849     0.572898636879    12.000000000000
         C           -0.955344748258     0.813741870849    -0.286019363121    12.000000000000
         C           -2.843214748258    -0.605708129151     0.253681636879    12.000000000000
         C           -1.597353748258    -1.408697129151    -0.053045363121    12.000000000000
         C            0.262108251742     1.192676870849     0.538470636879    12.000000000000
         H           -1.998086748258     0.828882870849     1.642266636879     1.007825032230
         H           -1.077366748258     1.495772870849    -1.132442363121     1.007825032230
         H           -3.401750748258    -1.022479129151     1.101239636879     1.007825032230
         H           -1.768216748258    -2.294494129151    -0.672250363121     1.007825032230
         H            0.381213251742     0.497137870849     1.373631636879     1.007825032230
         H            0.137131251742     2.204733870849     0.939835636879     1.007825032230
         H           -2.951415748258     2.605150870849     0.606133636879     1.007825032230
         H           -4.102742748258     0.294335870849    -0.895539363121     1.007825032230
         H           -0.102342748258    -2.073724129151     1.003584636879     1.007825032230
         H            0.846873251742    -1.081499129151    -0.822616363121     1.007825032230
         H            3.786629251742     0.307253870849     1.575543636879     1.007825032230

  Basis Set: AUG-CC-PVTZ
    Blend: AUG-CC-PVTZ
  Basis Set: (AUG-CC-PVTZ AUX)
    Blend: AUG-CC-PVTZ-JKFIT
	 Reference Energy          =   -1135.8011809393804015 [Eh]
	 Singles Energy            =      -0.0000000000000000 [Eh]
	 Same-Spin Energy          =      -0.8151941894926673 [Eh]
	 Opposite-Spin Energy      =      -2.4209625348663733 [Eh]
	 Correlation Energy        =      -3.2361567243590406 [Eh]
	 Total Energy              =   -1139.0373376637394358 [Eh]

	 ================> DF-SCS-MP2 Energies <==================
	-----------------------------------------------------------
	 SCS Same-Spin Scale       =       0.3333333333333333 [-]
	 SCS Opposite-Spin Scale   =       1.2000000000000000 [-]
	 SCS Same-Spin Energy      =      -0.2717313964975557 [Eh]
	 SCS Opposite-Spin Energy  =      -2.9051550418396479 [Eh]
	 SCS Correlation Energy    =      -3.1768864383372035 [Eh]
	 SCS Total Energy          =   -1138.9780673777177071 [Eh]
	-----------------------------------------------------------

  Dipole Moment: [D]
     X:    -2.7729      Y:     2.7787      Z:     3.2610     Total:     5.1033

*** Psi4 exiting successfully. Buy a developer a beer!
