                               Psi4 1.3.2 release

  ==> Input File <==

--------------------------------------------------------------------------
#psi4
#
memory 32 gb

molecule  {
0 1
  P        2.6114510     0.0433530    -0.1897960
  O       -0.7765645    -0.5186063    -0.9116714
  O       -3.1471200     1.7525200     0.1857420
  O       -3.5574290    -0.5524670    -0.9560380
  O       -0.9262260    -1.6975490     1.1507850
  O        1.5012860     1.2233130    -0.3203930
  O        1.7414800    -1.2994450    -0.3567160
  O        2.9590140    -0.0653000     1.3909990
  O        3.7753660     0.2843820    -1.0654240
  C       -2.1786680     0.7692630     0.5423480
  C       -0.8949230     0.8134730    -0.3165700
  C       -2.7827930    -0.6059770     0.2231310
  C       -1.5369320    -1.4089660    -0.0835960
  C        0.3225300     1.1924080     0.5079200
  H       -1.9376650     0.8286140     1.6117160
  H       -1.0169450     1.4955040    -1.1629930
  H       -3.3413290    -1.0227480     1.0706890
  H       -1.7077950    -2.2947630    -0.7028010
  H        0.4416350     0.4968690     1.3430810
  H        0.1975530     2.2044650     0.9092850
  H       -2.8909940     2.6048820     0.5755830
  H       -4.0423210     0.2940670    -0.9260900
  H       -0.0419210    -2.0739930     0.9730340
  H        0.9072950    -1.0817680    -0.8531670
  H        3.8470510     0.3069850     1.5449930
units angstrom
no_reorient  #important for SAPT in psi4, default
symmetry c1  #important for SAPT in psi4, default
}

set PROPERTIES_ORIGIN ["COM"]
properties('MP2/aug-cc-pvtz', properties = ['dipole'])
--------------------------------------------------------------------------

    Molecular point group: c1
  Charge       = 0
  Multiplicity = 1
  Basis Set: AUG-CC-PVTZ
    Blend: AUG-CC-PVTZ
  Basis Set: (AUG-CC-PVTZ AUX)
    Blend: AUG-CC-PVTZ-JKFIT

    Orbital Energies [Eh]
    ---------------------

    Doubly Occupied:

       1A    -80.116103     2A    -20.612124     3A    -20.606048
       4A    -20.605716     5A    -20.603823     6A    -20.600915
       7A    -20.596510     8A    -20.573471     9A    -20.515539
      10A    -11.360972    11A    -11.322958    12A    -11.322817
      13A    -11.318693    14A    -11.305911    15A     -7.631058
      16A     -5.529472    17A     -5.529401    18A     -5.527892
      19A     -1.461838    20A     -1.447971    21A     -1.410654
      22A     -1.391515    23A     -1.379759    24A     -1.373478
      25A     -1.367480    26A     -1.296875    27A     -1.084494
      28A     -1.045547    29A     -0.947167    30A     -0.857407
      31A     -0.841185    32A     -0.828484    33A     -0.771403
      34A     -0.759505    35A     -0.746449    36A     -0.734511
      37A     -0.717928    38A     -0.694147    39A     -0.684051
      40A     -0.665806    41A     -0.653246    42A     -0.647364
      43A     -0.631364    44A     -0.614542    45A     -0.600811
      46A     -0.595584    47A     -0.583059    48A     -0.577990
      49A     -0.569046    50A     -0.559156    51A     -0.544526
      52A     -0.532761    53A     -0.527310    54A     -0.511234
      55A     -0.490844    56A     -0.488339    57A     -0.475835
      58A     -0.469479    59A     -0.466270    60A     -0.450240

  @DF-RHF Final Energy: -1135.82097297333507

   => Energetics <=

    Nuclear Repulsion Energy =           1214.9286898643506447
    One-Electron Energy =               -3983.1471649719678680
    Two-Electron Energy =                1632.3975021342823766
    Total Energy =                      -1135.8209729733350741
  Basis Set: (AUG-CC-PVTZ AUX)
    Blend: AUG-CC-PVTZ-RI
    Molecular point group: c1

    Geometry (in Angstrom), charge = 0, multiplicity = 1:

       Center              X                  Y                   Z               Mass
    ------------   -----------------  -----------------  -----------------  -----------------
         P            2.561518165623     0.050869363978    -0.167618525692    30.973761998420
         O           -0.826497334377    -0.511089936022    -0.889493925692    15.994914619570
         O           -3.197052834377     1.760036363978     0.207919474308    15.994914619570
         O           -3.607361834377    -0.544950636022    -0.933860525692    15.994914619570
         O           -0.976158834377    -1.690032636022     1.172962474308    15.994914619570
         O            1.451353165623     1.230829363978    -0.298215525692    15.994914619570
         O            1.691547165623    -1.291928636022    -0.334538525692    15.994914619570
         O            2.909081165623    -0.057783636022     1.413176474308    15.994914619570
         O            3.725433165623     0.291898363978    -1.043246525692    15.994914619570
         C           -2.228600834377     0.776779363978     0.564525474308    12.000000000000
         C           -0.944855834377     0.820989363978    -0.294392525692    12.000000000000
         C           -2.832725834377    -0.598460636022     0.245308474308    12.000000000000
         C           -1.586864834377    -1.401449636022    -0.061418525692    12.000000000000
         C            0.272597165623     1.199924363978     0.530097474308    12.000000000000
         H           -1.987597834377     0.836130363978     1.633893474308     1.007825032230
         H           -1.066877834377     1.503020363978    -1.140815525692     1.007825032230
         H           -3.391261834377    -1.015231636022     1.092866474308     1.007825032230
         H           -1.757727834377    -2.287246636022    -0.680623525692     1.007825032230
         H            0.391702165623     0.504385363978     1.365258474308     1.007825032230
         H            0.147620165623     2.211981363978     0.931462474308     1.007825032230
         H           -2.940926834377     2.612398363978     0.597760474308     1.007825032230
         H           -4.092253834377     0.301583363978    -0.903912525692     1.007825032230
         H           -0.091853834377    -2.066476636022     0.995211474308     1.007825032230
         H            0.857362165623    -1.074251636022    -0.830989525692     1.007825032230
         H            3.797118165623     0.314501363978     1.567170474308     1.007825032230

  Basis Set: AUG-CC-PVTZ
    Blend: AUG-CC-PVTZ
  Basis Set: (AUG-CC-PVTZ AUX)
    Blend: AUG-CC-PVTZ-JKFIT
	 Reference Energy          =   -1135.8209729733350741 [Eh]
	 Singles Energy            =      -0.0000000000000000 [Eh]
	 Same-Spin Energy          =      -0.8164421890974185 [Eh]
	 Opposite-Spin Energy      =      -2.4224742888805277 [Eh]
	 Correlation Energy        =      -3.2389164779779462 [Eh]
	 Total Energy              =   -1139.0598894513129835 [Eh]

	 ================> DF-SCS-MP2 Energies <==================
	-----------------------------------------------------------
	 SCS Same-Spin Scale       =       0.3333333333333333 [-]
	 SCS Opposite-Spin Scale   =       1.2000000000000000 [-]
	 SCS Same-Spin Energy      =      -0.2721473963658061 [Eh]
	 SCS Opposite-Spin Energy  =      -2.9069691466566332 [Eh]
	 SCS Correlation Energy    =      -3.1791165430224395 [Eh]
	 SCS Total Energy          =   -1139.0000895163575478 [Eh]
	-----------------------------------------------------------

  Dipole Moment: [D]
     X:    -3.3393      Y:     2.3146      Z:     4.0948     Total:     5.7685

*** Psi4 exiting successfully. Buy a developer a beer!
