                               Psi4 1.3.2 release

  ==> Input File <==

--------------------------------------------------------------------------
#psi4
#
memory 32 gb

molecule  {
0 1
  P        2.6114510     0.0433530    -0.1897960
  O       -0.7415730    -0.5166550    -0.8759300
  O       -3.1471200     1.7525200     0.1857420
  O       -3.5574290    -0.5524670    -0.9560380
  O       -0.9262260    -1.6975490     1.1507850
  O        1.5422633     1.1554357    -0.2585048
  O        1.7414800    -1.2994450    -0.3567160
  O        2.9590140    -0.0653000     1.3909990
  O        3.7753660     0.2843820    -1.0654240
  C       -2.1786680     0.7692630     0.5423480
  C       -0.8949230     0.8134730    -0.3165700
  C       -2.7827930    -0.6059770     0.2231310
  C       -1.5369320    -1.4089660    -0.0835960
  C        0.3225300     1.1924080     0.5079200
  H       -1.9376650     0.8286140     1.6117160
  H       -1.0169450     1.4955040    -1.1629930
  H       -3.3413290    -1.0227480     1.0706890
  H       -1.7077950    -2.2947630    -0.7028010
  H        0.4416350     0.4968690     1.3430810
  H        0.1975530     2.2044650     0.9092850
  H       -2.8909940     2.6048820     0.5755830
  H       -4.0423210     0.2940670    -0.9260900
  H       -0.0419210    -2.0739930     0.9730340
  H        0.9072950    -1.0817680    -0.8531670
  H        3.8470510     0.3069850     1.5449930
units angstrom
no_reorient  #important for SAPT in psi4, default
symmetry c1  #important for SAPT in psi4, default
}

set PROPERTIES_ORIGIN ["COM"]
properties('MP2/aug-cc-pvtz', properties = ['dipole'])
--------------------------------------------------------------------------

    Molecular point group: c1
  Charge       = 0
  Multiplicity = 1
  Basis Set: AUG-CC-PVTZ
    Blend: AUG-CC-PVTZ
  Basis Set: (AUG-CC-PVTZ AUX)
    Blend: AUG-CC-PVTZ-JKFIT

    Orbital Energies [Eh]
    ---------------------

    Doubly Occupied:

       1A    -80.104267     2A    -20.608463     3A    -20.605052
       4A    -20.604187     5A    -20.601807     6A    -20.594957
       7A    -20.591220     8A    -20.576272     9A    -20.509787
      10A    -11.363216    11A    -11.328491    12A    -11.326279
      13A    -11.322545    14A    -11.308956    15A     -7.620863
      16A     -5.519753    17A     -5.519065    18A     -5.517558
      19A     -1.470774    20A     -1.453633    21A     -1.413412
      22A     -1.392022    23A     -1.375053    24A     -1.374411
      25A     -1.369223    26A     -1.291723    27A     -1.089260
      28A     -1.051214    29A     -0.955697    30A     -0.860957
      31A     -0.841815    32A     -0.827860    33A     -0.774767
      34A     -0.762337    35A     -0.749342    36A     -0.735567
      37A     -0.715837    38A     -0.700457    39A     -0.687398
      40A     -0.669050    41A     -0.651085    42A     -0.648172
      43A     -0.636895    44A     -0.614347    45A     -0.602813
      46A     -0.596641    47A     -0.579501    48A     -0.577772
      49A     -0.570626    50A     -0.558869    51A     -0.539926
      52A     -0.533105    53A     -0.529316    54A     -0.513654
      55A     -0.492745    56A     -0.489665    57A     -0.473010
      58A     -0.468084    59A     -0.463175    60A     -0.453232

  @DF-RHF Final Energy: -1135.82371847872901

   => Energetics <=

    Nuclear Repulsion Energy =           1218.9797996926492942
    One-Electron Energy =               -3991.2526809409100679
    Two-Electron Energy =                1636.4491627695319949
    Total Energy =                      -1135.8237184787290062
  Basis Set: (AUG-CC-PVTZ AUX)
    Blend: AUG-CC-PVTZ-RI
    Molecular point group: c1

    Geometry (in Angstrom), charge = 0, multiplicity = 1:

       Center              X                  Y                   Z               Mass
    ------------   -----------------  -----------------  -----------------  -----------------
         P            2.556235499171     0.055453681073    -0.174407426038    30.973761998420
         O           -0.796788500829    -0.504554318927    -0.860541426038    15.994914619570
         O           -3.202335500829     1.764620681073     0.201130573962    15.994914619570
         O           -3.612644500829    -0.540366318927    -0.940649426038    15.994914619570
         O           -0.981441500829    -1.685448318927     1.166173573962    15.994914619570
         O            1.487047799171     1.167536381073    -0.243116226038    15.994914619570
         O            1.686264499171    -1.287344318927    -0.341327426038    15.994914619570
         O            2.903798499171    -0.053199318927     1.406387573962    15.994914619570
         O            3.720150499171     0.296482681073    -1.050035426038    15.994914619570
         C           -2.233883500829     0.781363681073     0.557736573962    12.000000000000
         C           -0.950138500829     0.825573681073    -0.301181426038    12.000000000000
         C           -2.838008500829    -0.593876318927     0.238519573962    12.000000000000
         C           -1.592147500829    -1.396865318927    -0.068207426038    12.000000000000
         C            0.267314499171     1.204508681073     0.523308573962    12.000000000000
         H           -1.992880500829     0.840714681073     1.627104573962     1.007825032230
         H           -1.072160500829     1.507604681073    -1.147604426038     1.007825032230
         H           -3.396544500829    -1.010647318927     1.086077573962     1.007825032230
         H           -1.763010500829    -2.282662318927    -0.687412426038     1.007825032230
         H            0.386419499171     0.508969681073     1.358469573962     1.007825032230
         H            0.142337499171     2.216565681073     0.924673573962     1.007825032230
         H           -2.946209500829     2.616982681073     0.590971573962     1.007825032230
         H           -4.097536500829     0.306167681073    -0.910701426038     1.007825032230
         H           -0.097136500829    -2.061892318927     0.988422573962     1.007825032230
         H            0.852079499171    -1.069667318927    -0.837778426038     1.007825032230
         H            3.791835499171     0.319085681073     1.560381573962     1.007825032230

  Basis Set: AUG-CC-PVTZ
    Blend: AUG-CC-PVTZ
  Basis Set: (AUG-CC-PVTZ AUX)
    Blend: AUG-CC-PVTZ-JKFIT
	 Reference Energy          =   -1135.8237184787290062 [Eh]
	 Singles Energy            =      -0.0000000000000000 [Eh]
	 Same-Spin Energy          =      -0.8151719618375864 [Eh]
	 Opposite-Spin Energy      =      -2.4186788281444156 [Eh]
	 Correlation Energy        =      -3.2338507899820019 [Eh]
	 Total Energy              =   -1139.0575692687109495 [Eh]

	 ================> DF-SCS-MP2 Energies <==================
	-----------------------------------------------------------
	 SCS Same-Spin Scale       =       0.3333333333333333 [-]
	 SCS Opposite-Spin Scale   =       1.2000000000000000 [-]
	 SCS Same-Spin Energy      =      -0.2717239872791954 [Eh]
	 SCS Opposite-Spin Energy  =      -2.9024145937732988 [Eh]
	 SCS Correlation Energy    =      -3.1741385810524942 [Eh]
	 SCS Total Energy          =   -1138.9978570597816088 [Eh]
	-----------------------------------------------------------

  Dipole Moment: [D]
     X:    -3.8928      Y:     2.5988      Z:     3.9307     Total:     6.1122

*** Psi4 exiting successfully. Buy a developer a beer!
