                               Psi4 1.3.2 release

  ==> Input File <==

--------------------------------------------------------------------------
#psi4
#
memory 32 gb

molecule  {
0 1
  P        2.6114510     0.0433530    -0.1897960
  O       -0.7415730    -0.5166550    -0.8759300
  O       -3.1471200     1.7525200     0.1857420
  O       -3.5574290    -0.5524670    -0.9560380
  O       -0.9262260    -1.6975490     1.1507850
  O        1.5012860     1.2233130    -0.3203930
  O        1.7414800    -1.2994450    -0.3567160
  O        2.9590140    -0.0653000     1.3909990
  O        3.7753660     0.2843820    -1.0654240
  C       -2.2281535     0.7879423     0.5510266
  C       -0.8949230     0.8134730    -0.3165700
  C       -2.7827930    -0.6059770     0.2231310
  C       -1.5369320    -1.4089660    -0.0835960
  C        0.3225300     1.1924080     0.5079200
  H       -1.9376650     0.8286140     1.6117160
  H       -1.0169450     1.4955040    -1.1629930
  H       -3.3413290    -1.0227480     1.0706890
  H       -1.7077950    -2.2947630    -0.7028010
  H        0.4416350     0.4968690     1.3430810
  H        0.1975530     2.2044650     0.9092850
  H       -2.8909940     2.6048820     0.5755830
  H       -4.0423210     0.2940670    -0.9260900
  H       -0.0419210    -2.0739930     0.9730340
  H        0.9072950    -1.0817680    -0.8531670
  H        3.8470510     0.3069850     1.5449930
units angstrom
no_reorient  #important for SAPT in psi4, default
symmetry c1  #important for SAPT in psi4, default
}

set PROPERTIES_ORIGIN ["COM"]
properties('MP2/aug-cc-pvtz', properties = ['dipole'])
--------------------------------------------------------------------------

    Molecular point group: c1
  Charge       = 0
  Multiplicity = 1
  Basis Set: AUG-CC-PVTZ
    Blend: AUG-CC-PVTZ
  Basis Set: (AUG-CC-PVTZ AUX)
    Blend: AUG-CC-PVTZ-JKFIT

    Orbital Energies [Eh]
    ---------------------

    Doubly Occupied:

       1A    -80.114167     2A    -20.611049     3A    -20.610506
       4A    -20.604004     5A    -20.602300     6A    -20.597674
       7A    -20.593986     8A    -20.574435     9A    -20.513933
      10A    -11.361959    11A    -11.323993    12A    -11.319751
      13A    -11.316677    14A    -11.306110    15A     -7.629118
      16A     -5.527537    17A     -5.527456    18A     -5.525958
      19A     -1.462032    20A     -1.447850    21A     -1.426074
      22A     -1.389738    23A     -1.377562    24A     -1.375719
      25A     -1.367561    26A     -1.295266    27A     -1.076416
      28A     -1.045206    29A     -0.945153    30A     -0.858771
      31A     -0.841747    32A     -0.826697    33A     -0.774003
      34A     -0.759983    35A     -0.749262    36A     -0.734755
      37A     -0.716347    38A     -0.691466    39A     -0.688408
      40A     -0.668075    41A     -0.652338    42A     -0.647369
      43A     -0.633792    44A     -0.614464    45A     -0.602639
      46A     -0.596879    47A     -0.581795    48A     -0.579241
      49A     -0.571595    50A     -0.559556    51A     -0.542530
      52A     -0.531039    53A     -0.526153    54A     -0.510914
      55A     -0.489498    56A     -0.483086    57A     -0.474396
      58A     -0.468388    59A     -0.463690    60A     -0.444187

  @DF-RHF Final Energy: -1135.82126234103771

   => Energetics <=

    Nuclear Repulsion Energy =           1215.2636148082603995
    One-Electron Energy =               -3983.8652435127014542
    Two-Electron Energy =                1632.7803663634035729
    Total Energy =                      -1135.8212623410377091
  Basis Set: (AUG-CC-PVTZ AUX)
    Blend: AUG-CC-PVTZ-RI
    Molecular point group: c1

    Geometry (in Angstrom), charge = 0, multiplicity = 1:

       Center              X                  Y                   Z               Mass
    ------------   -----------------  -----------------  -----------------  -----------------
         P            2.561666587806     0.049759184795    -0.170556645534    30.973761998420
         O           -0.791357412194    -0.510248815205    -0.856690645534    15.994914619570
         O           -3.196904412194     1.758926184795     0.204981354466    15.994914619570
         O           -3.607213412194    -0.546060815205    -0.936798645534    15.994914619570
         O           -0.976010412194    -1.691142815205     1.170024354466    15.994914619570
         O            1.451501587806     1.229719184795    -0.301153645534    15.994914619570
         O            1.691695587806    -1.293038815205    -0.337476645534    15.994914619570
         O            2.909229587806    -0.058893815205     1.410238354466    15.994914619570
         O            3.725581587806     0.290788184795    -1.046184645534    15.994914619570
         C           -2.277937912194     0.794348484795     0.570265954466    12.000000000000
         C           -0.944707412194     0.819879184795    -0.297330645534    12.000000000000
         C           -2.832577412194    -0.599570815205     0.242370354466    12.000000000000
         C           -1.586716412194    -1.402559815205    -0.064356645534    12.000000000000
         C            0.272745587806     1.198814184795     0.527159354466    12.000000000000
         H           -1.987449412194     0.835020184795     1.630955354466     1.007825032230
         H           -1.066729412194     1.501910184795    -1.143753645534     1.007825032230
         H           -3.391113412194    -1.016341815205     1.089928354466     1.007825032230
         H           -1.757579412194    -2.288356815205    -0.683561645534     1.007825032230
         H            0.391850587806     0.503275184795     1.362320354466     1.007825032230
         H            0.147768587806     2.210871184795     0.928524354466     1.007825032230
         H           -2.940778412194     2.611288184795     0.594822354466     1.007825032230
         H           -4.092105412194     0.300473184795    -0.906850645534     1.007825032230
         H           -0.091705412194    -2.067586815205     0.992273354466     1.007825032230
         H            0.857510587806    -1.075361815205    -0.833927645534     1.007825032230
         H            3.797266587806     0.313391184795     1.564232354466     1.007825032230

  Basis Set: AUG-CC-PVTZ
    Blend: AUG-CC-PVTZ
  Basis Set: (AUG-CC-PVTZ AUX)
    Blend: AUG-CC-PVTZ-JKFIT
	 Reference Energy          =   -1135.8212623410377091 [Eh]
	 Singles Energy            =      -0.0000000000000000 [Eh]
	 Same-Spin Energy          =      -0.8160533212566863 [Eh]
	 Opposite-Spin Energy      =      -2.4211430096875213 [Eh]
	 Correlation Energy        =      -3.2371963309442076 [Eh]
	 Total Energy              =   -1139.0584586719819526 [Eh]

	 ================> DF-SCS-MP2 Energies <==================
	-----------------------------------------------------------
	 SCS Same-Spin Scale       =       0.3333333333333333 [-]
	 SCS Opposite-Spin Scale   =       1.2000000000000000 [-]
	 SCS Same-Spin Energy      =      -0.2720177737522287 [Eh]
	 SCS Opposite-Spin Energy  =      -2.9053716116250254 [Eh]
	 SCS Correlation Energy    =      -3.1773893853772543 [Eh]
	 SCS Total Energy          =   -1138.9986517264148915 [Eh]
	-----------------------------------------------------------

  Dipole Moment: [D]
     X:    -3.6368      Y:     2.4123      Z:     4.0451     Total:     5.9505

*** Psi4 exiting successfully. Buy a developer a beer!
