                               Psi4 1.3.2 release

  ==> Input File <==

--------------------------------------------------------------------------
#psi4
#
memory 32 gb

molecule  {
0 1
  P        2.6114510     0.0433530    -0.1897960
  O       -0.7415730    -0.5166550    -0.8759300
  O       -3.1471200     1.7525200     0.1857420
  O       -3.5574290    -0.5524670    -0.9560380
  O       -0.9262260    -1.6975490     1.1507850
  O        1.5012860     1.2233130    -0.3203930
  O        1.7414800    -1.2994450    -0.3567160
  O        2.9590140    -0.0653000     1.3909990
  O        3.7753660     0.2843820    -1.0654240
  C       -2.2574372     0.7279392     0.4072634
  C       -0.8949230     0.8134730    -0.3165700
  C       -2.7827930    -0.6059770     0.2231310
  C       -1.5369320    -1.4089660    -0.0835960
  C        0.3225300     1.1924080     0.5079200
  H       -1.9376650     0.8286140     1.6117160
  H       -1.0169450     1.4955040    -1.1629930
  H       -3.3413290    -1.0227480     1.0706890
  H       -1.7077950    -2.2947630    -0.7028010
  H        0.4416350     0.4968690     1.3430810
  H        0.1975530     2.2044650     0.9092850
  H       -2.8909940     2.6048820     0.5755830
  H       -4.0423210     0.2940670    -0.9260900
  H       -0.0419210    -2.0739930     0.9730340
  H        0.9072950    -1.0817680    -0.8531670
  H        3.8470510     0.3069850     1.5449930
units angstrom
no_reorient  #important for SAPT in psi4, default
symmetry c1  #important for SAPT in psi4, default
}

set PROPERTIES_ORIGIN ["COM"]
properties('MP2/aug-cc-pvtz', properties = ['dipole'])
--------------------------------------------------------------------------

    Molecular point group: c1
  Charge       = 0
  Multiplicity = 1
  Basis Set: AUG-CC-PVTZ
    Blend: AUG-CC-PVTZ
  Basis Set: (AUG-CC-PVTZ AUX)
    Blend: AUG-CC-PVTZ-JKFIT

    Orbital Energies [Eh]
    ---------------------

    Doubly Occupied:

       1A    -80.115372     2A    -20.611227     3A    -20.608671
       4A    -20.606512     5A    -20.602905     6A    -20.598532
       7A    -20.594280     8A    -20.574066     9A    -20.514982
      10A    -11.364521    11A    -11.330555    12A    -11.322601
      13A    -11.318671    14A    -11.304391    15A     -7.630317
      16A     -5.528743    17A     -5.528653    18A     -5.527150
      19A     -1.465131    20A     -1.450343    21A     -1.427070
      22A     -1.391170    23A     -1.379170    24A     -1.377872
      25A     -1.369525    26A     -1.296283    27A     -1.086551
      28A     -1.054003    29A     -0.950457    30A     -0.864415
      31A     -0.840267    32A     -0.833033    33A     -0.772814
      34A     -0.761103    35A     -0.756599    36A     -0.721892
      37A     -0.717942    38A     -0.694186    39A     -0.690812
      40A     -0.669610    41A     -0.654525    42A     -0.650617
      43A     -0.635396    44A     -0.624736    45A     -0.601648
      46A     -0.600925    47A     -0.582426    48A     -0.574759
      49A     -0.569285    50A     -0.561758    51A     -0.543364
      52A     -0.531946    53A     -0.527429    54A     -0.503837
      55A     -0.493166    56A     -0.477537    57A     -0.473440
      58A     -0.468565    59A     -0.458785    60A     -0.449196

  @DF-RHF Final Energy: -1135.79687707128028

   => Energetics <=

    Nuclear Repulsion Energy =           1217.4372034568175422
    One-Electron Energy =               -3987.9966779174355906
    Two-Electron Energy =                1634.7625973893375431
    Total Energy =                      -1135.7968770712802780
  Basis Set: (AUG-CC-PVTZ AUX)
    Blend: AUG-CC-PVTZ-RI
    Molecular point group: c1

    Geometry (in Angstrom), charge = 0, multiplicity = 1:

       Center              X                  Y                   Z               Mass
    ------------   -----------------  -----------------  -----------------  -----------------
         P            2.563194305796     0.052889520623    -0.163056581441    30.973761998420
         O           -0.789829694204    -0.507118479377    -0.849190581441    15.994914619570
         O           -3.195376694204     1.762056520623     0.212481418559    15.994914619570
         O           -3.605685694204    -0.542930479377    -0.929298581441    15.994914619570
         O           -0.974482694204    -1.688012479377     1.177524418559    15.994914619570
         O            1.453029305796     1.232849520623    -0.293653581441    15.994914619570
         O            1.693223305796    -1.289908479377    -0.329976581441    15.994914619570
         O            2.910757305796    -0.055763479377     1.417738418559    15.994914619570
         O            3.727109305796     0.293918520623    -1.038684581441    15.994914619570
         C           -2.305693894204     0.737475720623     0.434002818559    12.000000000000
         C           -0.943179694204     0.823009520623    -0.289830581441    12.000000000000
         C           -2.831049694204    -0.596440479377     0.249870418559    12.000000000000
         C           -1.585188694204    -1.399429479377    -0.056856581441    12.000000000000
         C            0.274273305796     1.201944520623     0.534659418559    12.000000000000
         H           -1.985921694204     0.838150520623     1.638455418559     1.007825032230
         H           -1.065201694204     1.505040520623    -1.136253581441     1.007825032230
         H           -3.389585694204    -1.013211479377     1.097428418559     1.007825032230
         H           -1.756051694204    -2.285226479377    -0.676061581441     1.007825032230
         H            0.393378305796     0.506405520623     1.369820418559     1.007825032230
         H            0.149296305796     2.214001520623     0.936024418559     1.007825032230
         H           -2.939250694204     2.614418520623     0.602322418559     1.007825032230
         H           -4.090577694204     0.303603520623    -0.899350581441     1.007825032230
         H           -0.090177694204    -2.064456479377     0.999773418559     1.007825032230
         H            0.859038305796    -1.072231479377    -0.826427581441     1.007825032230
         H            3.798794305796     0.316521520623     1.571732418559     1.007825032230

  Basis Set: AUG-CC-PVTZ
    Blend: AUG-CC-PVTZ
  Basis Set: (AUG-CC-PVTZ AUX)
    Blend: AUG-CC-PVTZ-JKFIT
	 Reference Energy          =   -1135.7968770712802780 [Eh]
	 Singles Energy            =      -0.0000000000000000 [Eh]
	 Same-Spin Energy          =      -0.8170200982975515 [Eh]
	 Opposite-Spin Energy      =      -2.4224273126531943 [Eh]
	 Correlation Energy        =      -3.2394474109507456 [Eh]
	 Total Energy              =   -1139.0363244822310662 [Eh]

	 ================> DF-SCS-MP2 Energies <==================
	-----------------------------------------------------------
	 SCS Same-Spin Scale       =       0.3333333333333333 [-]
	 SCS Opposite-Spin Scale   =       1.2000000000000000 [-]
	 SCS Same-Spin Energy      =      -0.2723400327658505 [Eh]
	 SCS Opposite-Spin Energy  =      -2.9069127751838333 [Eh]
	 SCS Correlation Energy    =      -3.1792528079496840 [Eh]
	 SCS Total Energy          =   -1138.9761298792300295 [Eh]
	-----------------------------------------------------------

  Dipole Moment: [D]
     X:    -3.5426      Y:     2.3173      Z:     3.8425     Total:     5.7171

*** Psi4 exiting successfully. Buy a developer a beer!
