                               Psi4 1.3.2 release

  ==> Input File <==

--------------------------------------------------------------------------
#psi4
#
memory 32 gb

molecule  {
0 1
  P        2.6114510     0.0433530    -0.1897960
  O       -0.7415730    -0.5166550    -0.8759300
  O       -3.1471200     1.7525200     0.1857420
  O       -3.5574290    -0.5524670    -0.9560380
  O       -0.9262260    -1.6975490     1.1507850
  O        1.5012860     1.2233130    -0.3203930
  O        1.7414800    -1.2994450    -0.3567160
  O        2.9590140    -0.0653000     1.3909990
  O        3.7753660     0.2843820    -1.0654240
  C       -2.1786680     0.7692630     0.5423480
  C       -0.8949230     0.8134730    -0.3165700
  C       -2.6730607    -0.6135570     0.3901680
  C       -1.5369320    -1.4089660    -0.0835960
  C        0.3225300     1.1924080     0.5079200
  H       -1.9376650     0.8286140     1.6117160
  H       -1.0169450     1.4955040    -1.1629930
  H       -3.3413290    -1.0227480     1.0706890
  H       -1.7077950    -2.2947630    -0.7028010
  H        0.4416350     0.4968690     1.3430810
  H        0.1975530     2.2044650     0.9092850
  H       -2.8909940     2.6048820     0.5755830
  H       -4.0423210     0.2940670    -0.9260900
  H       -0.0419210    -2.0739930     0.9730340
  H        0.9072950    -1.0817680    -0.8531670
  H        3.8470510     0.3069850     1.5449930
units angstrom
no_reorient  #important for SAPT in psi4, default
symmetry c1  #important for SAPT in psi4, default
}

set PROPERTIES_ORIGIN ["COM"]
properties('MP2/aug-cc-pvtz', properties = ['dipole'])
--------------------------------------------------------------------------

    Molecular point group: c1
  Charge       = 0
  Multiplicity = 1
  Basis Set: AUG-CC-PVTZ
    Blend: AUG-CC-PVTZ
  Basis Set: (AUG-CC-PVTZ AUX)
    Blend: AUG-CC-PVTZ-JKFIT

    Orbital Energies [Eh]
    ---------------------

    Doubly Occupied:

       1A    -80.116705     2A    -20.612773     3A    -20.609147
       4A    -20.607986     5A    -20.607277     6A    -20.600573
       7A    -20.597080     8A    -20.553096     9A    -20.516088
      10A    -11.368407    11A    -11.329117    12A    -11.324004
      13A    -11.322649    14A    -11.311366    15A     -7.631657
      16A     -5.530077    17A     -5.529995    18A     -5.528489
      19A     -1.467308    20A     -1.451369    21A     -1.409904
      22A     -1.392827    23A     -1.380320    24A     -1.375422
      25A     -1.310669    26A     -1.297395    27A     -1.100233
      28A     -1.060925    29A     -0.953357    30A     -0.865735
      31A     -0.846504    32A     -0.835838    33A     -0.774475
      34A     -0.758723    35A     -0.748247    36A     -0.737845
      37A     -0.718934    38A     -0.696635    39A     -0.681901
      40A     -0.657424    41A     -0.653308    42A     -0.645876
      43A     -0.635357    44A     -0.614660    45A     -0.604215
      46A     -0.589438    47A     -0.580892    48A     -0.576365
      49A     -0.562753    50A     -0.550096    51A     -0.543543
      52A     -0.532034    53A     -0.528611    54A     -0.503917
      55A     -0.496307    56A     -0.484016    57A     -0.478603
      58A     -0.472387    59A     -0.468666    60A     -0.456571

  @DF-RHF Final Energy: -1135.78618338121760

   => Energetics <=

    Nuclear Repulsion Energy =           1216.2224297769664645
    One-Electron Energy =               -3985.6250428058233410
    Two-Electron Energy =                1633.6164296476390518
    Total Energy =                      -1135.7861833812175973
  Basis Set: (AUG-CC-PVTZ AUX)
    Blend: AUG-CC-PVTZ-RI
    Molecular point group: c1

    Geometry (in Angstrom), charge = 0, multiplicity = 1:

       Center              X                  Y                   Z               Mass
    ------------   -----------------  -----------------  -----------------  -----------------
         P            2.553360263902     0.051129121142    -0.178818134912    30.973761998420
         O           -0.799663736098    -0.508878878858    -0.864952134912    15.994914619570
         O           -3.205210736098     1.760296121142     0.196719865088    15.994914619570
         O           -3.615519736098    -0.544690878858    -0.945060134912    15.994914619570
         O           -0.984316736098    -1.689772878858     1.161762865088    15.994914619570
         O            1.443195263902     1.231089121142    -0.309415134912    15.994914619570
         O            1.683389263902    -1.291668878858    -0.345738134912    15.994914619570
         O            2.900923263902    -0.057523878858     1.401976865088    15.994914619570
         O            3.717275263902     0.292158121142    -1.054446134912    15.994914619570
         C           -2.236758736098     0.777039121142     0.553325865088    12.000000000000
         C           -0.953013736098     0.821249121142    -0.305592134912    12.000000000000
         C           -2.731151436098    -0.605780878858     0.401145865088    12.000000000000
         C           -1.595022736098    -1.401189878858    -0.072618134912    12.000000000000
         C            0.264439263902     1.200184121142     0.518897865088    12.000000000000
         H           -1.995755736098     0.836390121142     1.622693865088     1.007825032230
         H           -1.075035736098     1.503280121142    -1.152015134912     1.007825032230
         H           -3.399419736098    -1.014971878858     1.081666865088     1.007825032230
         H           -1.765885736098    -2.286986878858    -0.691823134912     1.007825032230
         H            0.383544263902     0.504645121142     1.354058865088     1.007825032230
         H            0.139462263902     2.212241121142     0.920262865088     1.007825032230
         H           -2.949084736098     2.612658121142     0.586560865088     1.007825032230
         H           -4.100411736098     0.301843121142    -0.915112134912     1.007825032230
         H           -0.100011736098    -2.066216878858     0.984011865088     1.007825032230
         H            0.849204263902    -1.073991878858    -0.842189134912     1.007825032230
         H            3.788960263902     0.314761121142     1.555970865088     1.007825032230

  Basis Set: AUG-CC-PVTZ
    Blend: AUG-CC-PVTZ
  Basis Set: (AUG-CC-PVTZ AUX)
    Blend: AUG-CC-PVTZ-JKFIT
	 Reference Energy          =   -1135.7861833812175973 [Eh]
	 Singles Energy            =      -0.0000000000000000 [Eh]
	 Same-Spin Energy          =      -0.8180809787137889 [Eh]
	 Opposite-Spin Energy      =      -2.4273396689232527 [Eh]
	 Correlation Energy        =      -3.2454206476370415 [Eh]
	 Total Energy              =   -1139.0316040288546446 [Eh]

	 ================> DF-SCS-MP2 Energies <==================
	-----------------------------------------------------------
	 SCS Same-Spin Scale       =       0.3333333333333333 [-]
	 SCS Opposite-Spin Scale   =       1.2000000000000000 [-]
	 SCS Same-Spin Energy      =      -0.2726936595712630 [Eh]
	 SCS Opposite-Spin Energy  =      -2.9128076027079031 [Eh]
	 SCS Correlation Energy    =      -3.1855012622791659 [Eh]
	 SCS Total Energy          =   -1138.9716846434967010 [Eh]
	-----------------------------------------------------------

  Dipole Moment: [D]
     X:    -3.0511      Y:     2.2475      Z:     4.4346     Total:     5.8332

*** Psi4 exiting successfully. Buy a developer a beer!
