                               Psi4 1.3.2 release

  ==> Input File <==

--------------------------------------------------------------------------
#psi4
#
memory 32 gb

molecule  {
0 1
  P        2.6114510     0.0433530    -0.1897960
  O       -0.7415730    -0.5166550    -0.8759300
  O       -3.1471200     1.7525200     0.1857420
  O       -3.5574290    -0.5524670    -0.9560380
  O       -0.9262260    -1.6975490     1.1507850
  O        1.5012860     1.2233130    -0.3203930
  O        1.7414800    -1.2994450    -0.3567160
  O        2.9590140    -0.0653000     1.3909990
  O        3.7753660     0.2843820    -1.0654240
  C       -2.1786680     0.7692630     0.5423480
  C       -0.8949230     0.8134730    -0.3165700
  C       -2.7434524    -0.5164214     0.2439184
  C       -1.5369320    -1.4089660    -0.0835960
  C        0.3225300     1.1924080     0.5079200
  H       -1.9376650     0.8286140     1.6117160
  H       -1.0169450     1.4955040    -1.1629930
  H       -3.3413290    -1.0227480     1.0706890
  H       -1.7077950    -2.2947630    -0.7028010
  H        0.4416350     0.4968690     1.3430810
  H        0.1975530     2.2044650     0.9092850
  H       -2.8909940     2.6048820     0.5755830
  H       -4.0423210     0.2940670    -0.9260900
  H       -0.0419210    -2.0739930     0.9730340
  H        0.9072950    -1.0817680    -0.8531670
  H        3.8470510     0.3069850     1.5449930
units angstrom
no_reorient  #important for SAPT in psi4, default
symmetry c1  #important for SAPT in psi4, default
}

set PROPERTIES_ORIGIN ["COM"]
properties('MP2/aug-cc-pvtz', properties = ['dipole'])
--------------------------------------------------------------------------

    Molecular point group: c1
  Charge       = 0
  Multiplicity = 1
  Basis Set: AUG-CC-PVTZ
    Blend: AUG-CC-PVTZ
  Basis Set: (AUG-CC-PVTZ AUX)
    Blend: AUG-CC-PVTZ-JKFIT

    Orbital Energies [Eh]
    ---------------------

    Doubly Occupied:

       1A    -80.115488     2A    -20.611681     3A    -20.608202
       4A    -20.605920     5A    -20.603192     6A    -20.598904
       7A    -20.594601     8A    -20.572923     9A    -20.515071
      10A    -11.364113    11A    -11.322493    12A    -11.321860
      13A    -11.319828    14A    -11.306871    15A     -7.630438
      16A     -5.528860    17A     -5.528774    18A     -5.527274
      19A     -1.464118    20A     -1.449038    21A     -1.413888
      22A     -1.391264    23A     -1.378682    24A     -1.371548
      25A     -1.359781    26A     -1.296405    27A     -1.097563
      28A     -1.050725    29A     -0.947772    30A     -0.863092
      31A     -0.840461    32A     -0.826552    33A     -0.774810
      34A     -0.755028    35A     -0.750110    36A     -0.737765
      37A     -0.717629    38A     -0.693519    39A     -0.681831
      40A     -0.664264    41A     -0.653586    42A     -0.648187
      43A     -0.628576    44A     -0.614379    45A     -0.602215
      46A     -0.591986    47A     -0.581620    48A     -0.576311
      49A     -0.571469    50A     -0.556613    51A     -0.543469
      52A     -0.533062    53A     -0.526573    54A     -0.519828
      55A     -0.496456    56A     -0.488868    57A     -0.475785
      58A     -0.468828    59A     -0.461455    60A     -0.453263

  @DF-RHF Final Energy: -1135.81021983553137

   => Energetics <=

    Nuclear Repulsion Energy =           1217.2416625222542734
    One-Electron Energy =               -3987.7140348340371929
    Two-Electron Energy =                1634.6621524762517765
    Total Energy =                      -1135.8102198355313703
  Basis Set: (AUG-CC-PVTZ AUX)
    Blend: AUG-CC-PVTZ-RI
    Molecular point group: c1

    Geometry (in Angstrom), charge = 0, multiplicity = 1:

       Center              X                  Y                   Z               Mass
    ------------   -----------------  -----------------  -----------------  -----------------
         P            2.557032568508     0.046061598815    -0.171188356404    30.973761998420
         O           -0.795991431492    -0.513946401185    -0.857322356404    15.994914619570
         O           -3.201538431492     1.755228598815     0.204349643596    15.994914619570
         O           -3.611847431492    -0.549758401185    -0.937430356404    15.994914619570
         O           -0.980644431492    -1.694840401185     1.169392643596    15.994914619570
         O            1.446867568508     1.226021598815    -0.301785356404    15.994914619570
         O            1.687061568508    -1.296736401185    -0.338108356404    15.994914619570
         O            2.904595568508    -0.062591401185     1.409606643596    15.994914619570
         O            3.720947568508     0.287090598815    -1.046816356404    15.994914619570
         C           -2.233086431492     0.771971598815     0.560955643596    12.000000000000
         C           -0.949341431492     0.816181598815    -0.297962356404    12.000000000000
         C           -2.797870831492    -0.513712801185     0.262526043596    12.000000000000
         C           -1.591350431492    -1.406257401185    -0.064988356404    12.000000000000
         C            0.268111568508     1.195116598815     0.526527643596    12.000000000000
         H           -1.992083431492     0.831322598815     1.630323643596     1.007825032230
         H           -1.071363431492     1.498212598815    -1.144385356404     1.007825032230
         H           -3.395747431492    -1.020039401185     1.089296643596     1.007825032230
         H           -1.762213431492    -2.292054401185    -0.684193356404     1.007825032230
         H            0.387216568508     0.499577598815     1.361688643596     1.007825032230
         H            0.143134568508     2.207173598815     0.927892643596     1.007825032230
         H           -2.945412431492     2.607590598815     0.594190643596     1.007825032230
         H           -4.096739431492     0.296775598815    -0.907482356404     1.007825032230
         H           -0.096339431492    -2.071284401185     0.991641643596     1.007825032230
         H            0.852876568508    -1.079059401185    -0.834559356404     1.007825032230
         H            3.792632568508     0.309693598815     1.563600643596     1.007825032230

  Basis Set: AUG-CC-PVTZ
    Blend: AUG-CC-PVTZ
  Basis Set: (AUG-CC-PVTZ AUX)
    Blend: AUG-CC-PVTZ-JKFIT
	 Reference Energy          =   -1135.8102198355313703 [Eh]
	 Singles Energy            =      -0.0000000000000000 [Eh]
	 Same-Spin Energy          =      -0.8172267105745443 [Eh]
	 Opposite-Spin Energy      =      -2.4237298856140521 [Eh]
	 Correlation Energy        =      -3.2409565961885964 [Eh]
	 Total Energy              =   -1139.0511764317200232 [Eh]

	 ================> DF-SCS-MP2 Energies <==================
	-----------------------------------------------------------
	 SCS Same-Spin Scale       =       0.3333333333333333 [-]
	 SCS Opposite-Spin Scale   =       1.2000000000000000 [-]
	 SCS Same-Spin Energy      =      -0.2724089035248481 [Eh]
	 SCS Opposite-Spin Energy  =      -2.9084758627368625 [Eh]
	 SCS Correlation Energy    =      -3.1808847662617108 [Eh]
	 SCS Total Energy          =   -1138.9911046017930403 [Eh]
	-----------------------------------------------------------

  Dipole Moment: [D]
     X:    -3.3249      Y:     2.3656      Z:     4.0639     Total:     5.7590

*** Psi4 exiting successfully. Buy a developer a beer!
