                               Psi4 1.3.2 release

  ==> Input File <==

--------------------------------------------------------------------------
#psi4
#
memory 32 gb

molecule  {
0 1
  P        2.6114510     0.0433530    -0.1897960
  O       -0.7415730    -0.5166550    -0.8759300
  O       -3.1471200     1.7525200     0.1857420
  O       -3.5574290    -0.5524670    -0.9560380
  O       -0.9262260    -1.6975490     1.1507850
  O        1.5012860     1.2233130    -0.3203930
  O        1.7414800    -1.2994450    -0.3567160
  O        2.9590140    -0.0653000     1.3909990
  O        3.7753660     0.2843820    -1.0654240
  C       -2.1786680     0.7692630     0.5423480
  C       -0.8949230     0.8134730    -0.3165700
  C       -2.7827930    -0.6059770     0.2231310
  C       -1.5369320    -1.4089660    -0.0835960
  C        0.3174627     1.1721797     0.5242734
  H       -1.9376650     0.8286140     1.6117160
  H       -1.0169450     1.4955040    -1.1629930
  H       -3.3413290    -1.0227480     1.0706890
  H       -1.7077950    -2.2947630    -0.7028010
  H        0.4416350     0.4968690     1.3430810
  H        0.1975530     2.2044650     0.9092850
  H       -2.8909940     2.6048820     0.5755830
  H       -4.0423210     0.2940670    -0.9260900
  H       -0.0419210    -2.0739930     0.9730340
  H        0.9072950    -1.0817680    -0.8531670
  H        3.8470510     0.3069850     1.5449930
units angstrom
no_reorient  #important for SAPT in psi4, default
symmetry c1  #important for SAPT in psi4, default
}

set PROPERTIES_ORIGIN ["COM"]
properties('MP2/aug-cc-pvtz', properties = ['dipole'])
--------------------------------------------------------------------------

    Molecular point group: c1
  Charge       = 0
  Multiplicity = 1
  Basis Set: AUG-CC-PVTZ
    Blend: AUG-CC-PVTZ
  Basis Set: (AUG-CC-PVTZ AUX)
    Blend: AUG-CC-PVTZ-JKFIT

    Orbital Energies [Eh]
    ---------------------

    Doubly Occupied:

       1A    -80.113928     2A    -20.610902     3A    -20.606483
       4A    -20.604425     5A    -20.603426     6A    -20.598163
       7A    -20.595183     8A    -20.575066     9A    -20.513874
      10A    -11.362383    11A    -11.323489    12A    -11.321398
      13A    -11.318918    14A    -11.307444    15A     -7.628948
      16A     -5.527344    17A     -5.527283    18A     -5.525797
      19A     -1.462736    20A     -1.447610    21A     -1.411687
      22A     -1.388602    23A     -1.377186    24A     -1.373836
      25A     -1.368800    26A     -1.295169    27A     -1.084972
      28A     -1.047265    29A     -0.946785    30A     -0.857116
      31A     -0.842788    32A     -0.830144    33A     -0.771774
      34A     -0.759243    35A     -0.747148    36A     -0.735115
      37A     -0.716464    38A     -0.690602    39A     -0.684202
      40A     -0.667719    41A     -0.651679    42A     -0.647751
      43A     -0.632494    44A     -0.613240    45A     -0.601477
      46A     -0.595712    47A     -0.581129    48A     -0.578846
      49A     -0.570191    50A     -0.560398    51A     -0.543545
      52A     -0.533741    53A     -0.526836    54A     -0.513103
      55A     -0.490299    56A     -0.488429    57A     -0.475207
      58A     -0.469105    59A     -0.465622    60A     -0.450270

  @DF-RHF Final Energy: -1135.82155158444675

   => Energetics <=

    Nuclear Repulsion Energy =           1216.0095180749067367
    One-Electron Energy =               -3985.3411546617599015
    Two-Electron Energy =                1633.5100850024064130
    Total Energy =                      -1135.8215515844467518
  Basis Set: (AUG-CC-PVTZ AUX)
    Blend: AUG-CC-PVTZ-RI
    Molecular point group: c1

    Geometry (in Angstrom), charge = 0, multiplicity = 1:

       Center              X                  Y                   Z               Mass
    ------------   -----------------  -----------------  -----------------  -----------------
         P            2.559349309484     0.051788977494    -0.170957036538    30.973761998420
         O           -0.793674690516    -0.508219022506    -0.857091036538    15.994914619570
         O           -3.199221690516     1.760955977494     0.204580963462    15.994914619570
         O           -3.609530690516    -0.544031022506    -0.937199036538    15.994914619570
         O           -0.978327690516    -1.689113022506     1.169623963462    15.994914619570
         O            1.449184309484     1.231748977494    -0.301554036538    15.994914619570
         O            1.689378309484    -1.291009022506    -0.337877036538    15.994914619570
         O            2.906912309484    -0.056864022506     1.409837963462    15.994914619570
         O            3.723264309484     0.292817977494    -1.046585036538    15.994914619570
         C           -2.230769690516     0.777698977494     0.561186963462    12.000000000000
         C           -0.947024690516     0.821908977494    -0.297731036538    12.000000000000
         C           -2.834894690516    -0.597541022506     0.241969963462    12.000000000000
         C           -1.589033690516    -1.400530022506    -0.064757036538    12.000000000000
         C            0.265361009484     1.180615677494     0.543112363462    12.000000000000
         H           -1.989766690516     0.837049977494     1.630554963462     1.007825032230
         H           -1.069046690516     1.503939977494    -1.144154036538     1.007825032230
         H           -3.393430690516    -1.014312022506     1.089527963462     1.007825032230
         H           -1.759896690516    -2.286327022506    -0.683962036538     1.007825032230
         H            0.389533309484     0.505304977494     1.361919963462     1.007825032230
         H            0.145451309484     2.212900977494     0.928123963462     1.007825032230
         H           -2.943095690516     2.613317977494     0.594421963462     1.007825032230
         H           -4.094422690516     0.302502977494    -0.907251036538     1.007825032230
         H           -0.094022690516    -2.065557022506     0.991872963462     1.007825032230
         H            0.855193309484    -1.073332022506    -0.834328036538     1.007825032230
         H            3.794949309484     0.315420977494     1.563831963462     1.007825032230

  Basis Set: AUG-CC-PVTZ
    Blend: AUG-CC-PVTZ
  Basis Set: (AUG-CC-PVTZ AUX)
    Blend: AUG-CC-PVTZ-JKFIT
	 Reference Energy          =   -1135.8215515844467518 [Eh]
	 Singles Energy            =      -0.0000000000000000 [Eh]
	 Same-Spin Energy          =      -0.8163120053492157 [Eh]
	 Opposite-Spin Energy      =      -2.4221030021098691 [Eh]
	 Correlation Energy        =      -3.2384150074590847 [Eh]
	 Total Energy              =   -1139.0599665919057770 [Eh]

	 ================> DF-SCS-MP2 Energies <==================
	-----------------------------------------------------------
	 SCS Same-Spin Scale       =       0.3333333333333333 [-]
	 SCS Opposite-Spin Scale   =       1.2000000000000000 [-]
	 SCS Same-Spin Energy      =      -0.2721040017830719 [Eh]
	 SCS Opposite-Spin Energy  =      -2.9065236025318426 [Eh]
	 SCS Correlation Energy    =      -3.1786276043149146 [Eh]
	 SCS Total Energy          =   -1139.0001791887616491 [Eh]
	-----------------------------------------------------------

  Dipole Moment: [D]
     X:    -3.5331      Y:     2.2867      Z:     4.0527     Total:     5.8427

*** Psi4 exiting successfully. Buy a developer a beer!
