                               Psi4 1.4a3.dev225

  ==> Input File <==

--------------------------------------------------------------------------
#psi4
#
memory 32 gb

molecule  {
0 1
  P        2.6113660     0.0433910    -0.1897900
  O       -0.7416560    -0.5164190    -0.8762010
  O       -3.1473860     1.7523070     0.1855430
  O       -3.5574330    -0.5529450    -0.9556820
  O       -0.9255690    -1.6972900     1.1506350
  O        1.5012550     1.2233910    -0.3202530
  O        1.7411940    -1.2993510    -0.3564950
  O        2.9591660    -0.0655390     1.3909200
  O        3.7751240     0.2843830    -1.0656400
  C       -2.1787050     0.7693270     0.5422590
  C       -0.8949630     0.8136090    -0.3166340
  C       -2.7825860    -0.6061320     0.2233240
  C       -1.5366410    -1.4089160    -0.0835620
  C        0.3224410     1.1924200     0.5080110
  H       -1.9377070     0.8289040     1.6116220
  H       -1.0168440     1.4957790    -1.1629650
  H       -3.3663272    -1.0417874     1.1097265
  H       -1.7074320    -2.2947510    -0.7027390
  H        0.4414920     0.4968360     1.3431340
  H        0.1974400     2.2044510     0.9094280
  H       -2.8916000     2.6047160     0.5754970
  H       -4.0429610     0.2932130    -0.9254450
  H       -0.0410590    -2.0731950     0.9726900
  H        0.9073710    -1.0816890    -0.8535130
  H        3.8468470     0.3075270     1.5450430
units angstrom
no_reorient  #important for SAPT in psi4, default
symmetry c1  #important for SAPT in psi4, default
}

set PROPERTIES_ORIGIN ["COM"]
properties('MP2/aug-cc-pvtz', properties = ['dipole'])
--------------------------------------------------------------------------

    Molecular point group: c1
  Charge       = 0
  Multiplicity = 1
  Basis Set: AUG-CC-PVTZ
    Blend: AUG-CC-PVTZ
  Basis Set: (AUG-CC-PVTZ AUX)
    Blend: AUG-CC-PVTZ-JKFIT

    Orbital Energies [Eh]
    ---------------------

    Doubly Occupied:

       1A    -80.115069     2A    -20.611295     3A    -20.606338
       4A    -20.605253     5A    -20.603873     6A    -20.598603
       7A    -20.594687     8A    -20.575817     9A    -20.514710
      10A    -11.362640    11A    -11.323721    12A    -11.321436
      13A    -11.318519    14A    -11.312903    15A     -7.630020
      16A     -5.528440    17A     -5.528358    18A     -5.526857
      19A     -1.463353    20A     -1.448417    21A     -1.411593
      22A     -1.390790    23A     -1.378321    24A     -1.373980
      25A     -1.368871    26A     -1.296045    27A     -1.084140
      28A     -1.045870    29A     -0.946836    30A     -0.857895
      31A     -0.840996    32A     -0.826415    33A     -0.771886
      34A     -0.759747    35A     -0.746998    36A     -0.733239
      37A     -0.716855    38A     -0.692857    39A     -0.682792
      40A     -0.667118    41A     -0.653000    42A     -0.647470
      43A     -0.631766    44A     -0.612680    45A     -0.601135
      46A     -0.595123    47A     -0.582154    48A     -0.577663
      49A     -0.570052    50A     -0.560298    51A     -0.543440
      52A     -0.532309    53A     -0.527211    54A     -0.512057
      55A     -0.490553    56A     -0.487874    57A     -0.475150
      58A     -0.468763    59A     -0.464530    60A     -0.449948

  @DF-RHF Final Energy: -1135.82026342284485

   => Energetics <=

    Nuclear Repulsion Energy =           1215.6258873031165422
    One-Electron Energy =               -3984.5588443018496037
    Two-Electron Energy =                1633.1126935758882155
    Total Energy =                      -1135.8202634228448460
  Basis Set: (AUG-CC-PVTZ AUX)
    Blend: AUG-CC-PVTZ-RI
    Molecular point group: c1

    Geometry (in Angstrom), charge = 0, multiplicity = 1:

       Center              X                  Y                   Z               Mass
    ------------   -----------------  -----------------  -----------------  -----------------
         P            2.559112283732     0.050858545880    -0.170265062743    30.973761998420
         O           -0.793909716268    -0.508951454120    -0.856676062743    15.994914619570
         O           -3.199639716268     1.759774545880     0.205067937257    15.994914619570
         O           -3.609686716268    -0.545477454120    -0.936157062743    15.994914619570
         O           -0.977822716268    -1.689822454120     1.170159937257    15.994914619570
         O            1.449001283732     1.230858545880    -0.300728062743    15.994914619570
         O            1.688940283732    -1.291883454120    -0.336970062743    15.994914619570
         O            2.906912283732    -0.058071454120     1.410444937257    15.994914619570
         O            3.722870283732     0.291850545880    -1.046115062743    15.994914619570
         C           -2.230958716268     0.776794545880     0.561783937257    12.000000000000
         C           -0.947216716268     0.821076545880    -0.297109062743    12.000000000000
         C           -2.834839716268    -0.598664454120     0.242848937257    12.000000000000
         C           -1.588894716268    -1.401448454120    -0.064037062743    12.000000000000
         C            0.270187283732     1.199887545880     0.527535937257    12.000000000000
         H           -1.989960716268     0.836371545880     1.631146937257     1.007825032230
         H           -1.069097716268     1.503246545880    -1.143440062743     1.007825032230
         H           -3.418580916268    -1.034319854120     1.129251437257     1.007825032230
         H           -1.759685716268    -2.287283454120    -0.683214062743     1.007825032230
         H            0.389238283732     0.504303545880     1.362658937257     1.007825032230
         H            0.145186283732     2.211918545880     0.928952937257     1.007825032230
         H           -2.943853716268     2.612183545880     0.595021937257     1.007825032230
         H           -4.095214716268     0.300680545880    -0.905920062743     1.007825032230
         H           -0.093312716268    -2.065727454120     0.992214937257     1.007825032230
         H            0.855117283732    -1.074221454120    -0.833988062743     1.007825032230
         H            3.794593283732     0.314994545880     1.564567937257     1.007825032230

  Basis Set: AUG-CC-PVTZ
    Blend: AUG-CC-PVTZ
  Basis Set: (AUG-CC-PVTZ AUX)
    Blend: AUG-CC-PVTZ-JKFIT
	 Reference Energy          =   -1135.8202634228448460 [Eh]
	 Singles Energy            =      -0.0000000000000000 [Eh]
	 Same-Spin Energy          =      -0.8163797211839050 [Eh]
	 Opposite-Spin Energy      =      -2.4223189648343921 [Eh]
	 Correlation Energy        =      -3.2386986860182971 [Eh]
	 Total Energy              =   -1139.0589621088631702 [Eh]

	 ================> DF-SCS-MP2 Energies <==================
	-----------------------------------------------------------
	 SCS Same-Spin Scale       =       0.3333333333333333 [-]
	 SCS Opposite-Spin Scale   =       1.2000000000000000 [-]
	 SCS Same-Spin Energy      =      -0.2721265737279683 [Eh]
	 SCS Opposite-Spin Energy  =      -2.9067827578012704 [Eh]
	 SCS Correlation Energy    =      -3.1789093315292387 [Eh]
	 SCS Total Energy          =   -1138.9991727543740581 [Eh]
	-----------------------------------------------------------

  Dipole Moment: [D]
     X:    -3.4727      Y:     2.3111      Z:     4.0067     Total:     5.7839

*** Psi4 exiting successfully. Buy a developer a beer!
