                               Psi4 1.3.2 release

  ==> Input File <==

--------------------------------------------------------------------------
#psi4
#
memory 32 gb

molecule  {
0 1
  P        2.6114510     0.0433530    -0.1897960
  O       -0.7415730    -0.5166550    -0.8759300
  O       -3.1471200     1.7525200     0.1857420
  O       -3.5625400    -0.5764397    -0.9535108
  O       -0.9262260    -1.6975490     1.1507850
  O        1.5012860     1.2233130    -0.3203930
  O        1.7414800    -1.2994450    -0.3567160
  O        2.9590140    -0.0653000     1.3909990
  O        3.7753660     0.2843820    -1.0654240
  C       -2.1786680     0.7692630     0.5423480
  C       -0.8949230     0.8134730    -0.3165700
  C       -2.7827930    -0.6059770     0.2231310
  C       -1.5369320    -1.4089660    -0.0835960
  C        0.3225300     1.1924080     0.5079200
  H       -1.9376650     0.8286140     1.6117160
  H       -1.0169450     1.4955040    -1.1629930
  H       -3.3413290    -1.0227480     1.0706890
  H       -1.7077950    -2.2947630    -0.7028010
  H        0.4416350     0.4968690     1.3430810
  H        0.1975530     2.2044650     0.9092850
  H       -2.8909940     2.6048820     0.5755830
  H       -4.0423210     0.2940670    -0.9260900
  H       -0.0419210    -2.0739930     0.9730340
  H        0.9072950    -1.0817680    -0.8531670
  H        3.8470510     0.3069850     1.5449930
units angstrom
no_reorient  #important for SAPT in psi4, default
symmetry c1  #important for SAPT in psi4, default
}

set PROPERTIES_ORIGIN ["COM"]
properties('MP2/aug-cc-pvtz', properties = ['dipole'])
--------------------------------------------------------------------------

    Molecular point group: c1
  Charge       = 0
  Multiplicity = 1
  Basis Set: AUG-CC-PVTZ
    Blend: AUG-CC-PVTZ
  Basis Set: (AUG-CC-PVTZ AUX)
    Blend: AUG-CC-PVTZ-JKFIT

    Orbital Energies [Eh]
    ---------------------

    Doubly Occupied:

       1A    -80.115017     2A    -20.611250     3A    -20.606956
       4A    -20.605227     5A    -20.603562     6A    -20.598492
       7A    -20.594451     8A    -20.576725     9A    -20.514665
      10A    -11.361703    11A    -11.323945    12A    -11.321456
      13A    -11.318484    14A    -11.306709    15A     -7.629968
      16A     -5.528389    17A     -5.528305    18A     -5.526805
      19A     -1.463109    20A     -1.448191    21A     -1.411245
      22A     -1.390738    23A     -1.378232    24A     -1.372443
      25A     -1.367547    26A     -1.296001    27A     -1.084356
      28A     -1.046135    29A     -0.946758    30A     -0.858015
      31A     -0.841521    32A     -0.828750    33A     -0.771891
      34A     -0.758031    35A     -0.747700    36A     -0.734446
      37A     -0.716873    38A     -0.692782    39A     -0.683635
      40A     -0.665392    41A     -0.653155    42A     -0.647738
      43A     -0.633251    44A     -0.613038    45A     -0.601219
      46A     -0.595780    47A     -0.582096    48A     -0.577568
      49A     -0.569913    50A     -0.560143    51A     -0.543406
      52A     -0.532218    53A     -0.527152    54A     -0.512369
      55A     -0.490706    56A     -0.487684    57A     -0.475129
      58A     -0.468999    59A     -0.465513    60A     -0.450734

  @DF-RHF Final Energy: -1135.82113518297410

   => Energetics <=

    Nuclear Repulsion Energy =           1215.5908576105236989
    One-Electron Energy =               -3984.4965666492976197
    Two-Electron Energy =                1633.0845738558000448
    Total Energy =                      -1135.8211351829741034
  Basis Set: (AUG-CC-PVTZ AUX)
    Blend: AUG-CC-PVTZ-RI
    Molecular point group: c1

    Geometry (in Angstrom), charge = 0, multiplicity = 1:

       Center              X                  Y                   Z               Mass
    ------------   -----------------  -----------------  -----------------  -----------------
         P            2.559440355852     0.052400673029    -0.170279621423    30.973761998420
         O           -0.793583644148    -0.507607326971    -0.856413621423    15.994914619570
         O           -3.199130644148     1.761567673029     0.205258378577    15.994914619570
         O           -3.614550644148    -0.567392026971    -0.933994421423    15.994914619570
         O           -0.978236644148    -1.688501326971     1.170301378577    15.994914619570
         O            1.449275355852     1.232360673029    -0.300876621423    15.994914619570
         O            1.689469355852    -1.290397326971    -0.337199621423    15.994914619570
         O            2.907003355852    -0.056252326971     1.410515378577    15.994914619570
         O            3.723355355852     0.293429673029    -1.045907621423    15.994914619570
         C           -2.230678644148     0.778310673029     0.561864378577    12.000000000000
         C           -0.946933644148     0.822520673029    -0.297053621423    12.000000000000
         C           -2.834803644148    -0.596929326971     0.242647378577    12.000000000000
         C           -1.588942644148    -1.399918326971    -0.064079621423    12.000000000000
         C            0.270519355852     1.201455673029     0.527436378577    12.000000000000
         H           -1.989675644148     0.837661673029     1.631232378577     1.007825032230
         H           -1.068955644148     1.504551673029    -1.143476621423     1.007825032230
         H           -3.393339644148    -1.013700326971     1.090205378577     1.007825032230
         H           -1.759805644148    -2.285715326971    -0.683284621423     1.007825032230
         H            0.389624355852     0.505916673029     1.362597378577     1.007825032230
         H            0.145542355852     2.213512673029     0.928801378577     1.007825032230
         H           -2.943004644148     2.613929673029     0.595099378577     1.007825032230
         H           -4.094331644148     0.303114673029    -0.906573621423     1.007825032230
         H           -0.093931644148    -2.064945326971     0.992550378577     1.007825032230
         H            0.855284355852    -1.072720326971    -0.833650621423     1.007825032230
         H            3.795040355852     0.316032673029     1.564509378577     1.007825032230

  Basis Set: AUG-CC-PVTZ
    Blend: AUG-CC-PVTZ
  Basis Set: (AUG-CC-PVTZ AUX)
    Blend: AUG-CC-PVTZ-JKFIT
	 Reference Energy          =   -1135.8211351829741034 [Eh]
	 Singles Energy            =      -0.0000000000000000 [Eh]
	 Same-Spin Energy          =      -0.8165178458165965 [Eh]
	 Opposite-Spin Energy      =      -2.4224759024465556 [Eh]
	 Correlation Energy        =      -3.2389937482631521 [Eh]
	 Total Energy              =   -1139.0601289312371591 [Eh]

	 ================> DF-SCS-MP2 Energies <==================
	-----------------------------------------------------------
	 SCS Same-Spin Scale       =       0.3333333333333333 [-]
	 SCS Opposite-Spin Scale   =       1.2000000000000000 [-]
	 SCS Same-Spin Energy      =      -0.2721726152721988 [Eh]
	 SCS Opposite-Spin Energy  =      -2.9069710829358666 [Eh]
	 SCS Correlation Energy    =      -3.1791436982080654 [Eh]
	 SCS Total Energy          =   -1139.0002788811821119 [Eh]
	-----------------------------------------------------------

  Dipole Moment: [D]
     X:    -3.4656      Y:     2.3465      Z:     4.0248     Total:     5.8065

*** Psi4 exiting successfully. Buy a developer a beer!
