                               Psi4 1.4a3.dev225

  ==> Input File <==

--------------------------------------------------------------------------
#psi4
#
memory 32 gb

molecule  {
0 1
  P        2.6113660     0.0433910    -0.1897900
  O       -0.7416560    -0.5164190    -0.8762010
  O       -3.1473860     1.7523070     0.1855430
  O       -3.5574330    -0.5529450    -0.9556820
  O       -0.9255690    -1.6972900     1.1506350
  O        1.5012550     1.2233910    -0.3202530
  O        1.7411940    -1.2993510    -0.3564950
  O        2.9591660    -0.0655390     1.3909200
  O        3.7751240     0.2843830    -1.0656400
  C       -2.1787050     0.7693270     0.5422590
  C       -0.8949630     0.8136090    -0.3166340
  C       -2.7825860    -0.6061320     0.2233240
  C       -1.5643570    -1.4400316    -0.0559278
  C        0.3224410     1.1924200     0.5080110
  H       -1.9377070     0.8289040     1.6116220
  H       -1.0168440     1.4957790    -1.1629650
  H       -3.3408870    -1.0228010     1.0710960
  H       -1.7074320    -2.2947510    -0.7027390
  H        0.4414920     0.4968360     1.3431340
  H        0.1974400     2.2044510     0.9094280
  H       -2.8916000     2.6047160     0.5754970
  H       -4.0429610     0.2932130    -0.9254450
  H       -0.0410590    -2.0731950     0.9726900
  H        0.9073710    -1.0816890    -0.8535130
  H        3.8468470     0.3075270     1.5450430
units angstrom
no_reorient  #important for SAPT in psi4, default
symmetry c1  #important for SAPT in psi4, default
}

set PROPERTIES_ORIGIN ["COM"]
properties('MP2/aug-cc-pvtz', properties = ['dipole'])
--------------------------------------------------------------------------

    Molecular point group: c1
  Charge       = 0
  Multiplicity = 1
  Basis Set: AUG-CC-PVTZ
    Blend: AUG-CC-PVTZ
  Basis Set: (AUG-CC-PVTZ AUX)
    Blend: AUG-CC-PVTZ-JKFIT

    Orbital Energies [Eh]
    ---------------------

    Doubly Occupied:

       1A    -80.113840     2A    -20.610445     3A    -20.605967
       4A    -20.603562     5A    -20.599976     6A    -20.596915
       7A    -20.595670     8A    -20.575690     9A    -20.513643
      10A    -11.364788    11A    -11.323191    12A    -11.319377
      13A    -11.314823    14A    -11.308746    15A     -7.628785
      16A     -5.527206    17A     -5.527124    18A     -5.525626
      19A     -1.458899    20A     -1.445525    21A     -1.412069
      22A     -1.389911    23A     -1.376915    24A     -1.374783
      25A     -1.364451    26A     -1.294938    27A     -1.080728
      28A     -1.048277    29A     -0.947385    30A     -0.857265
      31A     -0.838381    32A     -0.830250    33A     -0.772476
      34A     -0.762970    35A     -0.745336    36A     -0.732532
      37A     -0.715787    38A     -0.691514    39A     -0.683664
      40A     -0.666550    41A     -0.652014    42A     -0.646423
      43A     -0.632355    44A     -0.614990    45A     -0.600439
      46A     -0.595286    47A     -0.580267    48A     -0.577033
      49A     -0.568771    50A     -0.558220    51A     -0.542743
      52A     -0.532533    53A     -0.525557    54A     -0.511309
      55A     -0.494662    56A     -0.483664    57A     -0.473460
      58A     -0.468916    59A     -0.465087    60A     -0.448888

  @DF-RHF Final Energy: -1135.82009096000775

   => Energetics <=

    Nuclear Repulsion Energy =           1215.1139126975460840
    One-Electron Energy =               -3983.6308186956421196
    Two-Electron Energy =                1632.6968150380885163
    Total Energy =                      -1135.8200909600077466
  Basis Set: (AUG-CC-PVTZ AUX)
    Blend: AUG-CC-PVTZ-RI
    Molecular point group: c1

    Geometry (in Angstrom), charge = 0, multiplicity = 1:

       Center              X                  Y                   Z               Mass
    ------------   -----------------  -----------------  -----------------  -----------------
         P            2.560446749684     0.052398644711    -0.171537468147    30.973761998420
         O           -0.792575250316    -0.507411355289    -0.857948468147    15.994914619570
         O           -3.198305250316     1.761314644711     0.203795531853    15.994914619570
         O           -3.608352250316    -0.543937355289    -0.937429468147    15.994914619570
         O           -0.976488250316    -1.688282355289     1.168887531853    15.994914619570
         O            1.450335749684     1.232398644711    -0.302000468147    15.994914619570
         O            1.690274749684    -1.290343355289    -0.338242468147    15.994914619570
         O            2.908246749684    -0.056531355289     1.409172531853    15.994914619570
         O            3.724204749684     0.293390644711    -1.047387468147    15.994914619570
         C           -2.229624250316     0.778334644711     0.560511531853    12.000000000000
         C           -0.945882250316     0.822616644711    -0.298381468147    12.000000000000
         C           -2.833505250316    -0.597124355289     0.241576531853    12.000000000000
         C           -1.615276250316    -1.431023955289    -0.037675268147    12.000000000000
         C            0.271521749684     1.201427644711     0.526263531853    12.000000000000
         H           -1.988626250316     0.837911644711     1.629874531853     1.007825032230
         H           -1.067763250316     1.504786644711    -1.144712468147     1.007825032230
         H           -3.391806250316    -1.013793355289     1.089348531853     1.007825032230
         H           -1.758351250316    -2.285743355289    -0.684486468147     1.007825032230
         H            0.390572749684     0.505843644711     1.361386531853     1.007825032230
         H            0.146520749684     2.213458644711     0.927680531853     1.007825032230
         H           -2.942519250316     2.613723644711     0.593749531853     1.007825032230
         H           -4.093880250316     0.302220644711    -0.907192468147     1.007825032230
         H           -0.091978250316    -2.064187355289     0.990942531853     1.007825032230
         H            0.856451749684    -1.072681355289    -0.835260468147     1.007825032230
         H            3.795927749684     0.316534644711     1.563295531853     1.007825032230

  Basis Set: AUG-CC-PVTZ
    Blend: AUG-CC-PVTZ
  Basis Set: (AUG-CC-PVTZ AUX)
    Blend: AUG-CC-PVTZ-JKFIT
	 Reference Energy          =   -1135.8200909600077466 [Eh]
	 Singles Energy            =      -0.0000000000000000 [Eh]
	 Same-Spin Energy          =      -0.8164305861990894 [Eh]
	 Opposite-Spin Energy      =      -2.4222839018461433 [Eh]
	 Correlation Energy        =      -3.2387144880452325 [Eh]
	 Total Energy              =   -1139.0588054480529081 [Eh]

	 ================> DF-SCS-MP2 Energies <==================
	-----------------------------------------------------------
	 SCS Same-Spin Scale       =       0.3333333333333333 [-]
	 SCS Opposite-Spin Scale   =       1.2000000000000000 [-]
	 SCS Same-Spin Energy      =      -0.2721435287330298 [Eh]
	 SCS Opposite-Spin Energy  =      -2.9067406822153719 [Eh]
	 SCS Correlation Energy    =      -3.1788842109484015 [Eh]
	 SCS Total Energy          =   -1138.9989751709561006 [Eh]
	-----------------------------------------------------------

  Dipole Moment: [D]
     X:    -3.5982      Y:     2.1182      Z:     4.1584     Total:     5.8929

*** Psi4 exiting successfully. Buy a developer a beer!
