                               Psi4 1.3.2 release

  ==> Input File <==

--------------------------------------------------------------------------
#psi4
#
memory 32 gb

molecule  {
0 1
  P        2.6114510     0.0433530    -0.1897960
  O       -0.7415730    -0.5166550    -0.8759300
  O       -3.1471200     1.7525200     0.1857420
  O       -3.6676950    -0.6110670    -0.8769991
  O       -0.9262260    -1.6975490     1.1507850
  O        1.5012860     1.2233130    -0.3203930
  O        1.7414800    -1.2994450    -0.3567160
  O        2.9590140    -0.0653000     1.3909990
  O        3.7753660     0.2843820    -1.0654240
  C       -2.1786680     0.7692630     0.5423480
  C       -0.8949230     0.8134730    -0.3165700
  C       -2.7827930    -0.6059770     0.2231310
  C       -1.5369320    -1.4089660    -0.0835960
  C        0.3225300     1.1924080     0.5079200
  H       -1.9376650     0.8286140     1.6117160
  H       -1.0169450     1.4955040    -1.1629930
  H       -3.3413290    -1.0227480     1.0706890
  H       -1.7077950    -2.2947630    -0.7028010
  H        0.4416350     0.4968690     1.3430810
  H        0.1975530     2.2044650     0.9092850
  H       -2.8909940     2.6048820     0.5755830
  H       -4.0423210     0.2940670    -0.9260900
  H       -0.0419210    -2.0739930     0.9730340
  H        0.9072950    -1.0817680    -0.8531670
  H        3.8470510     0.3069850     1.5449930
units angstrom
no_reorient  #important for SAPT in psi4, default
symmetry c1  #important for SAPT in psi4, default
}

set PROPERTIES_ORIGIN ["COM"]
properties('MP2/aug-cc-pvtz', properties = ['dipole'])
--------------------------------------------------------------------------

    Molecular point group: c1
  Charge       = 0
  Multiplicity = 1
  Basis Set: AUG-CC-PVTZ
    Blend: AUG-CC-PVTZ
  Basis Set: (AUG-CC-PVTZ AUX)
    Blend: AUG-CC-PVTZ-JKFIT

    Orbital Energies [Eh]
    ---------------------

    Doubly Occupied:

       1A    -80.115784     2A    -20.611905     3A    -20.608063
       4A    -20.606163     5A    -20.605517     6A    -20.599392
       7A    -20.595659     8A    -20.574597     9A    -20.515358
      10A    -11.362985    11A    -11.325799    12A    -11.322572
      13A    -11.319991    14A    -11.306104    15A     -7.630736
      16A     -5.529157    17A     -5.529074    18A     -5.527572
      19A     -1.464095    20A     -1.448992    21A     -1.412184
      22A     -1.391566    23A     -1.379095    24A     -1.373136
      25A     -1.369841    26A     -1.296696    27A     -1.085877
      28A     -1.047581    29A     -0.947714    30A     -0.858753
      31A     -0.843221    32A     -0.830333    33A     -0.773010
      34A     -0.759711    35A     -0.747934    36A     -0.735720
      37A     -0.717721    38A     -0.693813    39A     -0.682023
      40A     -0.668333    41A     -0.654575    42A     -0.649411
      43A     -0.634047    44A     -0.612630    45A     -0.602126
      46A     -0.595266    47A     -0.582959    48A     -0.579652
      49A     -0.570785    50A     -0.562154    51A     -0.544064
      52A     -0.533829    53A     -0.529291    54A     -0.513382
      55A     -0.492577    56A     -0.487795    57A     -0.475829
      58A     -0.468721    59A     -0.461993    60A     -0.452772

  @DF-RHF Final Energy: -1135.82124629450618

   => Energetics <=

    Nuclear Repulsion Energy =           1213.7712740698680136
    One-Electron Energy =               -3980.7497755507915826
    Two-Electron Energy =                1631.1572551864173874
    Total Energy =                      -1135.8212462945061816
  Basis Set: (AUG-CC-PVTZ AUX)
    Blend: AUG-CC-PVTZ-RI
    Molecular point group: c1

    Geometry (in Angstrom), charge = 0, multiplicity = 1:

       Center              X                  Y                   Z               Mass
    ------------   -----------------  -----------------  -----------------  -----------------
         P            2.566752552316     0.054808562531    -0.175600039684    30.973761998420
         O           -0.786271447684    -0.505199437469    -0.861734039684    15.994914619570
         O           -3.191818447684     1.763975562531     0.199937960316    15.994914619570
         O           -3.712393447684    -0.599611437469    -0.862803139684    15.994914619570
         O           -0.970924447684    -1.686093437469     1.164980960316    15.994914619570
         O            1.456587552316     1.234768562531    -0.306197039684    15.994914619570
         O            1.696781552316    -1.287989437469    -0.342520039684    15.994914619570
         O            2.914315552316    -0.053844437469     1.405194960316    15.994914619570
         O            3.730667552316     0.295837562531    -1.051228039684    15.994914619570
         C           -2.223366447684     0.780718562531     0.556543960316    12.000000000000
         C           -0.939621447684     0.824928562531    -0.302374039684    12.000000000000
         C           -2.827491447684    -0.594521437469     0.237326960316    12.000000000000
         C           -1.581630447684    -1.397510437469    -0.069400039684    12.000000000000
         C            0.277831552316     1.203863562531     0.522115960316    12.000000000000
         H           -1.982363447684     0.840069562531     1.625911960316     1.007825032230
         H           -1.061643447684     1.506959562531    -1.148797039684     1.007825032230
         H           -3.386027447684    -1.011292437469     1.084884960316     1.007825032230
         H           -1.752493447684    -2.283307437469    -0.688605039684     1.007825032230
         H            0.396936552316     0.508324562531     1.357276960316     1.007825032230
         H            0.152854552316     2.215920562531     0.923480960316     1.007825032230
         H           -2.935692447684     2.616337562531     0.589778960316     1.007825032230
         H           -4.087019447684     0.305522562531    -0.911894039684     1.007825032230
         H           -0.086619447684    -2.062537437469     0.987229960316     1.007825032230
         H            0.862596552316    -1.070312437469    -0.838971039684     1.007825032230
         H            3.802352552316     0.318440562531     1.559188960316     1.007825032230

  Basis Set: AUG-CC-PVTZ
    Blend: AUG-CC-PVTZ
  Basis Set: (AUG-CC-PVTZ AUX)
    Blend: AUG-CC-PVTZ-JKFIT
	 Reference Energy          =   -1135.8212462945061816 [Eh]
	 Singles Energy            =      -0.0000000000000000 [Eh]
	 Same-Spin Energy          =      -0.8161051987379613 [Eh]
	 Opposite-Spin Energy      =      -2.4217718923597582 [Eh]
	 Correlation Energy        =      -3.2378770910977197 [Eh]
	 Total Energy              =   -1139.0591233856039253 [Eh]

	 ================> DF-SCS-MP2 Energies <==================
	-----------------------------------------------------------
	 SCS Same-Spin Scale       =       0.3333333333333333 [-]
	 SCS Opposite-Spin Scale   =       1.2000000000000000 [-]
	 SCS Same-Spin Energy      =      -0.2720350662459871 [Eh]
	 SCS Opposite-Spin Energy  =      -2.9061262708317099 [Eh]
	 SCS Correlation Energy    =      -3.1781613370776971 [Eh]
	 SCS Total Energy          =   -1138.9994076315838356 [Eh]
	-----------------------------------------------------------

  Dipole Moment: [D]
     X:    -3.1961      Y:     2.4496      Z:     3.9096     Total:     5.6125

*** Psi4 exiting successfully. Buy a developer a beer!
