                               Psi4 1.3.2 release

  ==> Input File <==

--------------------------------------------------------------------------
#psi4
#
memory 32 gb

molecule  {
0 1
  P        2.6114510     0.0433530    -0.1897960
  O       -0.7415730    -0.5166550    -0.8759300
  O       -3.1471200     1.7525200     0.1857420
  O       -3.5574290    -0.5524670    -0.9560380
  O       -0.9262260    -1.6975490     1.1507850
  O        1.5012860     1.2233130    -0.3203930
  O        1.7414800    -1.2994450    -0.3567160
  O        2.9590140    -0.0653000     1.3909990
  O        3.7753660     0.2843820    -1.0654240
  C       -2.1786680     0.7692630     0.5423480
  C       -0.8949230     0.8134730    -0.3165700
  C       -2.8398048    -0.4739885     0.2573129
  C       -1.5369320    -1.4089660    -0.0835960
  C        0.3225300     1.1924080     0.5079200
  H       -1.9376650     0.8286140     1.6117160
  H       -1.0169450     1.4955040    -1.1629930
  H       -3.3413290    -1.0227480     1.0706890
  H       -1.7077950    -2.2947630    -0.7028010
  H        0.4416350     0.4968690     1.3430810
  H        0.1975530     2.2044650     0.9092850
  H       -2.8909940     2.6048820     0.5755830
  H       -4.0423210     0.2940670    -0.9260900
  H       -0.0419210    -2.0739930     0.9730340
  H        0.9072950    -1.0817680    -0.8531670
  H        3.8470510     0.3069850     1.5449930
units angstrom
no_reorient  #important for SAPT in psi4, default
symmetry c1  #important for SAPT in psi4, default
}

set PROPERTIES_ORIGIN ["COM"]
properties('MP2/aug-cc-pvtz', properties = ['dipole'])
--------------------------------------------------------------------------

    Molecular point group: c1
  Charge       = 0
  Multiplicity = 1
  Basis Set: AUG-CC-PVTZ
    Blend: AUG-CC-PVTZ
  Basis Set: (AUG-CC-PVTZ AUX)
    Blend: AUG-CC-PVTZ-JKFIT

    Orbital Energies [Eh]
    ---------------------

    Doubly Occupied:

       1A    -80.115069     2A    -20.611265     3A    -20.606400
       4A    -20.605796     5A    -20.602194     6A    -20.598118
       7A    -20.591648     8A    -20.578695     9A    -20.514712
      10A    -11.362441    11A    -11.322318    12A    -11.321307
      13A    -11.320017    14A    -11.307292    15A     -7.630017
      16A     -5.528443    17A     -5.528351    18A     -5.526854
      19A     -1.461480    20A     -1.446735    21A     -1.416055
      22A     -1.390801    23A     -1.378034    24A     -1.375423
      25A     -1.367050    26A     -1.296035    27A     -1.093207
      28A     -1.042037    29A     -0.940029    30A     -0.861797
      31A     -0.838547    32A     -0.830428    33A     -0.774444
      34A     -0.753240    35A     -0.747359    36A     -0.735802
      37A     -0.717019    38A     -0.692224    39A     -0.683646
      40A     -0.666228    41A     -0.653991    42A     -0.647484
      43A     -0.631001    44A     -0.614386    45A     -0.601616
      46A     -0.596911    47A     -0.582982    48A     -0.576367
      49A     -0.572560    50A     -0.560568    51A     -0.543531
      52A     -0.531774    53A     -0.527115    54A     -0.513778
      55A     -0.494471    56A     -0.483827    57A     -0.474840
      58A     -0.468037    59A     -0.455247    60A     -0.448019

  @DF-RHF Final Energy: -1135.80029111550562

   => Energetics <=

    Nuclear Repulsion Energy =           1215.6424020501833638
    One-Electron Energy =               -3984.5712598796421844
    Two-Electron Energy =                1633.1285667139534326
    Total Energy =                      -1135.8002911155056154
  Basis Set: (AUG-CC-PVTZ AUX)
    Blend: AUG-CC-PVTZ-RI
    Molecular point group: c1

    Geometry (in Angstrom), charge = 0, multiplicity = 1:

       Center              X                  Y                   Z               Mass
    ------------   -----------------  -----------------  -----------------  -----------------
         P            2.562059231629     0.043847892737    -0.171887141688    30.973761998420
         O           -0.790964768371    -0.516160107263    -0.858021141688    15.994914619570
         O           -3.196511768371     1.753014892737     0.203650858312    15.994914619570
         O           -3.606820768371    -0.551972107263    -0.938129141688    15.994914619570
         O           -0.975617768371    -1.697054107263     1.168693858312    15.994914619570
         O            1.451894231629     1.223807892737    -0.302484141688    15.994914619570
         O            1.692088231629    -1.298950107263    -0.338807141688    15.994914619570
         O            2.909622231629    -0.064805107263     1.408907858312    15.994914619570
         O            3.725974231629     0.284876892737    -1.047515141688    15.994914619570
         C           -2.228059768371     0.769757892737     0.560256858312    12.000000000000
         C           -0.944314768371     0.813967892737    -0.298661141688    12.000000000000
         C           -2.889196568371    -0.473493607263     0.275221758312    12.000000000000
         C           -1.586323768371    -1.408471107263    -0.065687141688    12.000000000000
         C            0.273138231629     1.192902892737     0.525828858312    12.000000000000
         H           -1.987056768371     0.829108892737     1.629624858312     1.007825032230
         H           -1.066336768371     1.495998892737    -1.145084141688     1.007825032230
         H           -3.390720768371    -1.022253107263     1.088597858312     1.007825032230
         H           -1.757186768371    -2.294268107263    -0.684892141688     1.007825032230
         H            0.392243231629     0.497363892737     1.360989858312     1.007825032230
         H            0.148161231629     2.204959892737     0.927193858312     1.007825032230
         H           -2.940385768371     2.605376892737     0.593491858312     1.007825032230
         H           -4.091712768371     0.294561892737    -0.908181141688     1.007825032230
         H           -0.091312768371    -2.073498107263     0.990942858312     1.007825032230
         H            0.857903231629    -1.081273107263    -0.835258141688     1.007825032230
         H            3.797659231629     0.307479892737     1.562901858312     1.007825032230

  Basis Set: AUG-CC-PVTZ
    Blend: AUG-CC-PVTZ
  Basis Set: (AUG-CC-PVTZ AUX)
    Blend: AUG-CC-PVTZ-JKFIT
	 Reference Energy          =   -1135.8002911155056154 [Eh]
	 Singles Energy            =      -0.0000000000000000 [Eh]
	 Same-Spin Energy          =      -0.8176063856773409 [Eh]
	 Opposite-Spin Energy      =      -2.4245933155940618 [Eh]
	 Correlation Energy        =      -3.2421997012714026 [Eh]
	 Total Energy              =   -1139.0424908167769900 [Eh]

	 ================> DF-SCS-MP2 Energies <==================
	-----------------------------------------------------------
	 SCS Same-Spin Scale       =       0.3333333333333333 [-]
	 SCS Opposite-Spin Scale   =       1.2000000000000000 [-]
	 SCS Same-Spin Energy      =      -0.2725354618924469 [Eh]
	 SCS Opposite-Spin Energy  =      -2.9095119787128740 [Eh]
	 SCS Correlation Energy    =      -3.1820474406053210 [Eh]
	 SCS Total Energy          =   -1138.9823385561110172 [Eh]
	-----------------------------------------------------------

  Dipole Moment: [D]
     X:    -3.4578      Y:     2.3882      Z:     4.0026     Total:     5.8035

*** Psi4 exiting successfully. Buy a developer a beer!
