                               Psi4 1.4a3.dev225

  ==> Input File <==

--------------------------------------------------------------------------
#psi4
#
memory 32 gb

molecule  {
0 1
  P        2.6113660     0.0433910    -0.1897900
  O       -0.7416560    -0.5164190    -0.8762010
  O       -3.1473860     1.7523070     0.1855430
  O       -3.5574330    -0.5529450    -0.9556820
  O       -0.9255690    -1.6972900     1.1506350
  O        1.5012550     1.2233910    -0.3202530
  O        1.7411940    -1.2993510    -0.3564950
  O        2.9591660    -0.0655390     1.3909200
  O        3.7751240     0.2843830    -1.0656400
  C       -2.1787050     0.7693270     0.5422590
  C       -0.8949630     0.8136090    -0.3166340
  C       -2.7825860    -0.6061320     0.2233240
  C       -1.5366410    -1.4089160    -0.0835620
  C        0.3384761     1.1974095     0.5188729
  H       -1.9377070     0.8289040     1.6116220
  H       -1.0168440     1.4957790    -1.1629650
  H       -3.3408870    -1.0228010     1.0710960
  H       -1.7074320    -2.2947510    -0.7027390
  H        0.4414920     0.4968360     1.3431340
  H        0.1974400     2.2044510     0.9094280
  H       -2.8916000     2.6047160     0.5754970
  H       -4.0429610     0.2932130    -0.9254450
  H       -0.0410590    -2.0731950     0.9726900
  H        0.9073710    -1.0816890    -0.8535130
  H        3.8468470     0.3075270     1.5450430
units angstrom
no_reorient  #important for SAPT in psi4, default
symmetry c1  #important for SAPT in psi4, default
}

set PROPERTIES_ORIGIN ["COM"]
properties('MP2/aug-cc-pvtz', properties = ['dipole'])
--------------------------------------------------------------------------

    Molecular point group: c1
  Charge       = 0
  Multiplicity = 1
  Basis Set: AUG-CC-PVTZ
    Blend: AUG-CC-PVTZ
  Basis Set: (AUG-CC-PVTZ AUX)
    Blend: AUG-CC-PVTZ-JKFIT

    Orbital Energies [Eh]
    ---------------------

    Doubly Occupied:

       1A    -80.115466     2A    -20.611608     3A    -20.606057
       4A    -20.605808     5A    -20.603228     6A    -20.598824
       7A    -20.594726     8A    -20.574535     9A    -20.514980
      10A    -11.361943    11A    -11.322638    12A    -11.320642
      13A    -11.318325    14A    -11.306860    15A     -7.630431
      16A     -5.528855    17A     -5.528759    18A     -5.527268
      19A     -1.463392    20A     -1.448732    21A     -1.411040
      22A     -1.392073    23A     -1.378883    24A     -1.373366
      25A     -1.368386    26A     -1.296388    27A     -1.081708
      28A     -1.045294    29A     -0.947302    30A     -0.857693
      31A     -0.841820    32A     -0.829277    33A     -0.771864
      34A     -0.759429    35A     -0.747167    36A     -0.734348
      37A     -0.717273    38A     -0.693491    39A     -0.683966
      40A     -0.667219    41A     -0.653853    42A     -0.647756
      43A     -0.632697    44A     -0.613671    45A     -0.600544
      46A     -0.596033    47A     -0.582605    48A     -0.577797
      49A     -0.569666    50A     -0.559749    51A     -0.544141
      52A     -0.532925    53A     -0.527213    54A     -0.512224
      55A     -0.490326    56A     -0.487349    57A     -0.474949
      58A     -0.469322    59A     -0.465709    60A     -0.448449

  @DF-RHF Final Energy: -1135.82259938589300

   => Energetics <=

    Nuclear Repulsion Energy =           1215.7350929916435689
    One-Electron Energy =               -3984.7793069362269307
    Two-Electron Energy =                1633.2216145586901348
    Total Energy =                      -1135.8225993858929996
  Basis Set: (AUG-CC-PVTZ AUX)
    Blend: AUG-CC-PVTZ-RI
    Molecular point group: c1

    Geometry (in Angstrom), charge = 0, multiplicity = 1:

       Center              X                  Y                   Z               Mass
    ------------   -----------------  -----------------  -----------------  -----------------
         P            2.558164273681     0.050515057228    -0.170662464495    30.973761998420
         O           -0.794857726319    -0.509294942772    -0.857073464495    15.994914619570
         O           -3.200587726319     1.759431057228     0.204670535505    15.994914619570
         O           -3.610634726319    -0.545820942772    -0.936554464495    15.994914619570
         O           -0.978770726319    -1.690165942772     1.169762535505    15.994914619570
         O            1.448053273681     1.230515057228    -0.301125464495    15.994914619570
         O            1.687992273681    -1.292226942772    -0.337367464495    15.994914619570
         O            2.905964273681    -0.058414942772     1.410047535505    15.994914619570
         O            3.721922273681     0.291507057228    -1.046512464495    15.994914619570
         C           -2.231906726319     0.776451057228     0.561386535505    12.000000000000
         C           -0.948164726319     0.820733057228    -0.297506464495    12.000000000000
         C           -2.835787726319    -0.599007942772     0.242451535505    12.000000000000
         C           -1.589842726319    -1.401791942772    -0.064434464495    12.000000000000
         C            0.285274373681     1.204533557228     0.538000435505    12.000000000000
         H           -1.990908726319     0.836028057228     1.630749535505     1.007825032230
         H           -1.070045726319     1.502903057228    -1.143837464495     1.007825032230
         H           -3.394088726319    -1.015676942772     1.090223535505     1.007825032230
         H           -1.760633726319    -2.287626942772    -0.683611464495     1.007825032230
         H            0.388290273681     0.503960057228     1.362261535505     1.007825032230
         H            0.144238273681     2.211575057228     0.928555535505     1.007825032230
         H           -2.944801726319     2.611840057228     0.594624535505     1.007825032230
         H           -4.096162726319     0.300337057228    -0.906317464495     1.007825032230
         H           -0.094260726319    -2.066070942772     0.991817535505     1.007825032230
         H            0.854169273681    -1.074564942772    -0.834385464495     1.007825032230
         H            3.793645273681     0.314651057228     1.564170535505     1.007825032230

  Basis Set: AUG-CC-PVTZ
    Blend: AUG-CC-PVTZ
  Basis Set: (AUG-CC-PVTZ AUX)
    Blend: AUG-CC-PVTZ-JKFIT
	 Reference Energy          =   -1135.8225993858929996 [Eh]
	 Singles Energy            =      -0.0000000000000000 [Eh]
	 Same-Spin Energy          =      -0.8161526627576008 [Eh]
	 Opposite-Spin Energy      =      -2.4217138480358398 [Eh]
	 Correlation Energy        =      -3.2378665107934408 [Eh]
	 Total Energy              =   -1139.0604658966865372 [Eh]

	 ================> DF-SCS-MP2 Energies <==================
	-----------------------------------------------------------
	 SCS Same-Spin Scale       =       0.3333333333333333 [-]
	 SCS Opposite-Spin Scale   =       1.2000000000000000 [-]
	 SCS Same-Spin Energy      =      -0.2720508875858669 [Eh]
	 SCS Opposite-Spin Energy  =      -2.9060566176430078 [Eh]
	 SCS Correlation Energy    =      -3.1781075052288745 [Eh]
	 SCS Total Energy          =   -1139.0007068911218084 [Eh]
	-----------------------------------------------------------

  Dipole Moment: [D]
     X:    -3.4336      Y:     2.3006      Z:     4.0312     Total:     5.7735

*** Psi4 exiting successfully. Buy a developer a beer!
