                               Psi4 1.3.2 release

  ==> Input File <==

--------------------------------------------------------------------------
#psi4
#
memory 32 gb

molecule  {
0 1
  P        2.6114510     0.0433530    -0.1897960
  O       -0.7415730    -0.5166550    -0.8759300
  O       -3.1471200     1.7525200     0.1857420
  O       -3.5574290    -0.5524670    -0.9560380
  O       -0.9262260    -1.6975490     1.1507850
  O        1.5012860     1.2233130    -0.3203930
  O        1.7414800    -1.2994450    -0.3567160
  O        2.9590140    -0.0653000     1.3909990
  O        3.7753660     0.2843820    -1.0654240
  C       -2.1786680     0.7692630     0.5423480
  C       -0.8949230     0.8134730    -0.3165700
  C       -2.8198946    -0.5179605     0.2473805
  C       -1.5369320    -1.4089660    -0.0835960
  C        0.3225300     1.1924080     0.5079200
  H       -1.9376650     0.8286140     1.6117160
  H       -1.0169450     1.4955040    -1.1629930
  H       -3.3413290    -1.0227480     1.0706890
  H       -1.7077950    -2.2947630    -0.7028010
  H        0.4416350     0.4968690     1.3430810
  H        0.1975530     2.2044650     0.9092850
  H       -2.8909940     2.6048820     0.5755830
  H       -4.0423210     0.2940670    -0.9260900
  H       -0.0419210    -2.0739930     0.9730340
  H        0.9072950    -1.0817680    -0.8531670
  H        3.8470510     0.3069850     1.5449930
units angstrom
no_reorient  #important for SAPT in psi4, default
symmetry c1  #important for SAPT in psi4, default
}

set PROPERTIES_ORIGIN ["COM"]
properties('MP2/aug-cc-pvtz', properties = ['dipole'])
--------------------------------------------------------------------------

    Molecular point group: c1
  Charge       = 0
  Multiplicity = 1
  Basis Set: AUG-CC-PVTZ
    Blend: AUG-CC-PVTZ
  Basis Set: (AUG-CC-PVTZ AUX)
    Blend: AUG-CC-PVTZ-JKFIT

    Orbital Energies [Eh]
    ---------------------

    Doubly Occupied:

       1A    -80.115046     2A    -20.611257     3A    -20.606337
       4A    -20.605583     5A    -20.602604     6A    -20.598251
       7A    -20.592687     8A    -20.577215     9A    -20.514690
      10A    -11.362610    11A    -11.322025    12A    -11.321953
      13A    -11.319462    14A    -11.306674    15A     -7.629995
      16A     -5.528419    17A     -5.528331    18A     -5.526832
      19A     -1.461957    20A     -1.447209    21A     -1.414352
      22A     -1.390770    23A     -1.378096    24A     -1.374516
      25A     -1.367760    26A     -1.296018    27A     -1.089977
      28A     -1.042619    29A     -0.942530    30A     -0.860369
      31A     -0.839603    32A     -0.830560    33A     -0.773209
      34A     -0.755240    35A     -0.747337    36A     -0.735476
      37A     -0.716975    38A     -0.692427    39A     -0.683960
      40A     -0.666423    41A     -0.653599    42A     -0.647459
      43A     -0.631287    44A     -0.614524    45A     -0.601208
      46A     -0.596745    47A     -0.582410    48A     -0.576188
      49A     -0.571814    50A     -0.560026    51A     -0.543460
      52A     -0.531819    53A     -0.526737    54A     -0.513554
      55A     -0.493523    56A     -0.484905    57A     -0.474745
      58A     -0.467928    59A     -0.457673    60A     -0.453993

  @DF-RHF Final Energy: -1135.81237119034495

   => Energetics <=

    Nuclear Repulsion Energy =           1215.7435502569244363
    One-Electron Energy =               -3984.7899491350517565
    Two-Electron Energy =                1633.2340276877826000
    Total Energy =                      -1135.8123711903449475
  Basis Set: (AUG-CC-PVTZ AUX)
    Blend: AUG-CC-PVTZ-RI
    Molecular point group: c1

    Geometry (in Angstrom), charge = 0, multiplicity = 1:

       Center              X                  Y                   Z               Mass
    ------------   -----------------  -----------------  -----------------  -----------------
         P            2.561020525089     0.046141892998    -0.171368972667    30.973761998420
         O           -0.792003474911    -0.513866107002    -0.857502972667    15.994914619570
         O           -3.197550474911     1.755308892998     0.204169027333    15.994914619570
         O           -3.607859474911    -0.549678107002    -0.937610972667    15.994914619570
         O           -0.976656474911    -1.694760107002     1.169212027333    15.994914619570
         O            1.450855525089     1.226101892998    -0.301965972667    15.994914619570
         O            1.691049525089    -1.296656107002    -0.338288972667    15.994914619570
         O            2.908583525089    -0.062511107002     1.409426027333    15.994914619570
         O            3.724935525089     0.287170892998    -1.046996972667    15.994914619570
         C           -2.229098474911     0.772051892998     0.560775027333    12.000000000000
         C           -0.945353474911     0.816261892998    -0.298142972667    12.000000000000
         C           -2.870325074911    -0.515171607002     0.265807527333    12.000000000000
         C           -1.587362474911    -1.406177107002    -0.065168972667    12.000000000000
         C            0.272099525089     1.195196892998     0.526347027333    12.000000000000
         H           -1.988095474911     0.831402892998     1.630143027333     1.007825032230
         H           -1.067375474911     1.498292892998    -1.144565972667     1.007825032230
         H           -3.391759474911    -1.019959107002     1.089116027333     1.007825032230
         H           -1.758225474911    -2.291974107002    -0.684373972667     1.007825032230
         H            0.391204525089     0.499657892998     1.361508027333     1.007825032230
         H            0.147122525089     2.207253892998     0.927712027333     1.007825032230
         H           -2.941424474911     2.607670892998     0.594010027333     1.007825032230
         H           -4.092751474911     0.296855892998    -0.907662972667     1.007825032230
         H           -0.092351474911    -2.071204107002     0.991461027333     1.007825032230
         H            0.856864525089    -1.078979107002    -0.834739972667     1.007825032230
         H            3.796620525089     0.309773892998     1.563420027333     1.007825032230

  Basis Set: AUG-CC-PVTZ
    Blend: AUG-CC-PVTZ
  Basis Set: (AUG-CC-PVTZ AUX)
    Blend: AUG-CC-PVTZ-JKFIT
	 Reference Energy          =   -1135.8123711903449475 [Eh]
	 Singles Energy            =      -0.0000000000000000 [Eh]
	 Same-Spin Energy          =      -0.8168965362212226 [Eh]
	 Opposite-Spin Energy      =      -2.4232297209621332 [Eh]
	 Correlation Energy        =      -3.2401262571833556 [Eh]
	 Total Energy              =   -1139.0524974475283670 [Eh]

	 ================> DF-SCS-MP2 Energies <==================
	-----------------------------------------------------------
	 SCS Same-Spin Scale       =       0.3333333333333333 [-]
	 SCS Opposite-Spin Scale   =       1.2000000000000000 [-]
	 SCS Same-Spin Energy      =      -0.2722988454070742 [Eh]
	 SCS Opposite-Spin Energy  =      -2.9078756651545596 [Eh]
	 SCS Correlation Energy    =      -3.1801745105616339 [Eh]
	 SCS Total Energy          =   -1138.9925457009064758 [Eh]
	-----------------------------------------------------------

  Dipole Moment: [D]
     X:    -3.4653      Y:     2.3579      Z:     4.0156     Total:     5.8046

*** Psi4 exiting successfully. Buy a developer a beer!
