                               Psi4 1.3.2 release

  ==> Input File <==

--------------------------------------------------------------------------
#psi4
#
memory 32 gb

molecule  {
0 1
  P        2.6114510     0.0433530    -0.1897960
  O       -0.7415730    -0.5166550    -0.8759300
  O       -3.1471200     1.7525200     0.1857420
  O       -3.5574290    -0.5524670    -0.9560380
  O       -0.9084184    -1.7095943     1.1389144
  O        1.5012860     1.2233130    -0.3203930
  O        1.7414800    -1.2994450    -0.3567160
  O        2.9590140    -0.0653000     1.3909990
  O        3.7753660     0.2843820    -1.0654240
  C       -2.1786680     0.7692630     0.5423480
  C       -0.8949230     0.8134730    -0.3165700
  C       -2.7827930    -0.6059770     0.2231310
  C       -1.5369320    -1.4089660    -0.0835960
  C        0.3225300     1.1924080     0.5079200
  H       -1.9376650     0.8286140     1.6117160
  H       -1.0169450     1.4955040    -1.1629930
  H       -3.3413290    -1.0227480     1.0706890
  H       -1.7077950    -2.2947630    -0.7028010
  H        0.4416350     0.4968690     1.3430810
  H        0.1975530     2.2044650     0.9092850
  H       -2.8909940     2.6048820     0.5755830
  H       -4.0423210     0.2940670    -0.9260900
  H       -0.0419210    -2.0739930     0.9730340
  H        0.9072950    -1.0817680    -0.8531670
  H        3.8470510     0.3069850     1.5449930
units angstrom
no_reorient  #important for SAPT in psi4, default
symmetry c1  #important for SAPT in psi4, default
}

set PROPERTIES_ORIGIN ["COM"]
properties('MP2/aug-cc-pvtz', properties = ['dipole'])
--------------------------------------------------------------------------

    Molecular point group: c1
  Charge       = 0
  Multiplicity = 1
  Basis Set: AUG-CC-PVTZ
    Blend: AUG-CC-PVTZ
  Basis Set: (AUG-CC-PVTZ AUX)
    Blend: AUG-CC-PVTZ-JKFIT

    Orbital Energies [Eh]
    ---------------------

    Doubly Occupied:

       1A    -80.114766     2A    -20.611050     3A    -20.606546
       4A    -20.605023     5A    -20.603174     6A    -20.598077
       7A    -20.591876     8A    -20.575557     9A    -20.514446
      10A    -11.362731    11A    -11.323699    12A    -11.321287
      13A    -11.318273    14A    -11.308221    15A     -7.629716
      16A     -5.528138    17A     -5.528052    18A     -5.526554
      19A     -1.463568    20A     -1.448566    21A     -1.412137
      22A     -1.390763    23A     -1.377913    24A     -1.375169
      25A     -1.369750    26A     -1.295787    27A     -1.084417
      28A     -1.048140    29A     -0.947572    30A     -0.858263
      31A     -0.841907    32A     -0.830088    33A     -0.773143
      34A     -0.761990    35A     -0.747961    36A     -0.734459
      37A     -0.716664    38A     -0.692785    39A     -0.685164
      40A     -0.667932    41A     -0.653238    42A     -0.647343
      43A     -0.633258    44A     -0.613692    45A     -0.601163
      46A     -0.596967    47A     -0.581864    48A     -0.577553
      49A     -0.570001    50A     -0.560502    51A     -0.543166
      52A     -0.532171    53A     -0.527019    54A     -0.512259
      55A     -0.490130    56A     -0.487954    57A     -0.475020
      58A     -0.469437    59A     -0.465985    60A     -0.450715

  @DF-RHF Final Energy: -1135.82393118490063

   => Energetics <=

    Nuclear Repulsion Energy =           1216.0198512980859959
    One-Electron Energy =               -3985.3260394212506981
    Two-Electron Energy =                1633.4822569382640722
    Total Energy =                      -1135.8239311849006299
  Basis Set: (AUG-CC-PVTZ AUX)
    Blend: AUG-CC-PVTZ-RI
    Molecular point group: c1

    Geometry (in Angstrom), charge = 0, multiplicity = 1:

       Center              X                  Y                   Z               Mass
    ------------   -----------------  -----------------  -----------------  -----------------
         P            2.557846657922     0.051571273646    -0.169278437055    30.973761998420
         O           -0.795177342078    -0.508436726354    -0.855412437055    15.994914619570
         O           -3.200724342078     1.760738273646     0.206259562945    15.994914619570
         O           -3.611033342078    -0.544248726354    -0.935520437055    15.994914619570
         O           -0.962022742078    -1.701376026354     1.159431962945    15.994914619570
         O            1.447681657922     1.231531273646    -0.299875437055    15.994914619570
         O            1.687875657922    -1.291226726354    -0.336198437055    15.994914619570
         O            2.905409657922    -0.057081726354     1.411516562945    15.994914619570
         O            3.721761657922     0.292600273646    -1.044906437055    15.994914619570
         C           -2.232272342078     0.777481273646     0.562865562945    12.000000000000
         C           -0.948527342078     0.821691273646    -0.296052437055    12.000000000000
         C           -2.836397342078    -0.597758726354     0.243648562945    12.000000000000
         C           -1.590536342078    -1.400747726354    -0.063078437055    12.000000000000
         C            0.268925657922     1.200626273646     0.528437562945    12.000000000000
         H           -1.991269342078     0.836832273646     1.632233562945     1.007825032230
         H           -1.070549342078     1.503722273646    -1.142475437055     1.007825032230
         H           -3.394933342078    -1.014529726354     1.091206562945     1.007825032230
         H           -1.761399342078    -2.286544726354    -0.682283437055     1.007825032230
         H            0.388030657922     0.505087273646     1.363598562945     1.007825032230
         H            0.143948657922     2.212683273646     0.929802562945     1.007825032230
         H           -2.944598342078     2.613100273646     0.596100562945     1.007825032230
         H           -4.095925342078     0.302285273646    -0.905572437055     1.007825032230
         H           -0.095525342078    -2.065774726354     0.993551562945     1.007825032230
         H            0.853690657922    -1.073549726354    -0.832649437055     1.007825032230
         H            3.793446657922     0.315203273646     1.565510562945     1.007825032230

  Basis Set: AUG-CC-PVTZ
    Blend: AUG-CC-PVTZ
  Basis Set: (AUG-CC-PVTZ AUX)
    Blend: AUG-CC-PVTZ-JKFIT
	 Reference Energy          =   -1135.8239311849006299 [Eh]
	 Singles Energy            =      -0.0000000000000000 [Eh]
	 Same-Spin Energy          =      -0.8158539423098575 [Eh]
	 Opposite-Spin Energy      =      -2.4209126192576829 [Eh]
	 Correlation Energy        =      -3.2367665615675403 [Eh]
	 Total Energy              =   -1139.0606977464681222 [Eh]

	 ================> DF-SCS-MP2 Energies <==================
	-----------------------------------------------------------
	 SCS Same-Spin Scale       =       0.3333333333333333 [-]
	 SCS Opposite-Spin Scale   =       1.2000000000000000 [-]
	 SCS Same-Spin Energy      =      -0.2719513141032858 [Eh]
	 SCS Opposite-Spin Energy  =      -2.9050951431092193 [Eh]
	 SCS Correlation Energy    =      -3.1770464572125050 [Eh]
	 SCS Total Energy          =   -1139.0009776421131846 [Eh]
	-----------------------------------------------------------

  Dipole Moment: [D]
     X:    -3.5272      Y:     2.3233      Z:     4.0385     Total:     5.8436

*** Psi4 exiting successfully. Buy a developer a beer!
