                               Psi4 1.3.2 release

  ==> Input File <==

--------------------------------------------------------------------------
#psi4
#
memory 32 gb

molecule  {
0 1
  P        2.6114510     0.0433530    -0.1897960
  O       -0.7437359    -0.5851380    -0.9489025
  O       -3.1471200     1.7525200     0.1857420
  O       -3.5574290    -0.5524670    -0.9560380
  O       -0.9262260    -1.6975490     1.1507850
  O        1.5012860     1.2233130    -0.3203930
  O        1.7414800    -1.2994450    -0.3567160
  O        2.9590140    -0.0653000     1.3909990
  O        3.7753660     0.2843820    -1.0654240
  C       -2.1786680     0.7692630     0.5423480
  C       -0.8949230     0.8134730    -0.3165700
  C       -2.7827930    -0.6059770     0.2231310
  C       -1.5369320    -1.4089660    -0.0835960
  C        0.3225300     1.1924080     0.5079200
  H       -1.9376650     0.8286140     1.6117160
  H       -1.0169450     1.4955040    -1.1629930
  H       -3.3413290    -1.0227480     1.0706890
  H       -1.7077950    -2.2947630    -0.7028010
  H        0.4416350     0.4968690     1.3430810
  H        0.1975530     2.2044650     0.9092850
  H       -2.8909940     2.6048820     0.5755830
  H       -4.0423210     0.2940670    -0.9260900
  H       -0.0419210    -2.0739930     0.9730340
  H        0.9072950    -1.0817680    -0.8531670
  H        3.8470510     0.3069850     1.5449930
units angstrom
no_reorient  #important for SAPT in psi4, default
symmetry c1  #important for SAPT in psi4, default
}

set PROPERTIES_ORIGIN ["COM"]
properties('MP2/aug-cc-pvtz', properties = ['dipole'])
--------------------------------------------------------------------------

    Molecular point group: c1
  Charge       = 0
  Multiplicity = 1
  Basis Set: AUG-CC-PVTZ
    Blend: AUG-CC-PVTZ
  Basis Set: (AUG-CC-PVTZ AUX)
    Blend: AUG-CC-PVTZ-JKFIT

    Orbital Energies [Eh]
    ---------------------

    Doubly Occupied:

       1A    -80.115142     2A    -20.611534     3A    -20.609003
       4A    -20.606658     5A    -20.606398     6A    -20.597096
       7A    -20.594883     8A    -20.574543     9A    -20.514780
      10A    -11.358500    11A    -11.327424    12A    -11.326957
      13A    -11.326390    14A    -11.307758    15A     -7.630093
      16A     -5.528527    17A     -5.528416    18A     -5.526928
      19A     -1.458276    20A     -1.442126    21A     -1.412868
      22A     -1.391382    23A     -1.377758    24A     -1.373316
      25A     -1.358725    26A     -1.296110    27A     -1.091025
      28A     -1.042952    29A     -0.944564    30A     -0.859184
      31A     -0.839708    32A     -0.827320    33A     -0.771432
      34A     -0.758490    35A     -0.744228    36A     -0.734236
      37A     -0.717318    38A     -0.693866    39A     -0.684299
      40A     -0.663714    41A     -0.652368    42A     -0.642832
      43A     -0.632180    44A     -0.611072    45A     -0.604498
      46A     -0.591432    47A     -0.582374    48A     -0.578626
      49A     -0.567735    50A     -0.558710    51A     -0.543040
      52A     -0.531813    53A     -0.525000    54A     -0.512928
      55A     -0.494446    56A     -0.487317    57A     -0.476710
      58A     -0.468930    59A     -0.466201    60A     -0.453758

  @DF-RHF Final Energy: -1135.81259431535295

   => Energetics <=

    Nuclear Repulsion Energy =           1213.0445171171902530
    One-Electron Energy =               -3979.4024332663307177
    Two-Electron Energy =                1630.5453218337877388
    Total Energy =                      -1135.8125943153529533
  Basis Set: (AUG-CC-PVTZ AUX)
    Blend: AUG-CC-PVTZ-RI
    Molecular point group: c1

    Geometry (in Angstrom), charge = 0, multiplicity = 1:

       Center              X                  Y                   Z               Mass
    ------------   -----------------  -----------------  -----------------  -----------------
         P            2.559235352891     0.055495799825    -0.165029574926    30.973761998420
         O           -0.795951547109    -0.572995200175    -0.924136074926    15.994914619570
         O           -3.199335647109     1.764662799825     0.210508425074    15.994914619570
         O           -3.609644647109    -0.540324200175    -0.931271574926    15.994914619570
         O           -0.978441647109    -1.685406200175     1.175551425074    15.994914619570
         O            1.449070352891     1.235455799825    -0.295626574926    15.994914619570
         O            1.689264352891    -1.287302200175    -0.331949574926    15.994914619570
         O            2.906798352891    -0.053157200175     1.415765425074    15.994914619570
         O            3.723150352891     0.296524799825    -1.040657574926    15.994914619570
         C           -2.230883647109     0.781405799825     0.567114425074    12.000000000000
         C           -0.947138647109     0.825615799825    -0.291803574926    12.000000000000
         C           -2.835008647109    -0.593834200175     0.247897425074    12.000000000000
         C           -1.589147647109    -1.396823200175    -0.058829574926    12.000000000000
         C            0.270314352891     1.204550799825     0.532686425074    12.000000000000
         H           -1.989880647109     0.840756799825     1.636482425074     1.007825032230
         H           -1.069160647109     1.507646799825    -1.138226574926     1.007825032230
         H           -3.393544647109    -1.010605200175     1.095455425074     1.007825032230
         H           -1.760010647109    -2.282620200175    -0.678034574926     1.007825032230
         H            0.389419352891     0.509011799825     1.367847425074     1.007825032230
         H            0.145337352891     2.216607799825     0.934051425074     1.007825032230
         H           -2.943209647109     2.617024799825     0.600349425074     1.007825032230
         H           -4.094536647109     0.306209799825    -0.901323574926     1.007825032230
         H           -0.094136647109    -2.061850200175     0.997800425074     1.007825032230
         H            0.855079352891    -1.069625200175    -0.828400574926     1.007825032230
         H            3.794835352891     0.319127799825     1.569759425074     1.007825032230

  Basis Set: AUG-CC-PVTZ
    Blend: AUG-CC-PVTZ
  Basis Set: (AUG-CC-PVTZ AUX)
    Blend: AUG-CC-PVTZ-JKFIT
	 Reference Energy          =   -1135.8125943153529533 [Eh]
	 Singles Energy            =      -0.0000000000000000 [Eh]
	 Same-Spin Energy          =      -0.8172591770100975 [Eh]
	 Opposite-Spin Energy      =      -2.4251721579127938 [Eh]
	 Correlation Energy        =      -3.2424313349228915 [Eh]
	 Total Energy              =   -1139.0550256502758657 [Eh]

	 ================> DF-SCS-MP2 Energies <==================
	-----------------------------------------------------------
	 SCS Same-Spin Scale       =       0.3333333333333333 [-]
	 SCS Opposite-Spin Scale   =       1.2000000000000000 [-]
	 SCS Same-Spin Energy      =      -0.2724197256700325 [Eh]
	 SCS Opposite-Spin Energy  =      -2.9102065894953526 [Eh]
	 SCS Correlation Energy    =      -3.1826263151653853 [Eh]
	 SCS Total Energy          =   -1138.9952206305183608 [Eh]
	-----------------------------------------------------------

  Dipole Moment: [D]
     X:    -3.4781      Y:     2.5557      Z:     4.1893     Total:     6.0149

*** Psi4 exiting successfully. Buy a developer a beer!
