                               Psi4 1.3.2 release

  ==> Input File <==

--------------------------------------------------------------------------
#psi4
#
memory 32 gb

molecule  {
0 1
  P        2.6114510     0.0433530    -0.1897960
  O       -0.7415730    -0.5166550    -0.8759300
  O       -3.1471200     1.7525200     0.1857420
  O       -3.5574290    -0.5524670    -0.9560380
  O       -0.9262260    -1.6975490     1.1507850
  O        1.5012860     1.2233130    -0.3203930
  O        1.7414800    -1.2994450    -0.3567160
  O        2.9590140    -0.0653000     1.3909990
  O        3.7753660     0.2843820    -1.0654240
  C       -2.1195808     0.7686106     0.3928666
  C       -0.8949230     0.8134730    -0.3165700
  C       -2.7827930    -0.6059770     0.2231310
  C       -1.5369320    -1.4089660    -0.0835960
  C        0.3225300     1.1924080     0.5079200
  H       -1.9376650     0.8286140     1.6117160
  H       -1.0169450     1.4955040    -1.1629930
  H       -3.3413290    -1.0227480     1.0706890
  H       -1.7077950    -2.2947630    -0.7028010
  H        0.4416350     0.4968690     1.3430810
  H        0.1975530     2.2044650     0.9092850
  H       -2.8909940     2.6048820     0.5755830
  H       -4.0423210     0.2940670    -0.9260900
  H       -0.0419210    -2.0739930     0.9730340
  H        0.9072950    -1.0817680    -0.8531670
  H        3.8470510     0.3069850     1.5449930
units angstrom
no_reorient  #important for SAPT in psi4, default
symmetry c1  #important for SAPT in psi4, default
}

set PROPERTIES_ORIGIN ["COM"]
properties('MP2/aug-cc-pvtz', properties = ['dipole'])
--------------------------------------------------------------------------

    Molecular point group: c1
  Charge       = 0
  Multiplicity = 1
  Basis Set: AUG-CC-PVTZ
    Blend: AUG-CC-PVTZ
  Basis Set: (AUG-CC-PVTZ AUX)
    Blend: AUG-CC-PVTZ-JKFIT

    Orbital Energies [Eh]
    ---------------------

    Doubly Occupied:

       1A    -80.116267     2A    -20.612116     3A    -20.607406
       4A    -20.605686     5A    -20.604935     6A    -20.599593
       7A    -20.594720     8A    -20.573522     9A    -20.515745
      10A    -11.362694    11A    -11.328027    12A    -11.324833
      13A    -11.316792    14A    -11.310047    15A     -7.631216
      16A     -5.529641    17A     -5.529551    18A     -5.528048
      19A     -1.466810    20A     -1.450709    21A     -1.408249
      22A     -1.392269    23A     -1.379411    24A     -1.373465
      25A     -1.370464    26A     -1.297074    27A     -1.103459
      28A     -1.048241    29A     -0.955167    30A     -0.859013
      31A     -0.838740    32A     -0.836650    33A     -0.773304
      34A     -0.760915    35A     -0.754385    36A     -0.721597
      37A     -0.715773    38A     -0.695304    39A     -0.681813
      40A     -0.666745    41A     -0.654325    42A     -0.648966
      43A     -0.639989    44A     -0.617967    45A     -0.605912
      46A     -0.598190    47A     -0.583094    48A     -0.580275
      49A     -0.563890    50A     -0.560756    51A     -0.544750
      52A     -0.533112    53A     -0.529106    54A     -0.503233
      55A     -0.490557    56A     -0.481757    57A     -0.472508
      58A     -0.470354    59A     -0.467103    60A     -0.454580

  @DF-RHF Final Energy: -1135.79401764047816

   => Energetics <=

    Nuclear Repulsion Energy =           1218.3289468177531489
    One-Electron Energy =               -3989.7642833705563135
    Two-Electron Energy =                1635.6413189123250049
    Total Energy =                      -1135.7940176404781596
  Basis Set: (AUG-CC-PVTZ AUX)
    Blend: AUG-CC-PVTZ-RI
    Molecular point group: c1

    Geometry (in Angstrom), charge = 0, multiplicity = 1:

       Center              X                  Y                   Z               Mass
    ------------   -----------------  -----------------  -----------------  -----------------
         P            2.556002396909     0.050767711240    -0.162305506599    30.973761998420
         O           -0.797021603091    -0.509240288760    -0.848439506599    15.994914619570
         O           -3.202568603091     1.759934711240     0.213232493401    15.994914619570
         O           -3.612877603091    -0.545052288760    -0.928547506599    15.994914619570
         O           -0.981674603091    -1.690134288760     1.178275493401    15.994914619570
         O            1.445837396909     1.230727711240    -0.292902506599    15.994914619570
         O            1.686031396909    -1.292030288760    -0.329225506599    15.994914619570
         O            2.903565396909    -0.057885288760     1.418489493401    15.994914619570
         O            3.719917396909     0.291796711240    -1.037933506599    15.994914619570
         C           -2.175029403091     0.776025311240     0.420357093401    12.000000000000
         C           -0.950371603091     0.820887711240    -0.289079506599    12.000000000000
         C           -2.838241603091    -0.598562288760     0.250621493401    12.000000000000
         C           -1.592380603091    -1.401551288760    -0.056105506599    12.000000000000
         C            0.267081396909     1.199822711240     0.535410493401    12.000000000000
         H           -1.993113603091     0.836028711240     1.639206493401     1.007825032230
         H           -1.072393603091     1.502918711240    -1.135502506599     1.007825032230
         H           -3.396777603091    -1.015333288760     1.098179493401     1.007825032230
         H           -1.763243603091    -2.287348288760    -0.675310506599     1.007825032230
         H            0.386186396909     0.504283711240     1.370571493401     1.007825032230
         H            0.142104396909     2.211879711240     0.936775493401     1.007825032230
         H           -2.946442603091     2.612296711240     0.603073493401     1.007825032230
         H           -4.097769603091     0.301481711240    -0.898599506599     1.007825032230
         H           -0.097369603091    -2.066578288760     1.000524493401     1.007825032230
         H            0.851846396909    -1.074353288760    -0.825676506599     1.007825032230
         H            3.791602396909     0.314399711240     1.572483493401     1.007825032230

  Basis Set: AUG-CC-PVTZ
    Blend: AUG-CC-PVTZ
  Basis Set: (AUG-CC-PVTZ AUX)
    Blend: AUG-CC-PVTZ-JKFIT
	 Reference Energy          =   -1135.7940176404781596 [Eh]
	 Singles Energy            =      -0.0000000000000000 [Eh]
	 Same-Spin Energy          =      -0.8180010903679453 [Eh]
	 Opposite-Spin Energy      =      -2.4244625551131165 [Eh]
	 Correlation Energy        =      -3.2424636454810618 [Eh]
	 Total Energy              =   -1139.0364812859593258 [Eh]

	 ================> DF-SCS-MP2 Energies <==================
	-----------------------------------------------------------
	 SCS Same-Spin Scale       =       0.3333333333333333 [-]
	 SCS Opposite-Spin Scale   =       1.2000000000000000 [-]
	 SCS Same-Spin Energy      =      -0.2726670301226484 [Eh]
	 SCS Opposite-Spin Energy  =      -2.9093550661357397 [Eh]
	 SCS Correlation Energy    =      -3.1820220962583883 [Eh]
	 SCS Total Energy          =   -1138.9760397367365385 [Eh]
	-----------------------------------------------------------

  Dipole Moment: [D]
     X:    -3.3370      Y:     2.2196      Z:     3.8332     Total:     5.5458

*** Psi4 exiting successfully. Buy a developer a beer!
