                               Psi4 1.3.2 release

  ==> Input File <==

--------------------------------------------------------------------------
#psi4
#
memory 32 gb

molecule  {
0 1
  P        2.6114510     0.0433530    -0.1897960
  O       -0.7415730    -0.5166550    -0.8759300
  O       -3.1471200     1.7525200     0.1857420
  O       -3.5574290    -0.5524670    -0.9560380
  O       -0.9262260    -1.6975490     1.1507850
  O        1.5012860     1.2233130    -0.3203930
  O        1.7414800    -1.2994450    -0.3567160
  O        2.9590140    -0.0653000     1.3909990
  O        3.7753660     0.2843820    -1.0654240
  C       -2.1786680     0.7692630     0.5423480
  C       -0.8949230     0.8134730    -0.3165700
  C       -2.7827930    -0.6059770     0.2231310
  C       -1.4546219    -1.4620169    -0.1038605
  C        0.3225300     1.1924080     0.5079200
  H       -1.9376650     0.8286140     1.6117160
  H       -1.0169450     1.4955040    -1.1629930
  H       -3.3413290    -1.0227480     1.0706890
  H       -1.7077950    -2.2947630    -0.7028010
  H        0.4416350     0.4968690     1.3430810
  H        0.1975530     2.2044650     0.9092850
  H       -2.8909940     2.6048820     0.5755830
  H       -4.0423210     0.2940670    -0.9260900
  H       -0.0419210    -2.0739930     0.9730340
  H        0.9072950    -1.0817680    -0.8531670
  H        3.8470510     0.3069850     1.5449930
units angstrom
no_reorient  #important for SAPT in psi4, default
symmetry c1  #important for SAPT in psi4, default
}

set PROPERTIES_ORIGIN ["COM"]
properties('MP2/aug-cc-pvtz', properties = ['dipole'])
--------------------------------------------------------------------------

    Molecular point group: c1
  Charge       = 0
  Multiplicity = 1
  Basis Set: AUG-CC-PVTZ
    Blend: AUG-CC-PVTZ
  Basis Set: (AUG-CC-PVTZ AUX)
    Blend: AUG-CC-PVTZ-JKFIT

    Orbital Energies [Eh]
    ---------------------

    Doubly Occupied:

       1A    -80.115985     2A    -20.612076     3A    -20.605789
       4A    -20.604336     5A    -20.604316     6A    -20.601030
       7A    -20.600162     8A    -20.570457     9A    -20.515464
      10A    -11.360986    11A    -11.322007    12A    -11.320459
      13A    -11.319310    14A    -11.305146    15A     -7.630933
      16A     -5.529347    17A     -5.529277    18A     -5.527769
      19A     -1.467606    20A     -1.451189    21A     -1.410707
      22A     -1.392480    23A     -1.380631    24A     -1.378819
      25A     -1.366657    26A     -1.296802    27A     -1.083492
      28A     -1.031684    29A     -0.945596    30A     -0.857895
      31A     -0.839933    32A     -0.831629    33A     -0.772619
      34A     -0.759781    35A     -0.747932    36A     -0.730890
      37A     -0.717725    38A     -0.695358    39A     -0.685446
      40A     -0.673086    41A     -0.655637    42A     -0.649425
      43A     -0.633553    44A     -0.621496    45A     -0.601177
      46A     -0.594323    47A     -0.582275    48A     -0.576635
      49A     -0.569358    50A     -0.554411    51A     -0.545058
      52A     -0.536109    53A     -0.528188    54A     -0.510434
      55A     -0.492386    56A     -0.484631    57A     -0.474208
      58A     -0.467879    59A     -0.451953    60A     -0.447370

  @DF-RHF Final Energy: -1135.81313390328091

   => Energetics <=

    Nuclear Repulsion Energy =           1215.4103155230327502
    One-Electron Energy =               -3984.1082760277895431
    Two-Electron Energy =                1632.8848266014758792
    Total Energy =                      -1135.8131339032809137
  Basis Set: (AUG-CC-PVTZ AUX)
    Blend: AUG-CC-PVTZ-RI
    Molecular point group: c1

    Geometry (in Angstrom), charge = 0, multiplicity = 1:

       Center              X                  Y                   Z               Mass
    ------------   -----------------  -----------------  -----------------  -----------------
         P            2.554790868240     0.053501318369    -0.169046696500    30.973761998420
         O           -0.798233131760    -0.506506681631    -0.855180696500    15.994914619570
         O           -3.203780131760     1.762668318369     0.206491303500    15.994914619570
         O           -3.614089131760    -0.542318681631    -0.935288696500    15.994914619570
         O           -0.982886131760    -1.687400681631     1.171534303500    15.994914619570
         O            1.444625868240     1.233461318369    -0.299643696500    15.994914619570
         O            1.684819868240    -1.289296681631    -0.335966696500    15.994914619570
         O            2.902353868240    -0.055151681631     1.411748303500    15.994914619570
         O            3.718705868240     0.294530318369    -1.044674696500    15.994914619570
         C           -2.235328131760     0.779411318369     0.563097303500    12.000000000000
         C           -0.951583131760     0.823621318369    -0.295820696500    12.000000000000
         C           -2.839453131760    -0.595828681631     0.243880303500    12.000000000000
         C           -1.511282031760    -1.451868581631    -0.083111196500    12.000000000000
         C            0.265869868240     1.202556318369     0.528669303500    12.000000000000
         H           -1.994325131760     0.838762318369     1.632465303500     1.007825032230
         H           -1.073605131760     1.505652318369    -1.142243696500     1.007825032230
         H           -3.397989131760    -1.012599681631     1.091438303500     1.007825032230
         H           -1.764455131760    -2.284614681631    -0.682051696500     1.007825032230
         H            0.384974868240     0.507017318369     1.363830303500     1.007825032230
         H            0.140892868240     2.214613318369     0.930034303500     1.007825032230
         H           -2.947654131760     2.615030318369     0.596332303500     1.007825032230
         H           -4.098981131760     0.304215318369    -0.905340696500     1.007825032230
         H           -0.098581131760    -2.063844681631     0.993783303500     1.007825032230
         H            0.850634868240    -1.071619681631    -0.832417696500     1.007825032230
         H            3.790390868240     0.317133318369     1.565742303500     1.007825032230

  Basis Set: AUG-CC-PVTZ
    Blend: AUG-CC-PVTZ
  Basis Set: (AUG-CC-PVTZ AUX)
    Blend: AUG-CC-PVTZ-JKFIT
	 Reference Energy          =   -1135.8131339032809137 [Eh]
	 Singles Energy            =      -0.0000000000000000 [Eh]
	 Same-Spin Energy          =      -0.8163483806868869 [Eh]
	 Opposite-Spin Energy      =      -2.4220192390017012 [Eh]
	 Correlation Energy        =      -3.2383676196885882 [Eh]
	 Total Energy              =   -1139.0515015229696019 [Eh]

	 ================> DF-SCS-MP2 Energies <==================
	-----------------------------------------------------------
	 SCS Same-Spin Scale       =       0.3333333333333333 [-]
	 SCS Opposite-Spin Scale   =       1.2000000000000000 [-]
	 SCS Same-Spin Energy      =      -0.2721161268956289 [Eh]
	 SCS Opposite-Spin Energy  =      -2.9064230868020413 [Eh]
	 SCS Correlation Energy    =      -3.1785392136976700 [Eh]
	 SCS Total Energy          =   -1138.9916731169785180 [Eh]
	-----------------------------------------------------------

  Dipole Moment: [D]
     X:    -3.2343      Y:     2.1893      Z:     4.0458     Total:     5.6234

*** Psi4 exiting successfully. Buy a developer a beer!
