                               Psi4 1.3.2 release

  ==> Input File <==

--------------------------------------------------------------------------
#psi4
#
memory 32 gb

molecule  {
0 1
  P        2.6114510     0.0433530    -0.1897960
  O       -0.7415730    -0.5166550    -0.8759300
  O       -3.1471200     1.7525200     0.1857420
  O       -3.5574290    -0.5524670    -0.9560380
  O       -0.9262260    -1.6975490     1.1507850
  O        1.5012860     1.2233130    -0.3203930
  O        1.7414800    -1.2994450    -0.3567160
  O        2.9590140    -0.0653000     1.3909990
  O        3.7753660     0.2843820    -1.0654240
  C       -2.1786680     0.7692630     0.5423480
  C       -0.8949230     0.8134730    -0.3165700
  C       -2.7827930    -0.6059770     0.2231310
  C       -1.5369320    -1.4089660    -0.0835960
  C        0.4043304     1.1945527     0.4504388
  H       -1.9376650     0.8286140     1.6117160
  H       -1.0169450     1.4955040    -1.1629930
  H       -3.3413290    -1.0227480     1.0706890
  H       -1.7077950    -2.2947630    -0.7028010
  H        0.4416350     0.4968690     1.3430810
  H        0.1975530     2.2044650     0.9092850
  H       -2.8909940     2.6048820     0.5755830
  H       -4.0423210     0.2940670    -0.9260900
  H       -0.0419210    -2.0739930     0.9730340
  H        0.9072950    -1.0817680    -0.8531670
  H        3.8470510     0.3069850     1.5449930
units angstrom
no_reorient  #important for SAPT in psi4, default
symmetry c1  #important for SAPT in psi4, default
}

set PROPERTIES_ORIGIN ["COM"]
properties('MP2/aug-cc-pvtz', properties = ['dipole'])
--------------------------------------------------------------------------

    Molecular point group: c1
  Charge       = 0
  Multiplicity = 1
  Basis Set: AUG-CC-PVTZ
    Blend: AUG-CC-PVTZ
  Basis Set: (AUG-CC-PVTZ AUX)
    Blend: AUG-CC-PVTZ-JKFIT

    Orbital Energies [Eh]
    ---------------------

    Doubly Occupied:

       1A    -80.122194     2A    -20.615653     3A    -20.615434
       4A    -20.604025     5A    -20.602701     6A    -20.600250
       7A    -20.593028     8A    -20.573178     9A    -20.519895
      10A    -11.360316    11A    -11.321470    12A    -11.321253
      13A    -11.314697    14A    -11.305588    15A     -7.637153
      16A     -5.535638    17A     -5.535414    18A     -5.533954
      19A     -1.478203    20A     -1.451661    21A     -1.412359
      22A     -1.409223    23A     -1.384077    24A     -1.371854
      25A     -1.366993    26A     -1.301914    27A     -1.075107
      28A     -1.041606    29A     -0.946718    30A     -0.863320
      31A     -0.839204    32A     -0.828113    33A     -0.779301
      34A     -0.760447    35A     -0.748185    36A     -0.734338
      37A     -0.722400    38A     -0.700844    39A     -0.685335
      40A     -0.667751    41A     -0.662285    42A     -0.648436
      43A     -0.636741    44A     -0.613226    45A     -0.597826
      46A     -0.597184    47A     -0.584424    48A     -0.576427
      49A     -0.569625    50A     -0.560456    51A     -0.547646
      52A     -0.531219    53A     -0.524087    54A     -0.505687
      55A     -0.485279    56A     -0.484073    57A     -0.476809
      58A     -0.472211    59A     -0.462588    60A     -0.444241

  @DF-RHF Final Energy: -1135.81449842561142

   => Energetics <=

    Nuclear Repulsion Energy =           1216.9574299677442468
    One-Electron Energy =               -3987.0213310091539824
    Two-Electron Energy =                1634.2494026157983171
    Total Energy =                      -1135.8144984256114185
  Basis Set: (AUG-CC-PVTZ AUX)
    Blend: AUG-CC-PVTZ-RI
    Molecular point group: c1

    Geometry (in Angstrom), charge = 0, multiplicity = 1:

       Center              X                  Y                   Z               Mass
    ------------   -----------------  -----------------  -----------------  -----------------
         P            2.554817459069     0.050621787740    -0.167105117324    30.973761998420
         O           -0.798206540931    -0.509386212260    -0.853239117324    15.994914619570
         O           -3.203753540931     1.759788787740     0.208432882676    15.994914619570
         O           -3.614062540931    -0.545198212260    -0.933347117324    15.994914619570
         O           -0.982859540931    -1.690280212260     1.173475882676    15.994914619570
         O            1.444652459069     1.230581787740    -0.297702117324    15.994914619570
         O            1.684846459069    -1.292176212260    -0.334025117324    15.994914619570
         O            2.902380459069    -0.058031212260     1.413689882676    15.994914619570
         O            3.718732459069     0.291650787740    -1.042733117324    15.994914619570
         C           -2.235301540931     0.776531787740     0.565038882676    12.000000000000
         C           -0.951556540931     0.820741787740    -0.293879117324    12.000000000000
         C           -2.839426540931    -0.598708212260     0.245821882676    12.000000000000
         C           -1.593565540931    -1.401697212260    -0.060905117324    12.000000000000
         C            0.347696859069     1.201821487740     0.473129682676    12.000000000000
         H           -1.994298540931     0.835882787740     1.634406882676     1.007825032230
         H           -1.073578540931     1.502772787740    -1.140302117324     1.007825032230
         H           -3.397962540931    -1.015479212260     1.093379882676     1.007825032230
         H           -1.764428540931    -2.287494212260    -0.680110117324     1.007825032230
         H            0.385001459069     0.504137787740     1.365771882676     1.007825032230
         H            0.140919459069     2.211733787740     0.931975882676     1.007825032230
         H           -2.947627540931     2.612150787740     0.598273882676     1.007825032230
         H           -4.098954540931     0.301335787740    -0.903399117324     1.007825032230
         H           -0.098554540931    -2.066724212260     0.995724882676     1.007825032230
         H            0.850661459069    -1.074499212260    -0.830476117324     1.007825032230
         H            3.790417459069     0.314253787740     1.567683882676     1.007825032230

  Basis Set: AUG-CC-PVTZ
    Blend: AUG-CC-PVTZ
  Basis Set: (AUG-CC-PVTZ AUX)
    Blend: AUG-CC-PVTZ-JKFIT
	 Reference Energy          =   -1135.8144984256114185 [Eh]
	 Singles Energy            =      -0.0000000000000000 [Eh]
	 Same-Spin Energy          =      -0.8165047512561514 [Eh]
	 Opposite-Spin Energy      =      -2.4213462113338657 [Eh]
	 Correlation Energy        =      -3.2378509625900174 [Eh]
	 Total Energy              =   -1139.0523493882014918 [Eh]

	 ================> DF-SCS-MP2 Energies <==================
	-----------------------------------------------------------
	 SCS Same-Spin Scale       =       0.3333333333333333 [-]
	 SCS Opposite-Spin Scale   =       1.2000000000000000 [-]
	 SCS Same-Spin Energy      =      -0.2721682504187171 [Eh]
	 SCS Opposite-Spin Energy  =      -2.9056154536006389 [Eh]
	 SCS Correlation Energy    =      -3.1777837040193559 [Eh]
	 SCS Total Energy          =   -1138.9922821296306665 [Eh]
	-----------------------------------------------------------

  Dipole Moment: [D]
     X:    -3.0268      Y:     2.2195      Z:     3.8629     Total:     5.3860

*** Psi4 exiting successfully. Buy a developer a beer!
