                               Psi4 1.4a3.dev225

  ==> Input File <==

--------------------------------------------------------------------------
#psi4
#
memory 32 gb

molecule  {
0 1
  P        2.6113660     0.0433910    -0.1897900
  O       -0.7416560    -0.5164190    -0.8762010
  O       -3.1473860     1.7523070     0.1855430
  O       -3.5574330    -0.5529450    -0.9556820
  O       -0.9255690    -1.6972900     1.1506350
  O        1.5012550     1.2233910    -0.3202530
  O        1.7411940    -1.2993510    -0.3564950
  O        2.9591660    -0.0655390     1.3909200
  O        3.7751240     0.2843830    -1.0656400
  C       -2.1787050     0.7693270     0.5422590
  C       -0.8949630     0.8136090    -0.3166340
  C       -2.7825860    -0.6061320     0.2233240
  C       -1.5366410    -1.4089160    -0.0835620
  C        0.3388017     1.1928498     0.4965156
  H       -1.9377070     0.8289040     1.6116220
  H       -1.0168440     1.4957790    -1.1629650
  H       -3.3408870    -1.0228010     1.0710960
  H       -1.7074320    -2.2947510    -0.7027390
  H        0.4414920     0.4968360     1.3431340
  H        0.1974400     2.2044510     0.9094280
  H       -2.8916000     2.6047160     0.5754970
  H       -4.0429610     0.2932130    -0.9254450
  H       -0.0410590    -2.0731950     0.9726900
  H        0.9073710    -1.0816890    -0.8535130
  H        3.8468470     0.3075270     1.5450430
units angstrom
no_reorient  #important for SAPT in psi4, default
symmetry c1  #important for SAPT in psi4, default
}

set PROPERTIES_ORIGIN ["COM"]
properties('MP2/aug-cc-pvtz', properties = ['dipole'])
--------------------------------------------------------------------------

    Molecular point group: c1
  Charge       = 0
  Multiplicity = 1
  Basis Set: AUG-CC-PVTZ
    Blend: AUG-CC-PVTZ
  Basis Set: (AUG-CC-PVTZ AUX)
    Blend: AUG-CC-PVTZ-JKFIT

    Orbital Energies [Eh]
    ---------------------

    Doubly Occupied:

       1A    -80.116393     2A    -20.612048     3A    -20.607282
       4A    -20.605765     5A    -20.602815     6A    -20.599313
       7A    -20.594442     8A    -20.574492     9A    -20.515672
      10A    -11.361815    11A    -11.322899    12A    -11.320959
      13A    -11.317501    14A    -11.306889    15A     -7.631342
      16A     -5.529773    17A     -5.529669    18A     -5.528174
      19A     -1.464527    20A     -1.449492    21A     -1.410985
      22A     -1.394772    23A     -1.379788    24A     -1.373291
      25A     -1.368386    26A     -1.297161    27A     -1.082201
      28A     -1.045973    29A     -0.946452    30A     -0.858725
      31A     -0.841400    32A     -0.828976    33A     -0.772743
      34A     -0.759856    35A     -0.747856    36A     -0.734288
      37A     -0.717946    38A     -0.693643    39A     -0.684387
      40A     -0.667161    41A     -0.654761    42A     -0.647968
      43A     -0.633994    44A     -0.613417    45A     -0.600316
      46A     -0.596318    47A     -0.582407    48A     -0.577323
      49A     -0.569602    50A     -0.560028    51A     -0.544288
      52A     -0.531589    53A     -0.527651    54A     -0.510948
      55A     -0.489378    56A     -0.487110    57A     -0.475253
      58A     -0.469654    59A     -0.465697    60A     -0.449895

  @DF-RHF Final Energy: -1135.82268952941513

   => Energetics <=

    Nuclear Repulsion Energy =           1216.1356609418839980
    One-Electron Energy =               -3985.5469963757841469
    Two-Electron Energy =                1633.5886459044850199
    Total Energy =                      -1135.8226895294151291
  Basis Set: (AUG-CC-PVTZ AUX)
    Blend: AUG-CC-PVTZ-RI
    Molecular point group: c1

    Geometry (in Angstrom), charge = 0, multiplicity = 1:

       Center              X                  Y                   Z               Mass
    ------------   -----------------  -----------------  -----------------  -----------------
         P            2.558147287269     0.050752934809    -0.169496093804    30.973761998420
         O           -0.794874712731    -0.509057065191    -0.855907093804    15.994914619570
         O           -3.200604712731     1.759668934809     0.205836906196    15.994914619570
         O           -3.610651712731    -0.545583065191    -0.935388093804    15.994914619570
         O           -0.978787712731    -1.689928065191     1.170928906196    15.994914619570
         O            1.448036287269     1.230752934809    -0.299959093804    15.994914619570
         O            1.687975287269    -1.291989065191    -0.336201093804    15.994914619570
         O            2.905947287269    -0.058177065191     1.411213906196    15.994914619570
         O            3.721905287269     0.291744934809    -1.045346093804    15.994914619570
         C           -2.231923712731     0.776688934809     0.562552906196    12.000000000000
         C           -0.948181712731     0.820970934809    -0.296340093804    12.000000000000
         C           -2.835804712731    -0.598770065191     0.243617906196    12.000000000000
         C           -1.589859712731    -1.401554065191    -0.063268093804    12.000000000000
         C            0.285582987269     1.200211734809     0.516809506196    12.000000000000
         H           -1.990925712731     0.836265934809     1.631915906196     1.007825032230
         H           -1.070062712731     1.503140934809    -1.142671093804     1.007825032230
         H           -3.394105712731    -1.015439065191     1.091389906196     1.007825032230
         H           -1.760650712731    -2.287389065191    -0.682445093804     1.007825032230
         H            0.388273287269     0.504197934809     1.363427906196     1.007825032230
         H            0.144221287269     2.211812934809     0.929721906196     1.007825032230
         H           -2.944818712731     2.612077934809     0.595790906196     1.007825032230
         H           -4.096179712731     0.300574934809    -0.905151093804     1.007825032230
         H           -0.094277712731    -2.065833065191     0.992983906196     1.007825032230
         H            0.854152287269    -1.074327065191    -0.833219093804     1.007825032230
         H            3.793628287269     0.314888934809     1.565336906196     1.007825032230

  Basis Set: AUG-CC-PVTZ
    Blend: AUG-CC-PVTZ
  Basis Set: (AUG-CC-PVTZ AUX)
    Blend: AUG-CC-PVTZ-JKFIT
	 Reference Energy          =   -1135.8226895294151291 [Eh]
	 Singles Energy            =      -0.0000000000000000 [Eh]
	 Same-Spin Energy          =      -0.8162550932577484 [Eh]
	 Opposite-Spin Energy      =      -2.4216437392024432 [Eh]
	 Correlation Energy        =      -3.2378988324601918 [Eh]
	 Total Energy              =   -1139.0605883618752614 [Eh]

	 ================> DF-SCS-MP2 Energies <==================
	-----------------------------------------------------------
	 SCS Same-Spin Scale       =       0.3333333333333333 [-]
	 SCS Opposite-Spin Scale   =       1.2000000000000000 [-]
	 SCS Same-Spin Energy      =      -0.2720850310859161 [Eh]
	 SCS Opposite-Spin Energy  =      -2.9059724870429320 [Eh]
	 SCS Correlation Energy    =      -3.1780575181288482 [Eh]
	 SCS Total Energy          =   -1139.0007470475438822 [Eh]
	-----------------------------------------------------------

  Dipole Moment: [D]
     X:    -3.3943      Y:     2.2857      Z:     4.0024     Total:     5.7241

*** Psi4 exiting successfully. Buy a developer a beer!
