                               Psi4 1.3.2 release

  ==> Input File <==

--------------------------------------------------------------------------
#psi4
#
memory 32 gb

molecule  {
0 1
  P        2.6114510     0.0433530    -0.1897960
  O       -0.7415730    -0.5166550    -0.8759300
  O       -3.1471200     1.7525200     0.1857420
  O       -3.5574290    -0.5524670    -0.9560380
  O       -0.9262260    -1.6975490     1.1507850
  O        1.5012860     1.2233130    -0.3203930
  O        1.7414800    -1.2994450    -0.3567160
  O        2.9590140    -0.0653000     1.3909990
  O        3.7753660     0.2843820    -1.0654240
  C       -2.1927982     0.7623297     0.5204486
  C       -0.8949230     0.8134730    -0.3165700
  C       -2.7827930    -0.6059770     0.2231310
  C       -1.5369320    -1.4089660    -0.0835960
  C        0.3225300     1.1924080     0.5079200
  H       -1.9376650     0.8286140     1.6117160
  H       -1.0169450     1.4955040    -1.1629930
  H       -3.3413290    -1.0227480     1.0706890
  H       -1.7077950    -2.2947630    -0.7028010
  H        0.4416350     0.4968690     1.3430810
  H        0.1975530     2.2044650     0.9092850
  H       -2.8909940     2.6048820     0.5755830
  H       -4.0423210     0.2940670    -0.9260900
  H       -0.0419210    -2.0739930     0.9730340
  H        0.9072950    -1.0817680    -0.8531670
  H        3.8470510     0.3069850     1.5449930
units angstrom
no_reorient  #important for SAPT in psi4, default
symmetry c1  #important for SAPT in psi4, default
}

set PROPERTIES_ORIGIN ["COM"]
properties('MP2/aug-cc-pvtz', properties = ['dipole'])
--------------------------------------------------------------------------

    Molecular point group: c1
  Charge       = 0
  Multiplicity = 1
  Basis Set: AUG-CC-PVTZ
    Blend: AUG-CC-PVTZ
  Basis Set: (AUG-CC-PVTZ AUX)
    Blend: AUG-CC-PVTZ-JKFIT

    Orbital Energies [Eh]
    ---------------------

    Doubly Occupied:

       1A    -80.115020     2A    -20.611204     3A    -20.606621
       4A    -20.605337     5A    -20.603309     6A    -20.598462
       7A    -20.594720     8A    -20.574548     9A    -20.514667
      10A    -11.362509    11A    -11.324120    12A    -11.321462
      13A    -11.317960    14A    -11.306549    15A     -7.629970
      16A     -5.528391    17A     -5.528307    18A     -5.526807
      19A     -1.463380    20A     -1.448524    21A     -1.414331
      22A     -1.390753    23A     -1.378239    24A     -1.374329
      25A     -1.368766    26A     -1.295996    27A     -1.084115
      28A     -1.048245    29A     -0.947217    30A     -0.858541
      31A     -0.840904    32A     -0.829836    33A     -0.772170
      34A     -0.759501    35A     -0.749287    36A     -0.731978
      37A     -0.717072    38A     -0.692797    39A     -0.685364
      40A     -0.667687    41A     -0.653194    42A     -0.648200
      43A     -0.633232    44A     -0.615248    45A     -0.601048
      46A     -0.597107    47A     -0.582089    48A     -0.577089
      49A     -0.569761    50A     -0.560316    51A     -0.543377
      52A     -0.532121    53A     -0.527019    54A     -0.510145
      55A     -0.490862    56A     -0.485391    57A     -0.475059
      58A     -0.469200    59A     -0.465775    60A     -0.451785

  @DF-RHF Final Energy: -1135.82221337615920

   => Energetics <=

    Nuclear Repulsion Energy =           1216.1770996245654715
    One-Electron Energy =               -3985.6445919413031334
    Two-Electron Energy =                1633.6452789405784642
    Total Energy =                      -1135.8222133761591977
  Basis Set: (AUG-CC-PVTZ AUX)
    Blend: AUG-CC-PVTZ-RI
    Molecular point group: c1

    Geometry (in Angstrom), charge = 0, multiplicity = 1:

       Center              X                  Y                   Z               Mass
    ------------   -----------------  -----------------  -----------------  -----------------
         P            2.559822117065     0.051095383082    -0.168961404472    30.973761998420
         O           -0.793201882935    -0.508912616918    -0.855095404472    15.994914619570
         O           -3.198748882935     1.760262383082     0.206576595528    15.994914619570
         O           -3.609057882935    -0.544724616918    -0.935203404472    15.994914619570
         O           -0.977854882935    -1.689806616918     1.171619595528    15.994914619570
         O            1.449657117065     1.231055383082    -0.299558404472    15.994914619570
         O            1.689851117065    -1.291702616918    -0.335881404472    15.994914619570
         O            2.907385117065    -0.057557616918     1.411833595528    15.994914619570
         O            3.723737117065     0.292124383082    -1.044589404472    15.994914619570
         C           -2.244427082935     0.770072083082     0.541283195528    12.000000000000
         C           -0.946551882935     0.821215383082    -0.295735404472    12.000000000000
         C           -2.834421882935    -0.598234616918     0.243965595528    12.000000000000
         C           -1.588560882935    -1.401223616918    -0.062761404472    12.000000000000
         C            0.270901117065     1.200150383082     0.528754595528    12.000000000000
         H           -1.989293882935     0.836356383082     1.632550595528     1.007825032230
         H           -1.068573882935     1.503246383082    -1.142158404472     1.007825032230
         H           -3.392957882935    -1.015005616918     1.091523595528     1.007825032230
         H           -1.759423882935    -2.287020616918    -0.681966404472     1.007825032230
         H            0.390006117065     0.504611383082     1.363915595528     1.007825032230
         H            0.145924117065     2.212207383082     0.930119595528     1.007825032230
         H           -2.942622882935     2.612624383082     0.596417595528     1.007825032230
         H           -4.093949882935     0.301809383082    -0.905255404472     1.007825032230
         H           -0.093549882935    -2.066250616918     0.993868595528     1.007825032230
         H            0.855666117065    -1.074025616918    -0.832332404472     1.007825032230
         H            3.795422117065     0.314727383082     1.565827595528     1.007825032230

  Basis Set: AUG-CC-PVTZ
    Blend: AUG-CC-PVTZ
  Basis Set: (AUG-CC-PVTZ AUX)
    Blend: AUG-CC-PVTZ-JKFIT
	 Reference Energy          =   -1135.8222133761591977 [Eh]
	 Singles Energy            =      -0.0000000000000000 [Eh]
	 Same-Spin Energy          =      -0.8162636507421944 [Eh]
	 Opposite-Spin Energy      =      -2.4216330915923150 [Eh]
	 Correlation Energy        =      -3.2378967423345095 [Eh]
	 Total Energy              =   -1139.0601101184936397 [Eh]

	 ================> DF-SCS-MP2 Energies <==================
	-----------------------------------------------------------
	 SCS Same-Spin Scale       =       0.3333333333333333 [-]
	 SCS Opposite-Spin Scale   =       1.2000000000000000 [-]
	 SCS Same-Spin Energy      =      -0.2720878835807314 [Eh]
	 SCS Opposite-Spin Energy  =      -2.9059597099107779 [Eh]
	 SCS Correlation Energy    =      -3.1780475934915096 [Eh]
	 SCS Total Energy          =   -1139.0002609696507534 [Eh]
	-----------------------------------------------------------

  Dipole Moment: [D]
     X:    -3.4911      Y:     2.3049      Z:     4.0112     Total:     5.7957

*** Psi4 exiting successfully. Buy a developer a beer!
