                               Psi4 1.3.2 release

  ==> Input File <==

--------------------------------------------------------------------------
#psi4
#
memory 32 gb

molecule  {
0 1
  P        2.6114510     0.0433530    -0.1897960
  O       -0.7415730    -0.5166550    -0.8759300
  O       -3.1471200     1.7525200     0.1857420
  O       -3.5574290    -0.5524670    -0.9560380
  O       -0.9262260    -1.6975490     1.1507850
  O        1.5012860     1.2233130    -0.3203930
  O        1.7414800    -1.2994450    -0.3567160
  O        2.9590140    -0.0653000     1.3909990
  O        3.7753660     0.2843820    -1.0654240
  C       -2.1786680     0.7692630     0.5423480
  C       -0.8949230     0.8134730    -0.3165700
  C       -2.7827930    -0.6059770     0.2231310
  C       -1.5369320    -1.4089660    -0.0835960
  C        0.3225300     1.1924080     0.5079200
  H       -1.9376650     0.8286140     1.6117160
  H       -1.0169450     1.4955040    -1.1629930
  H       -3.3413290    -1.0227480     1.0706890
  H       -1.6921795    -2.2138082    -0.6462106
  H        0.4416350     0.4968690     1.3430810
  H        0.1975530     2.2044650     0.9092850
  H       -2.8909940     2.6048820     0.5755830
  H       -4.0423210     0.2940670    -0.9260900
  H       -0.0419210    -2.0739930     0.9730340
  H        0.9072950    -1.0817680    -0.8531670
  H        3.8470510     0.3069850     1.5449930
units angstrom
no_reorient  #important for SAPT in psi4, default
symmetry c1  #important for SAPT in psi4, default
}

set PROPERTIES_ORIGIN ["COM"]
properties('MP2/aug-cc-pvtz', properties = ['dipole'])
--------------------------------------------------------------------------

    Molecular point group: c1
  Charge       = 0
  Multiplicity = 1
  Basis Set: AUG-CC-PVTZ
    Blend: AUG-CC-PVTZ
  Basis Set: (AUG-CC-PVTZ AUX)
    Blend: AUG-CC-PVTZ-JKFIT

    Orbital Energies [Eh]
    ---------------------

    Doubly Occupied:

       1A    -80.114861     2A    -20.611095     3A    -20.605968
       4A    -20.604921     5A    -20.602700     6A    -20.598400
       7A    -20.593693     8A    -20.574991     9A    -20.514527
      10A    -11.350859    11A    -11.322882    12A    -11.320989
      13A    -11.317817    14A    -11.306673    15A     -7.629810
      16A     -5.528230    17A     -5.528148    18A     -5.526648
      19A     -1.463118    20A     -1.448247    21A     -1.411222
      22A     -1.390513    23A     -1.378117    24A     -1.373451
      25A     -1.368244    26A     -1.295863    27A     -1.084056
      28A     -1.049197    29A     -0.952020    30A     -0.859220
      31A     -0.842832    32A     -0.834537    33A     -0.774031
      34A     -0.761343    35A     -0.750835    36A     -0.734379
      37A     -0.716907    38A     -0.692747    39A     -0.684146
      40A     -0.671498    41A     -0.653980    42A     -0.647845
      43A     -0.633349    44A     -0.613764    45A     -0.601250
      46A     -0.596058    47A     -0.581970    48A     -0.577478
      49A     -0.569853    50A     -0.560113    51A     -0.543576
      52A     -0.534060    53A     -0.527056    54A     -0.511744
      55A     -0.495151    56A     -0.487661    57A     -0.474990
      58A     -0.469278    59A     -0.465649    60A     -0.450314

  @DF-RHF Final Energy: -1135.81741037494635

   => Energetics <=

    Nuclear Repulsion Energy =           1216.6229297008028425
    One-Electron Energy =               -3986.5109368147150235
    Two-Electron Energy =                1634.0705967389656053
    Total Energy =                      -1135.8174103749463484
  Basis Set: (AUG-CC-PVTZ AUX)
    Blend: AUG-CC-PVTZ-RI
    Molecular point group: c1

    Geometry (in Angstrom), charge = 0, multiplicity = 1:

       Center              X                  Y                   Z               Mass
    ------------   -----------------  -----------------  -----------------  -----------------
         P            2.559016531581     0.050378973727    -0.170351836598    30.973761998420
         O           -0.794007468419    -0.509629026273    -0.856485836598    15.994914619570
         O           -3.199554468419     1.759545973727     0.205186163402    15.994914619570
         O           -3.609863468419    -0.545441026273    -0.936593836598    15.994914619570
         O           -0.978660468419    -1.690523026273     1.170229163402    15.994914619570
         O            1.448851531581     1.230338973727    -0.300948836598    15.994914619570
         O            1.689045531581    -1.292419026273    -0.337271836598    15.994914619570
         O            2.906579531581    -0.058274026273     1.410443163402    15.994914619570
         O            3.722931531581     0.291407973727    -1.045979836598    15.994914619570
         C           -2.231102468419     0.776288973727     0.561792163402    12.000000000000
         C           -0.947357468419     0.820498973727    -0.297125836598    12.000000000000
         C           -2.835227468419    -0.598951026273     0.242575163402    12.000000000000
         C           -1.589366468419    -1.401940026273    -0.064151836598    12.000000000000
         C            0.270095531581     1.199433973727     0.527364163402    12.000000000000
         H           -1.990099468419     0.835639973727     1.631160163402     1.007825032230
         H           -1.069379468419     1.502529973727    -1.143548836598     1.007825032230
         H           -3.393763468419    -1.015722026273     1.090133163402     1.007825032230
         H           -1.744613968419    -2.206782226273    -0.626766436598     1.007825032230
         H            0.389200531581     0.503894973727     1.362525163402     1.007825032230
         H            0.145118531581     2.211490973727     0.928729163402     1.007825032230
         H           -2.943428468419     2.611907973727     0.595027163402     1.007825032230
         H           -4.094755468419     0.301092973727    -0.906645836598     1.007825032230
         H           -0.094355468419    -2.066967026273     0.992478163402     1.007825032230
         H            0.854860531581    -1.074742026273    -0.833722836598     1.007825032230
         H            3.794616531581     0.314010973727     1.564437163402     1.007825032230

  Basis Set: AUG-CC-PVTZ
    Blend: AUG-CC-PVTZ
  Basis Set: (AUG-CC-PVTZ AUX)
    Blend: AUG-CC-PVTZ-JKFIT
	 Reference Energy          =   -1135.8174103749463484 [Eh]
	 Singles Energy            =      -0.0000000000000000 [Eh]
	 Same-Spin Energy          =      -0.8160167987791351 [Eh]
	 Opposite-Spin Energy      =      -2.4210728587449650 [Eh]
	 Correlation Energy        =      -3.2370896575241002 [Eh]
	 Total Energy              =   -1139.0545000324705143 [Eh]

	 ================> DF-SCS-MP2 Energies <==================
	-----------------------------------------------------------
	 SCS Same-Spin Scale       =       0.3333333333333333 [-]
	 SCS Opposite-Spin Scale   =       1.2000000000000000 [-]
	 SCS Same-Spin Energy      =      -0.2720055995930450 [Eh]
	 SCS Opposite-Spin Energy  =      -2.9052874304939578 [Eh]
	 SCS Correlation Energy    =      -3.1772930300870028 [Eh]
	 SCS Total Energy          =   -1138.9947034050333059 [Eh]
	-----------------------------------------------------------

  Dipole Moment: [D]
     X:    -3.4983      Y:     2.2783      Z:     4.0168     Total:     5.7934

*** Psi4 exiting successfully. Buy a developer a beer!
