                               Psi4 1.3.2 release

  ==> Input File <==

--------------------------------------------------------------------------
#psi4
#
memory 32 gb

molecule  {
0 1
  P        2.6114510     0.0433530    -0.1897960
  O       -0.7415730    -0.5166550    -0.8759300
  O       -3.1471200     1.7525200     0.1857420
  O       -3.5574290    -0.5524670    -0.9560380
  O       -0.9257060    -1.7450834     1.1384377
  O        1.5012860     1.2233130    -0.3203930
  O        1.7414800    -1.2994450    -0.3567160
  O        2.9590140    -0.0653000     1.3909990
  O        3.7753660     0.2843820    -1.0654240
  C       -2.1786680     0.7692630     0.5423480
  C       -0.8949230     0.8134730    -0.3165700
  C       -2.7827930    -0.6059770     0.2231310
  C       -1.5369320    -1.4089660    -0.0835960
  C        0.3225300     1.1924080     0.5079200
  H       -1.9376650     0.8286140     1.6117160
  H       -1.0169450     1.4955040    -1.1629930
  H       -3.3413290    -1.0227480     1.0706890
  H       -1.7077950    -2.2947630    -0.7028010
  H        0.4416350     0.4968690     1.3430810
  H        0.1975530     2.2044650     0.9092850
  H       -2.8909940     2.6048820     0.5755830
  H       -4.0423210     0.2940670    -0.9260900
  H       -0.0419210    -2.0739930     0.9730340
  H        0.9072950    -1.0817680    -0.8531670
  H        3.8470510     0.3069850     1.5449930
units angstrom
no_reorient  #important for SAPT in psi4, default
symmetry c1  #important for SAPT in psi4, default
}

set PROPERTIES_ORIGIN ["COM"]
properties('MP2/aug-cc-pvtz', properties = ['dipole'])
--------------------------------------------------------------------------

    Molecular point group: c1
  Charge       = 0
  Multiplicity = 1
  Basis Set: AUG-CC-PVTZ
    Blend: AUG-CC-PVTZ
  Basis Set: (AUG-CC-PVTZ AUX)
    Blend: AUG-CC-PVTZ-JKFIT

    Orbital Energies [Eh]
    ---------------------

    Doubly Occupied:

       1A    -80.115312     2A    -20.611536     3A    -20.606875
       4A    -20.605743     5A    -20.604750     6A    -20.598773
       7A    -20.592002     8A    -20.575453     9A    -20.514909
      10A    -11.362250    11A    -11.324091    12A    -11.322318
      13A    -11.318987    14A    -11.308100    15A     -7.630266
      16A     -5.528688    17A     -5.528602    18A     -5.527103
      19A     -1.463558    20A     -1.448678    21A     -1.412226
      22A     -1.391346    23A     -1.378556    24A     -1.375387
      25A     -1.370297    26A     -1.296249    27A     -1.084989
      28A     -1.048120    29A     -0.947941    30A     -0.858779
      31A     -0.842405    32A     -0.830307    33A     -0.772722
      34A     -0.761356    35A     -0.748537    36A     -0.735011
      37A     -0.717188    38A     -0.693575    39A     -0.685704
      40A     -0.667041    41A     -0.653466    42A     -0.647933
      43A     -0.633378    44A     -0.614157    45A     -0.602155
      46A     -0.596954    47A     -0.582326    48A     -0.578222
      49A     -0.570665    50A     -0.560886    51A     -0.543828
      52A     -0.531749    53A     -0.527633    54A     -0.513265
      55A     -0.489400    56A     -0.487873    57A     -0.475662
      58A     -0.469703    59A     -0.466361    60A     -0.451136

  @DF-RHF Final Energy: -1135.82373677578698

   => Energetics <=

    Nuclear Repulsion Energy =           1215.1925237659345385
    One-Electron Energy =               -3983.6275558635215930
    Two-Electron Energy =                1632.6112953218002986
    Total Energy =                      -1135.8237367757869833
  Basis Set: (AUG-CC-PVTZ AUX)
    Blend: AUG-CC-PVTZ-RI
    Molecular point group: c1

    Geometry (in Angstrom), charge = 0, multiplicity = 1:

       Center              X                  Y                   Z               Mass
    ------------   -----------------  -----------------  -----------------  -----------------
         P            2.559048791226     0.054039090407    -0.169245288616    30.973761998420
         O           -0.793975208774    -0.505968909593    -0.855379288616    15.994914619570
         O           -3.199522208774     1.763206090407     0.206292711384    15.994914619570
         O           -3.609831208774    -0.541780909593    -0.935487288616    15.994914619570
         O           -0.978108208774    -1.734397309593     1.158988411384    15.994914619570
         O            1.448883791226     1.233999090407    -0.299842288616    15.994914619570
         O            1.689077791226    -1.288758909593    -0.336165288616    15.994914619570
         O            2.906611791226    -0.054613909593     1.411549711384    15.994914619570
         O            3.722963791226     0.295068090407    -1.044873288616    15.994914619570
         C           -2.231070208774     0.779949090407     0.562898711384    12.000000000000
         C           -0.947325208774     0.824159090407    -0.296019288616    12.000000000000
         C           -2.835195208774    -0.595290909593     0.243681711384    12.000000000000
         C           -1.589334208774    -1.398279909593    -0.063045288616    12.000000000000
         C            0.270127791226     1.203094090407     0.528470711384    12.000000000000
         H           -1.990067208774     0.839300090407     1.632266711384     1.007825032230
         H           -1.069347208774     1.506190090407    -1.142442288616     1.007825032230
         H           -3.393731208774    -1.012061909593     1.091239711384     1.007825032230
         H           -1.760197208774    -2.284076909593    -0.682250288616     1.007825032230
         H            0.389232791226     0.507555090407     1.363631711384     1.007825032230
         H            0.145150791226     2.215151090407     0.929835711384     1.007825032230
         H           -2.943396208774     2.615568090407     0.596133711384     1.007825032230
         H           -4.094723208774     0.304753090407    -0.905539288616     1.007825032230
         H           -0.094323208774    -2.063306909593     0.993584711384     1.007825032230
         H            0.854892791226    -1.071081909593    -0.832616288616     1.007825032230
         H            3.794648791226     0.317671090407     1.565543711384     1.007825032230

  Basis Set: AUG-CC-PVTZ
    Blend: AUG-CC-PVTZ
  Basis Set: (AUG-CC-PVTZ AUX)
    Blend: AUG-CC-PVTZ-JKFIT
	 Reference Energy          =   -1135.8237367757869833 [Eh]
	 Singles Energy            =      -0.0000000000000000 [Eh]
	 Same-Spin Energy          =      -0.8158501542030133 [Eh]
	 Opposite-Spin Energy      =      -2.4210015110555965 [Eh]
	 Correlation Energy        =      -3.2368516652586097 [Eh]
	 Total Energy              =   -1139.0605884410456383 [Eh]

	 ================> DF-SCS-MP2 Energies <==================
	-----------------------------------------------------------
	 SCS Same-Spin Scale       =       0.3333333333333333 [-]
	 SCS Opposite-Spin Scale   =       1.2000000000000000 [-]
	 SCS Same-Spin Energy      =      -0.2719500514010044 [Eh]
	 SCS Opposite-Spin Energy  =      -2.9052018132667157 [Eh]
	 SCS Correlation Energy    =      -3.1771518646677199 [Eh]
	 SCS Total Energy          =   -1139.0008886404546047 [Eh]
	-----------------------------------------------------------

  Dipole Moment: [D]
     X:    -3.4722      Y:     2.4250      Z:     4.0304     Total:     5.8465

*** Psi4 exiting successfully. Buy a developer a beer!
