                               Psi4 1.3.2 release

  ==> Input File <==

--------------------------------------------------------------------------
#psi4
#
memory 32 gb

molecule  {
0 1
  P        2.6114510     0.0433530    -0.1897960
  O       -0.7415730    -0.5166550    -0.8759300
  O       -3.1471200     1.7525200     0.1857420
  O       -3.5574290    -0.5524670    -0.9560380
  O       -0.8561658    -1.7451661     1.1010834
  O        1.5012860     1.2233130    -0.3203930
  O        1.7414800    -1.2994450    -0.3567160
  O        2.9590140    -0.0653000     1.3909990
  O        3.7753660     0.2843820    -1.0654240
  C       -2.1786680     0.7692630     0.5423480
  C       -0.8949230     0.8134730    -0.3165700
  C       -2.7827930    -0.6059770     0.2231310
  C       -1.5369320    -1.4089660    -0.0835960
  C        0.3225300     1.1924080     0.5079200
  H       -1.9376650     0.8286140     1.6117160
  H       -1.0169450     1.4955040    -1.1629930
  H       -3.3413290    -1.0227480     1.0706890
  H       -1.7077950    -2.2947630    -0.7028010
  H        0.4416350     0.4968690     1.3430810
  H        0.1975530     2.2044650     0.9092850
  H       -2.8909940     2.6048820     0.5755830
  H       -4.0423210     0.2940670    -0.9260900
  H       -0.0419210    -2.0739930     0.9730340
  H        0.9072950    -1.0817680    -0.8531670
  H        3.8470510     0.3069850     1.5449930
units angstrom
no_reorient  #important for SAPT in psi4, default
symmetry c1  #important for SAPT in psi4, default
}

set PROPERTIES_ORIGIN ["COM"]
properties('MP2/aug-cc-pvtz', properties = ['dipole'])
--------------------------------------------------------------------------

    Molecular point group: c1
  Charge       = 0
  Multiplicity = 1
  Basis Set: AUG-CC-PVTZ
    Blend: AUG-CC-PVTZ
  Basis Set: (AUG-CC-PVTZ AUX)
    Blend: AUG-CC-PVTZ-JKFIT

    Orbital Energies [Eh]
    ---------------------

    Doubly Occupied:

       1A    -80.114173     2A    -20.610579     3A    -20.607506
       4A    -20.604792     5A    -20.602258     6A    -20.596871
       7A    -20.582309     8A    -20.577723     9A    -20.513940
      10A    -11.364715    11A    -11.324897    12A    -11.321364
      13A    -11.318485    14A    -11.311247    15A     -7.629122
      16A     -5.527551    17A     -5.527452    18A     -5.525961
      19A     -1.465590    20A     -1.449548    21A     -1.414696
      22A     -1.391472    23A     -1.380554    24A     -1.377018
      25A     -1.372168    26A     -1.295295    27A     -1.085082
      28A     -1.051938    29A     -0.950669    30A     -0.860088
      31A     -0.842312    32A     -0.833500    33A     -0.779797
      34A     -0.766597    35A     -0.748432    36A     -0.735195
      37A     -0.716197    38A     -0.692740    39A     -0.687371
      40A     -0.669969    41A     -0.653467    42A     -0.646261
      43A     -0.634255    44A     -0.614624    45A     -0.601332
      46A     -0.598494    47A     -0.581201    48A     -0.577674
      49A     -0.570423    50A     -0.561387    51A     -0.542376
      52A     -0.532109    53A     -0.527003    54A     -0.513122
      55A     -0.489780    56A     -0.487086    57A     -0.474820
      58A     -0.470237    59A     -0.466185    60A     -0.451296

  @DF-RHF Final Energy: -1135.81916995594520

   => Energetics <=

    Nuclear Repulsion Energy =           1216.3733404207257536
    One-Electron Energy =               -3985.9444058246067470
    Two-Electron Energy =                1633.7518954479360218
    Total Energy =                      -1135.8191699559451990
  Basis Set: (AUG-CC-PVTZ AUX)
    Blend: AUG-CC-PVTZ-RI
    Molecular point group: c1

    Geometry (in Angstrom), charge = 0, multiplicity = 1:

       Center              X                  Y                   Z               Mass
    ------------   -----------------  -----------------  -----------------  -----------------
         P            2.554213152364     0.054044841143    -0.166647770853    30.973761998420
         O           -0.798810847636    -0.505963158857    -0.852781770853    15.994914619570
         O           -3.204357847636     1.763211841143     0.208890229147    15.994914619570
         O           -3.614666847636    -0.541775158857    -0.932889770853    15.994914619570
         O           -0.913403647636    -1.734474258857     1.124231629147    15.994914619570
         O            1.444048152364     1.234004841143    -0.297244770853    15.994914619570
         O            1.684242152364    -1.288753158857    -0.333567770853    15.994914619570
         O            2.901776152364    -0.054608158857     1.414147229147    15.994914619570
         O            3.718128152364     0.295073841143    -1.042275770853    15.994914619570
         C           -2.235905847636     0.779954841143     0.565496229147    12.000000000000
         C           -0.952160847636     0.824164841143    -0.293421770853    12.000000000000
         C           -2.840030847636    -0.595285158857     0.246279229147    12.000000000000
         C           -1.594169847636    -1.398274158857    -0.060447770853    12.000000000000
         C            0.265292152364     1.203099841143     0.531068229147    12.000000000000
         H           -1.994902847636     0.839305841143     1.634864229147     1.007825032230
         H           -1.074182847636     1.506195841143    -1.139844770853     1.007825032230
         H           -3.398566847636    -1.012056158857     1.093837229147     1.007825032230
         H           -1.765032847636    -2.284071158857    -0.679652770853     1.007825032230
         H            0.384397152364     0.507560841143     1.366229229147     1.007825032230
         H            0.140315152364     2.215156841143     0.932433229147     1.007825032230
         H           -2.948231847636     2.615573841143     0.598731229147     1.007825032230
         H           -4.099558847636     0.304758841143    -0.902941770853     1.007825032230
         H           -0.099158847636    -2.063301158857     0.996182229147     1.007825032230
         H            0.850057152364    -1.071076158857    -0.830018770853     1.007825032230
         H            3.789813152364     0.317676841143     1.568141229147     1.007825032230

  Basis Set: AUG-CC-PVTZ
    Blend: AUG-CC-PVTZ
  Basis Set: (AUG-CC-PVTZ AUX)
    Blend: AUG-CC-PVTZ-JKFIT
	 Reference Energy          =   -1135.8191699559451990 [Eh]
	 Singles Energy            =      -0.0000000000000000 [Eh]
	 Same-Spin Energy          =      -0.8147339217991786 [Eh]
	 Opposite-Spin Energy      =      -2.4184746979671603 [Eh]
	 Correlation Energy        =      -3.2332086197663390 [Eh]
	 Total Energy              =   -1139.0523785757116002 [Eh]

	 ================> DF-SCS-MP2 Energies <==================
	-----------------------------------------------------------
	 SCS Same-Spin Scale       =       0.3333333333333333 [-]
	 SCS Opposite-Spin Scale   =       1.2000000000000000 [-]
	 SCS Same-Spin Energy      =      -0.2715779739330595 [Eh]
	 SCS Opposite-Spin Energy  =      -2.9021696375605921 [Eh]
	 SCS Correlation Energy    =      -3.1737476114936518 [Eh]
	 SCS Total Energy          =   -1138.9929175674387807 [Eh]
	-----------------------------------------------------------

  Dipole Moment: [D]
     X:    -3.6644      Y:     2.4064      Z:     4.0558     Total:     5.9723

*** Psi4 exiting successfully. Buy a developer a beer!
