                               Psi4 1.3.2 release

  ==> Input File <==

--------------------------------------------------------------------------
#psi4
#
memory 32 gb

molecule  {
0 1
  P        2.6114510     0.0433530    -0.1897960
  O       -0.7415730    -0.5166550    -0.8759300
  O       -3.1471200     1.7525200     0.1857420
  O       -3.5574290    -0.5524670    -0.9560380
  O       -0.9262260    -1.6975490     1.1507850
  O        1.5012860     1.2233130    -0.3203930
  O        1.7414800    -1.2994450    -0.3567160
  O        2.9590140    -0.0653000     1.3909990
  O        3.7753660     0.2843820    -1.0654240
  C       -2.1786680     0.7692630     0.5423480
  C       -0.8949230     0.8134730    -0.3165700
  C       -2.7827930    -0.6059770     0.2231310
  C       -1.5369320    -1.4089660    -0.0835960
  C        0.3272264     1.2125209     0.4913154
  H       -1.9376650     0.8286140     1.6117160
  H       -1.0169450     1.4955040    -1.1629930
  H       -3.3413290    -1.0227480     1.0706890
  H       -1.7077950    -2.2947630    -0.7028010
  H        0.4416350     0.4968690     1.3430810
  H        0.1975530     2.2044650     0.9092850
  H       -2.8909940     2.6048820     0.5755830
  H       -4.0423210     0.2940670    -0.9260900
  H       -0.0419210    -2.0739930     0.9730340
  H        0.9072950    -1.0817680    -0.8531670
  H        3.8470510     0.3069850     1.5449930
units angstrom
no_reorient  #important for SAPT in psi4, default
symmetry c1  #important for SAPT in psi4, default
}

set PROPERTIES_ORIGIN ["COM"]
properties('MP2/aug-cc-pvtz', properties = ['dipole'])
--------------------------------------------------------------------------

    Molecular point group: c1
  Charge       = 0
  Multiplicity = 1
  Basis Set: AUG-CC-PVTZ
    Blend: AUG-CC-PVTZ
  Basis Set: (AUG-CC-PVTZ AUX)
    Blend: AUG-CC-PVTZ-JKFIT

    Orbital Energies [Eh]
    ---------------------

    Doubly Occupied:

       1A    -80.116001     2A    -20.611493     3A    -20.605994
       4A    -20.605779     5A    -20.603581     6A    -20.598781
       7A    -20.594456     8A    -20.574624     9A    -20.515346
      10A    -11.362046    11A    -11.323157    12A    -11.321360
      13A    -11.317629    14A    -11.307058    15A     -7.630879
      16A     -5.529327    17A     -5.529216    18A     -5.527706
      19A     -1.463754    20A     -1.448899    21A     -1.411187
      22A     -1.392954    23A     -1.379005    24A     -1.373407
      25A     -1.368507    26A     -1.296716    27A     -1.083533
      28A     -1.046709    29A     -0.946902    30A     -0.858701
      31A     -0.841123    32A     -0.828402    33A     -0.772108
      34A     -0.759867    35A     -0.748108    36A     -0.733394
      37A     -0.717181    38A     -0.695648    39A     -0.684114
      40A     -0.666699    41A     -0.654520    42A     -0.647637
      43A     -0.633253    44A     -0.614192    45A     -0.600501
      46A     -0.596573    47A     -0.582939    48A     -0.576507
      49A     -0.569417    50A     -0.559873    51A     -0.543484
      52A     -0.530873    53A     -0.526594    54A     -0.510306
      55A     -0.490654    56A     -0.487371    57A     -0.475110
      58A     -0.469380    59A     -0.465541    60A     -0.450677

  @DF-RHF Final Energy: -1135.82228014093471

   => Energetics <=

    Nuclear Repulsion Energy =           1215.8308424534973256
    One-Electron Energy =               -3984.9527393895964451
    Two-Electron Energy =                1633.2996167951641837
    Total Energy =                      -1135.8222801409347085
  Basis Set: (AUG-CC-PVTZ AUX)
    Blend: AUG-CC-PVTZ-RI
    Molecular point group: c1

    Geometry (in Angstrom), charge = 0, multiplicity = 1:

       Center              X                  Y                   Z               Mass
    ------------   -----------------  -----------------  -----------------  -----------------
         P            2.558839941469     0.049684394502    -0.169237631903    30.973761998420
         O           -0.794184058531    -0.510323605498    -0.855371631903    15.994914619570
         O           -3.199731058531     1.758851394502     0.206300368097    15.994914619570
         O           -3.610040058531    -0.546135605498    -0.935479631903    15.994914619570
         O           -0.978837058531    -1.691217605498     1.171343368097    15.994914619570
         O            1.448674941469     1.229644394502    -0.299834631903    15.994914619570
         O            1.688868941469    -1.293113605498    -0.336157631903    15.994914619570
         O            2.906402941469    -0.058968605498     1.411557368097    15.994914619570
         O            3.722754941469     0.290713394502    -1.044865631903    15.994914619570
         C           -2.231279058531     0.775594394502     0.562906368097    12.000000000000
         C           -0.947534058531     0.819804394502    -0.296011631903    12.000000000000
         C           -2.835404058531    -0.599645605498     0.243689368097    12.000000000000
         C           -1.589543058531    -1.402634605498    -0.063037631903    12.000000000000
         C            0.274615341469     1.218852294502     0.511873768097    12.000000000000
         H           -1.990276058531     0.834945394502     1.632274368097     1.007825032230
         H           -1.069556058531     1.501835394502    -1.142434631903     1.007825032230
         H           -3.393940058531    -1.016416605498     1.091247368097     1.007825032230
         H           -1.760406058531    -2.288431605498    -0.682242631903     1.007825032230
         H            0.389023941469     0.503200394502     1.363639368097     1.007825032230
         H            0.144941941469     2.210796394502     0.929843368097     1.007825032230
         H           -2.943605058531     2.611213394502     0.596141368097     1.007825032230
         H           -4.094932058531     0.300398394502    -0.905531631903     1.007825032230
         H           -0.094532058531    -2.067661605498     0.993592368097     1.007825032230
         H            0.854683941469    -1.075436605498    -0.832608631903     1.007825032230
         H            3.794439941469     0.313316394502     1.565551368097     1.007825032230

  Basis Set: AUG-CC-PVTZ
    Blend: AUG-CC-PVTZ
  Basis Set: (AUG-CC-PVTZ AUX)
    Blend: AUG-CC-PVTZ-JKFIT
	 Reference Energy          =   -1135.8222801409347085 [Eh]
	 Singles Energy            =      -0.0000000000000000 [Eh]
	 Same-Spin Energy          =      -0.8162531329787683 [Eh]
	 Opposite-Spin Energy      =      -2.4216440318190067 [Eh]
	 Correlation Energy        =      -3.2378971647977748 [Eh]
	 Total Energy              =   -1139.0601773057323953 [Eh]

	 ================> DF-SCS-MP2 Energies <==================
	-----------------------------------------------------------
	 SCS Same-Spin Scale       =       0.3333333333333333 [-]
	 SCS Opposite-Spin Scale   =       1.2000000000000000 [-]
	 SCS Same-Spin Energy      =      -0.2720843776595894 [Eh]
	 SCS Opposite-Spin Energy  =      -2.9059728381828078 [Eh]
	 SCS Correlation Energy    =      -3.1780572158423972 [Eh]
	 SCS Total Energy          =   -1139.0003373567772087 [Eh]
	-----------------------------------------------------------

  Dipole Moment: [D]
     X:    -3.4333      Y:     2.3081      Z:     4.0106     Total:     5.7619

*** Psi4 exiting successfully. Buy a developer a beer!
