                               Psi4 1.3.2 release

  ==> Input File <==

--------------------------------------------------------------------------
#psi4
#
memory 32 gb

molecule  {
0 1
  P        2.6114510     0.0433530    -0.1897960
  O       -0.7415730    -0.5166550    -0.8759300
  O       -3.1471200     1.7525200     0.1857420
  O       -3.5574290    -0.5524670    -0.9560380
  O       -0.9262260    -1.6975490     1.1507850
  O        1.5012860     1.2233130    -0.3203930
  O        1.7414800    -1.2994450    -0.3567160
  O        2.9590140    -0.0653000     1.3909990
  O        3.7753660     0.2843820    -1.0654240
  C       -2.2783146     0.8049233     0.5593058
  C       -0.8949230     0.8134730    -0.3165700
  C       -2.7827930    -0.6059770     0.2231310
  C       -1.5369320    -1.4089660    -0.0835960
  C        0.3225300     1.1924080     0.5079200
  H       -1.9376650     0.8286140     1.6117160
  H       -1.0169450     1.4955040    -1.1629930
  H       -3.3413290    -1.0227480     1.0706890
  H       -1.7077950    -2.2947630    -0.7028010
  H        0.4416350     0.4968690     1.3430810
  H        0.1975530     2.2044650     0.9092850
  H       -2.8909940     2.6048820     0.5755830
  H       -4.0423210     0.2940670    -0.9260900
  H       -0.0419210    -2.0739930     0.9730340
  H        0.9072950    -1.0817680    -0.8531670
  H        3.8470510     0.3069850     1.5449930
units angstrom
no_reorient  #important for SAPT in psi4, default
symmetry c1  #important for SAPT in psi4, default
}

set PROPERTIES_ORIGIN ["COM"]
properties('MP2/aug-cc-pvtz', properties = ['dipole'])
--------------------------------------------------------------------------

    Molecular point group: c1
  Charge       = 0
  Multiplicity = 1
  Basis Set: AUG-CC-PVTZ
    Blend: AUG-CC-PVTZ
  Basis Set: (AUG-CC-PVTZ AUX)
    Blend: AUG-CC-PVTZ-JKFIT

    Orbital Energies [Eh]
    ---------------------

    Doubly Occupied:

       1A    -80.113283     2A    -20.615992     3A    -20.609735
       4A    -20.602749     5A    -20.600943     6A    -20.596793
       7A    -20.593175     8A    -20.574148     9A    -20.513175
      10A    -11.361759    11A    -11.325636    12A    -11.318080
      13A    -11.314240    14A    -11.305334    15A     -7.628233
      16A     -5.526651    17A     -5.526572    18A     -5.525075
      19A     -1.462279    20A     -1.450965    21A     -1.438575
      22A     -1.388697    23A     -1.377729    24A     -1.376042
      25A     -1.366274    26A     -1.294505    27A     -1.069233
      28A     -1.043544    29A     -0.943976    30A     -0.860342
      31A     -0.841713    32A     -0.824358    33A     -0.778212
      34A     -0.760678    35A     -0.749885    36A     -0.734784
      37A     -0.715672    38A     -0.694102    39A     -0.689929
      40A     -0.668218    41A     -0.651492    42A     -0.647141
      43A     -0.635731    44A     -0.615724    45A     -0.605195
      46A     -0.597449    47A     -0.583970    48A     -0.579649
      49A     -0.570626    50A     -0.558258    51A     -0.541579
      52A     -0.529796    53A     -0.525098    54A     -0.509507
      55A     -0.488512    56A     -0.478346    57A     -0.473524
      58A     -0.467571    59A     -0.461806    60A     -0.434730

  @DF-RHF Final Energy: -1135.81429195040005

   => Energetics <=

    Nuclear Repulsion Energy =           1214.6566610956622299
    One-Electron Energy =               -3982.6679352441828996
    Two-Electron Energy =                1632.1969821981208497
    Total Energy =                      -1135.8142919504000474
  Basis Set: (AUG-CC-PVTZ AUX)
    Blend: AUG-CC-PVTZ-RI
    Molecular point group: c1

    Geometry (in Angstrom), charge = 0, multiplicity = 1:

       Center              X                  Y                   Z               Mass
    ------------   -----------------  -----------------  -----------------  -----------------
         P            2.564283470743     0.048873293354    -0.170988567825    30.973761998420
         O           -0.788740529257    -0.511134706646    -0.857122567825    15.994914619570
         O           -3.194287529257     1.758040293354     0.204549432175    15.994914619570
         O           -3.604596529257    -0.546946706646    -0.937230567825    15.994914619570
         O           -0.973393529257    -1.692028706646     1.169592432175    15.994914619570
         O            1.454118470743     1.228833293354    -0.301585567825    15.994914619570
         O            1.694312470743    -1.293924706646    -0.337908567825    15.994914619570
         O            2.911846470743    -0.059779706646     1.409806432175    15.994914619570
         O            3.728198470743     0.289902293354    -1.046616567825    15.994914619570
         C           -2.325482129257     0.810443593354     0.578113232175    12.000000000000
         C           -0.942090529257     0.818993293354    -0.297762567825    12.000000000000
         C           -2.829960529257    -0.600456706646     0.241938432175    12.000000000000
         C           -1.584099529257    -1.403445706646    -0.064788567825    12.000000000000
         C            0.275362470743     1.197928293354     0.526727432175    12.000000000000
         H           -1.984832529257     0.834134293354     1.630523432175     1.007825032230
         H           -1.064112529257     1.501024293354    -1.144185567825     1.007825032230
         H           -3.388496529257    -1.017227706646     1.089496432175     1.007825032230
         H           -1.754962529257    -2.289242706646    -0.683993567825     1.007825032230
         H            0.394467470743     0.502389293354     1.361888432175     1.007825032230
         H            0.150385470743     2.209985293354     0.928092432175     1.007825032230
         H           -2.938161529257     2.610402293354     0.594390432175     1.007825032230
         H           -4.089488529257     0.299587293354    -0.907282567825     1.007825032230
         H           -0.089088529257    -2.068472706646     0.991841432175     1.007825032230
         H            0.860127470743    -1.076247706646    -0.834359567825     1.007825032230
         H            3.799883470743     0.312505293354     1.563800432175     1.007825032230

  Basis Set: AUG-CC-PVTZ
    Blend: AUG-CC-PVTZ
  Basis Set: (AUG-CC-PVTZ AUX)
    Blend: AUG-CC-PVTZ-JKFIT
	 Reference Energy          =   -1135.8142919504000474 [Eh]
	 Singles Energy            =      -0.0000000000000000 [Eh]
	 Same-Spin Energy          =      -0.8161183657978327 [Eh]
	 Opposite-Spin Energy      =      -2.4208913544602368 [Eh]
	 Correlation Energy        =      -3.2370097202580697 [Eh]
	 Total Energy              =   -1139.0513016706581766 [Eh]

	 ================> DF-SCS-MP2 Energies <==================
	-----------------------------------------------------------
	 SCS Same-Spin Scale       =       0.3333333333333333 [-]
	 SCS Opposite-Spin Scale   =       1.2000000000000000 [-]
	 SCS Same-Spin Energy      =      -0.2720394552659442 [Eh]
	 SCS Opposite-Spin Energy  =      -2.9050696253522843 [Eh]
	 SCS Correlation Energy    =      -3.1771090806182283 [Eh]
	 SCS Total Energy          =   -1138.9914010310183130 [Eh]
	-----------------------------------------------------------

  Dipole Moment: [D]
     X:    -3.8091      Y:     2.5328      Z:     4.0569     Total:     6.1142

*** Psi4 exiting successfully. Buy a developer a beer!
