                               Psi4 1.3.2 release

  ==> Input File <==

--------------------------------------------------------------------------
#psi4
#
memory 32 gb

molecule  {
0 1
  P        2.6114510     0.0433530    -0.1897960
  O       -0.7415730    -0.5166550    -0.8759300
  O       -3.1471200     1.7525200     0.1857420
  O       -3.6234431    -0.4989662    -0.9061254
  O       -0.9262260    -1.6975490     1.1507850
  O        1.5012860     1.2233130    -0.3203930
  O        1.7414800    -1.2994450    -0.3567160
  O        2.9590140    -0.0653000     1.3909990
  O        3.7753660     0.2843820    -1.0654240
  C       -2.1786680     0.7692630     0.5423480
  C       -0.8949230     0.8134730    -0.3165700
  C       -2.7827930    -0.6059770     0.2231310
  C       -1.5369320    -1.4089660    -0.0835960
  C        0.3225300     1.1924080     0.5079200
  H       -1.9376650     0.8286140     1.6117160
  H       -1.0169450     1.4955040    -1.1629930
  H       -3.3413290    -1.0227480     1.0706890
  H       -1.7077950    -2.2947630    -0.7028010
  H        0.4416350     0.4968690     1.3430810
  H        0.1975530     2.2044650     0.9092850
  H       -2.8909940     2.6048820     0.5755830
  H       -4.0423210     0.2940670    -0.9260900
  H       -0.0419210    -2.0739930     0.9730340
  H        0.9072950    -1.0817680    -0.8531670
  H        3.8470510     0.3069850     1.5449930
units angstrom
no_reorient  #important for SAPT in psi4, default
symmetry c1  #important for SAPT in psi4, default
}

set PROPERTIES_ORIGIN ["COM"]
properties('MP2/aug-cc-pvtz', properties = ['dipole'])
--------------------------------------------------------------------------

    Molecular point group: c1
  Charge       = 0
  Multiplicity = 1
  Basis Set: AUG-CC-PVTZ
    Blend: AUG-CC-PVTZ
  Basis Set: (AUG-CC-PVTZ AUX)
    Blend: AUG-CC-PVTZ-JKFIT

    Orbital Energies [Eh]
    ---------------------

    Doubly Occupied:

       1A    -80.115438     2A    -20.611621     3A    -20.605509
       4A    -20.604985     5A    -20.604720     6A    -20.599193
       7A    -20.597173     8A    -20.565051     9A    -20.515038
      10A    -11.365190    11A    -11.322787    12A    -11.321643
      13A    -11.318640    14A    -11.309298    15A     -7.630390
      16A     -5.528809    17A     -5.528730    18A     -5.527227
      19A     -1.464355    20A     -1.449370    21A     -1.414786
      22A     -1.391280    23A     -1.381854    24A     -1.378799
      25A     -1.371904    26A     -1.296378    27A     -1.085453
      28A     -1.051670    29A     -0.947507    30A     -0.858029
      31A     -0.846662    32A     -0.832749    33A     -0.774227
      34A     -0.765568    35A     -0.747779    36A     -0.734399
      37A     -0.717360    38A     -0.693860    39A     -0.686857
      40A     -0.675030    41A     -0.654048    42A     -0.649102
      43A     -0.632787    44A     -0.615691    45A     -0.600961
      46A     -0.597445    47A     -0.582775    48A     -0.578785
      49A     -0.569721    50A     -0.561828    51A     -0.543950
      52A     -0.533381    53A     -0.528470    54A     -0.510415
      55A     -0.491234    56A     -0.488596    57A     -0.475447
      58A     -0.469036    59A     -0.465479    60A     -0.451525

  @DF-RHF Final Energy: -1135.82061508708830

   => Energetics <=

    Nuclear Repulsion Energy =           1215.6485650245244869
    One-Electron Energy =               -3984.4623755589445864
    Two-Electron Energy =                1632.9931954473318001
    Total Energy =                      -1135.8206150870882993
  Basis Set: (AUG-CC-PVTZ AUX)
    Blend: AUG-CC-PVTZ-RI
    Molecular point group: c1

    Geometry (in Angstrom), charge = 0, multiplicity = 1:

       Center              X                  Y                   Z               Mass
    ------------   -----------------  -----------------  -----------------  -----------------
         P            2.563675393963     0.047013373778    -0.173574674957    30.973761998420
         O           -0.789348606037    -0.512994626222    -0.859708674957    15.994914619570
         O           -3.194895606037     1.756180373778     0.201963325043    15.994914619570
         O           -3.671218706037    -0.495305826222    -0.889904074957    15.994914619570
         O           -0.974001606037    -1.693888626222     1.167006325043    15.994914619570
         O            1.453510393963     1.226973373778    -0.304171674957    15.994914619570
         O            1.693704393963    -1.295784626222    -0.340494674957    15.994914619570
         O            2.911238393963    -0.061639626222     1.407220325043    15.994914619570
         O            3.727590393963     0.288042373778    -1.049202674957    15.994914619570
         C           -2.226443606037     0.772923373778     0.558569325043    12.000000000000
         C           -0.942698606037     0.817133373778    -0.300348674957    12.000000000000
         C           -2.830568606037    -0.602316626222     0.239352325043    12.000000000000
         C           -1.584707606037    -1.405305626222    -0.067374674957    12.000000000000
         C            0.274754393963     1.196068373778     0.524141325043    12.000000000000
         H           -1.985440606037     0.832274373778     1.627937325043     1.007825032230
         H           -1.064720606037     1.499164373778    -1.146771674957     1.007825032230
         H           -3.389104606037    -1.019087626222     1.086910325043     1.007825032230
         H           -1.755570606037    -2.291102626222    -0.686579674957     1.007825032230
         H            0.393859393963     0.500529373778     1.359302325043     1.007825032230
         H            0.149777393963     2.208125373778     0.925506325043     1.007825032230
         H           -2.938769606037     2.608542373778     0.591804325043     1.007825032230
         H           -4.090096606037     0.297727373778    -0.909868674957     1.007825032230
         H           -0.089696606037    -2.070332626222     0.989255325043     1.007825032230
         H            0.859519393963    -1.078107626222    -0.836945674957     1.007825032230
         H            3.799275393963     0.310645373778     1.561214325043     1.007825032230

  Basis Set: AUG-CC-PVTZ
    Blend: AUG-CC-PVTZ
  Basis Set: (AUG-CC-PVTZ AUX)
    Blend: AUG-CC-PVTZ-JKFIT
	 Reference Energy          =   -1135.8206150870882993 [Eh]
	 Singles Energy            =      -0.0000000000000000 [Eh]
	 Same-Spin Energy          =      -0.8150133292165128 [Eh]
	 Opposite-Spin Energy      =      -2.4190304194518046 [Eh]
	 Correlation Energy        =      -3.2340437486683173 [Eh]
	 Total Energy              =   -1139.0546588357565270 [Eh]

	 ================> DF-SCS-MP2 Energies <==================
	-----------------------------------------------------------
	 SCS Same-Spin Scale       =       0.3333333333333333 [-]
	 SCS Opposite-Spin Scale   =       1.2000000000000000 [-]
	 SCS Same-Spin Energy      =      -0.2716711097388376 [Eh]
	 SCS Opposite-Spin Energy  =      -2.9028365033421655 [Eh]
	 SCS Correlation Energy    =      -3.1745076130810030 [Eh]
	 SCS Total Energy          =   -1138.9951227001693042 [Eh]
	-----------------------------------------------------------

  Dipole Moment: [D]
     X:    -3.3094      Y:     2.2128      Z:     3.9842     Total:     5.6323

*** Psi4 exiting successfully. Buy a developer a beer!
