                               Psi4 1.3.2 release

  ==> Input File <==

--------------------------------------------------------------------------
#psi4
#
memory 32 gb

molecule  {
0 1
  P        2.6269258     0.0560272    -0.2099112
  O       -0.7415730    -0.5166550    -0.8759300
  O       -3.1471200     1.7525200     0.1857420
  O       -3.5574290    -0.5524670    -0.9560380
  O       -0.9262260    -1.6975490     1.1507850
  O        1.5012860     1.2233130    -0.3203930
  O        1.7414800    -1.2994450    -0.3567160
  O        2.9590140    -0.0653000     1.3909990
  O        3.7753660     0.2843820    -1.0654240
  C       -2.1786680     0.7692630     0.5423480
  C       -0.8949230     0.8134730    -0.3165700
  C       -2.7827930    -0.6059770     0.2231310
  C       -1.5369320    -1.4089660    -0.0835960
  C        0.3225300     1.1924080     0.5079200
  H       -1.9376650     0.8286140     1.6117160
  H       -1.0169450     1.4955040    -1.1629930
  H       -3.3413290    -1.0227480     1.0706890
  H       -1.7077950    -2.2947630    -0.7028010
  H        0.4416350     0.4968690     1.3430810
  H        0.1975530     2.2044650     0.9092850
  H       -2.8909940     2.6048820     0.5755830
  H       -4.0423210     0.2940670    -0.9260900
  H       -0.0419210    -2.0739930     0.9730340
  H        0.9072950    -1.0817680    -0.8531670
  H        3.8470510     0.3069850     1.5449930
units angstrom
no_reorient  #important for SAPT in psi4, default
symmetry c1  #important for SAPT in psi4, default
}

set PROPERTIES_ORIGIN ["COM"]
properties('MP2/aug-cc-pvtz', properties = ['dipole'])
--------------------------------------------------------------------------

    Molecular point group: c1
  Charge       = 0
  Multiplicity = 1
  Basis Set: AUG-CC-PVTZ
    Blend: AUG-CC-PVTZ
  Basis Set: (AUG-CC-PVTZ AUX)
    Blend: AUG-CC-PVTZ-JKFIT

    Orbital Energies [Eh]
    ---------------------

    Doubly Occupied:

       1A    -80.114049     2A    -20.607845     3A    -20.605683
       4A    -20.604586     5A    -20.602201     6A    -20.594645
       7A    -20.593437     8A    -20.574210     9A    -20.520407
      10A    -11.361148    11A    -11.322640    12A    -11.320812
      13A    -11.317473    14A    -11.306475    15A     -7.629518
      16A     -5.527819    17A     -5.527707    18A     -5.526596
      19A     -1.460860    20A     -1.445320    21A     -1.410755
      22A     -1.386664    23A     -1.372798    24A     -1.371440
      25A     -1.367046    26A     -1.312174    27A     -1.083511
      28A     -1.046206    29A     -0.946271    30A     -0.855202
      31A     -0.839553    32A     -0.826562    33A     -0.770203
      34A     -0.758319    35A     -0.745788    36A     -0.732458
      37A     -0.710628    38A     -0.691803    39A     -0.683324
      40A     -0.665925    41A     -0.651790    42A     -0.645372
      43A     -0.631786    44A     -0.612611    45A     -0.599473
      46A     -0.595579    47A     -0.581561    48A     -0.575633
      49A     -0.569435    50A     -0.557761    51A     -0.545237
      52A     -0.530357    53A     -0.525794    54A     -0.510892
      55A     -0.489778    56A     -0.487980    57A     -0.482387
      58A     -0.477304    59A     -0.467270    60A     -0.450986

  @DF-RHF Final Energy: -1135.82169223892629

   => Energetics <=

    Nuclear Repulsion Energy =           1215.3238681596492370
    One-Electron Energy =               -3984.0330262559309631
    Two-Electron Energy =                1632.8874658573552097
    Total Energy =                      -1135.8216922389262891
  Basis Set: (AUG-CC-PVTZ AUX)
    Blend: AUG-CC-PVTZ-RI
    Molecular point group: c1

    Geometry (in Angstrom), charge = 0, multiplicity = 1:

       Center              X                  Y                   Z               Mass
    ------------   -----------------  -----------------  -----------------  -----------------
         P            2.572475955593     0.061701202056    -0.187510427871    30.973761998420
         O           -0.796022844407    -0.510980997944    -0.853529227871    15.994914619570
         O           -3.201569844407     1.758194002056     0.208142772129    15.994914619570
         O           -3.611878844407    -0.546792997944    -0.933637227871    15.994914619570
         O           -0.980675844407    -1.691874997944     1.173185772129    15.994914619570
         O            1.446836155593     1.228987002056    -0.297992227871    15.994914619570
         O            1.687030155593    -1.293770997944    -0.334315227871    15.994914619570
         O            2.904564155593    -0.059625997944     1.413399772129    15.994914619570
         O            3.720916155593     0.290056002056    -1.043023227871    15.994914619570
         C           -2.233117844407     0.774937002056     0.564748772129    12.000000000000
         C           -0.949372844407     0.819147002056    -0.294169227871    12.000000000000
         C           -2.837242844407    -0.600302997944     0.245531772129    12.000000000000
         C           -1.591381844407    -1.403291997944    -0.061195227871    12.000000000000
         C            0.268080155593     1.198082002056     0.530320772129    12.000000000000
         H           -1.992114844407     0.834288002056     1.634116772129     1.007825032230
         H           -1.071394844407     1.501178002056    -1.140592227871     1.007825032230
         H           -3.395778844407    -1.017073997944     1.093089772129     1.007825032230
         H           -1.762244844407    -2.289088997944    -0.680400227871     1.007825032230
         H            0.387185155593     0.502543002056     1.365481772129     1.007825032230
         H            0.143103155593     2.210139002056     0.931685772129     1.007825032230
         H           -2.945443844407     2.610556002056     0.597983772129     1.007825032230
         H           -4.096770844407     0.299741002056    -0.903689227871     1.007825032230
         H           -0.096370844407    -2.068318997944     0.995434772129     1.007825032230
         H            0.852845155593    -1.076093997944    -0.830766227871     1.007825032230
         H            3.792601155593     0.312659002056     1.567393772129     1.007825032230

  Basis Set: AUG-CC-PVTZ
    Blend: AUG-CC-PVTZ
  Basis Set: (AUG-CC-PVTZ AUX)
    Blend: AUG-CC-PVTZ-JKFIT
	 Reference Energy          =   -1135.8216922389262891 [Eh]
	 Singles Energy            =      -0.0000000000000000 [Eh]
	 Same-Spin Energy          =      -0.8159868585857002 [Eh]
	 Opposite-Spin Energy      =      -2.4215690224207771 [Eh]
	 Correlation Energy        =      -3.2375558810064771 [Eh]
	 Total Energy              =   -1139.0592481199328176 [Eh]

	 ================> DF-SCS-MP2 Energies <==================
	-----------------------------------------------------------
	 SCS Same-Spin Scale       =       0.3333333333333333 [-]
	 SCS Opposite-Spin Scale   =       1.2000000000000000 [-]
	 SCS Same-Spin Energy      =      -0.2719956195285667 [Eh]
	 SCS Opposite-Spin Energy  =      -2.9058828269049326 [Eh]
	 SCS Correlation Energy    =      -3.1778784464334993 [Eh]
	 SCS Total Energy          =   -1138.9995706853596857 [Eh]
	-----------------------------------------------------------

  Dipole Moment: [D]
     X:    -3.2933      Y:     2.4124      Z:     3.8389     Total:     5.6038

*** Psi4 exiting successfully. Buy a developer a beer!
