                               Psi4 1.3.2 release

  ==> Input File <==

--------------------------------------------------------------------------
#psi4
#
memory 32 gb

molecule  {
0 1
  P        2.6114510     0.0433530    -0.1897960
  O       -0.7462678    -0.6209063    -0.9838293
  O       -3.1471200     1.7525200     0.1857420
  O       -3.5574290    -0.5524670    -0.9560380
  O       -0.9262260    -1.6975490     1.1507850
  O        1.5012860     1.2233130    -0.3203930
  O        1.7414800    -1.2994450    -0.3567160
  O        2.9590140    -0.0653000     1.3909990
  O        3.7753660     0.2843820    -1.0654240
  C       -2.1786680     0.7692630     0.5423480
  C       -0.8949230     0.8134730    -0.3165700
  C       -2.7827930    -0.6059770     0.2231310
  C       -1.5369320    -1.4089660    -0.0835960
  C        0.3225300     1.1924080     0.5079200
  H       -1.9376650     0.8286140     1.6117160
  H       -1.0169450     1.4955040    -1.1629930
  H       -3.3413290    -1.0227480     1.0706890
  H       -1.7077950    -2.2947630    -0.7028010
  H        0.4416350     0.4968690     1.3430810
  H        0.1975530     2.2044650     0.9092850
  H       -2.8909940     2.6048820     0.5755830
  H       -4.0423210     0.2940670    -0.9260900
  H       -0.0419210    -2.0739930     0.9730340
  H        0.9072950    -1.0817680    -0.8531670
  H        3.8470510     0.3069850     1.5449930
units angstrom
no_reorient  #important for SAPT in psi4, default
symmetry c1  #important for SAPT in psi4, default
}

set PROPERTIES_ORIGIN ["COM"]
properties('MP2/aug-cc-pvtz', properties = ['dipole'])
--------------------------------------------------------------------------

    Molecular point group: c1
  Charge       = 0
  Multiplicity = 1
  Basis Set: AUG-CC-PVTZ
    Blend: AUG-CC-PVTZ
  Basis Set: (AUG-CC-PVTZ AUX)
    Blend: AUG-CC-PVTZ-JKFIT

    Orbital Energies [Eh]
    ---------------------

    Doubly Occupied:

       1A    -80.115285     2A    -20.611738     3A    -20.610358
       4A    -20.607458     5A    -20.607163     6A    -20.596582
       7A    -20.594917     8A    -20.574417     9A    -20.514907
      10A    -11.356830    11A    -11.331186    12A    -11.329282
      13A    -11.329055    14A    -11.308033    15A     -7.630236
      16A     -5.528678    17A     -5.528553    18A     -5.527070
      19A     -1.457556    20A     -1.439022    21A     -1.413478
      22A     -1.391841    23A     -1.377613    24A     -1.373340
      25A     -1.353583    26A     -1.296232    27A     -1.094246
      28A     -1.041525    29A     -0.943656    30A     -0.859996
      31A     -0.839677    32A     -0.825544    33A     -0.771562
      34A     -0.757907    35A     -0.743538    36A     -0.733567
      37A     -0.717664    38A     -0.694620    39A     -0.684458
      40A     -0.662418    41A     -0.651941    42A     -0.641749
      43A     -0.631927    44A     -0.609478    45A     -0.606175
      46A     -0.589297    47A     -0.582568    48A     -0.579304
      49A     -0.566030    50A     -0.557955    51A     -0.542842
      52A     -0.531830    53A     -0.523774    54A     -0.513392
      55A     -0.497030    56A     -0.486376    57A     -0.476167
      58A     -0.468300    59A     -0.466141    60A     -0.454918

  @DF-RHF Final Energy: -1135.80414570824883

   => Energetics <=

    Nuclear Repulsion Energy =           1211.6371154688533807
    One-Electron Energy =               -3976.5785530605649001
    Two-Electron Energy =                1629.1372918834624670
    Total Energy =                      -1135.8041457082488250
  Basis Set: (AUG-CC-PVTZ AUX)
    Blend: AUG-CC-PVTZ-RI
    Molecular point group: c1

    Geometry (in Angstrom), charge = 0, multiplicity = 1:

       Center              X                  Y                   Z               Mass
    ------------   -----------------  -----------------  -----------------  -----------------
         P            2.559411414421     0.057983031405    -0.162600858998    30.973761998420
         O           -0.798307385579    -0.606276268595    -0.956634158998    15.994914619570
         O           -3.199159585579     1.767150031405     0.212937141002    15.994914619570
         O           -3.609468585579    -0.537836968595    -0.928842858998    15.994914619570
         O           -0.978265585579    -1.682918968595     1.177980141002    15.994914619570
         O            1.449246414421     1.237943031405    -0.293197858998    15.994914619570
         O            1.689440414421    -1.284814968595    -0.329520858998    15.994914619570
         O            2.906974414421    -0.050669968595     1.418194141002    15.994914619570
         O            3.723326414421     0.299012031405    -1.038228858998    15.994914619570
         C           -2.230707585579     0.783893031405     0.569543141002    12.000000000000
         C           -0.946962585579     0.828103031405    -0.289374858998    12.000000000000
         C           -2.834832585579    -0.591346968595     0.250326141002    12.000000000000
         C           -1.588971585579    -1.394335968595    -0.056400858998    12.000000000000
         C            0.270490414421     1.207038031405     0.535115141002    12.000000000000
         H           -1.989704585579     0.843244031405     1.638911141002     1.007825032230
         H           -1.068984585579     1.510134031405    -1.135797858998     1.007825032230
         H           -3.393368585579    -1.008117968595     1.097884141002     1.007825032230
         H           -1.759834585579    -2.280132968595    -0.675605858998     1.007825032230
         H            0.389595414421     0.511499031405     1.370276141002     1.007825032230
         H            0.145513414421     2.219095031405     0.936480141002     1.007825032230
         H           -2.943033585579     2.619512031405     0.602778141002     1.007825032230
         H           -4.094360585579     0.308697031405    -0.898894858998     1.007825032230
         H           -0.093960585579    -2.059362968595     1.000229141002     1.007825032230
         H            0.855255414421    -1.067137968595    -0.825971858998     1.007825032230
         H            3.795011414421     0.321615031405     1.572188141002     1.007825032230

  Basis Set: AUG-CC-PVTZ
    Blend: AUG-CC-PVTZ
  Basis Set: (AUG-CC-PVTZ AUX)
    Blend: AUG-CC-PVTZ-JKFIT
	 Reference Energy          =   -1135.8041457082488250 [Eh]
	 Singles Energy            =      -0.0000000000000000 [Eh]
	 Same-Spin Energy          =      -0.8179062355529108 [Eh]
	 Opposite-Spin Energy      =      -2.4271101106650974 [Eh]
	 Correlation Energy        =      -3.2450163462180082 [Eh]
	 Total Energy              =   -1139.0491620544669331 [Eh]

	 ================> DF-SCS-MP2 Energies <==================
	-----------------------------------------------------------
	 SCS Same-Spin Scale       =       0.3333333333333333 [-]
	 SCS Opposite-Spin Scale   =       1.2000000000000000 [-]
	 SCS Same-Spin Energy      =      -0.2726354118509702 [Eh]
	 SCS Opposite-Spin Energy  =      -2.9125321327981166 [Eh]
	 SCS Correlation Energy    =      -3.1851675446490870 [Eh]
	 SCS Total Energy          =   -1138.9893132528980004 [Eh]
	-----------------------------------------------------------

  Dipole Moment: [D]
     X:    -3.4726      Y:     2.6746      Z:     4.2631     Total:     6.1144

*** Psi4 exiting successfully. Buy a developer a beer!
