                               Psi4 1.3.2 release

  ==> Input File <==

--------------------------------------------------------------------------
#psi4
#
memory 32 gb

molecule  {
0 1
  P        2.6114510     0.0433530    -0.1897960
  O       -0.7415730    -0.5166550    -0.8759300
  O       -3.1471200     1.7525200     0.1857420
  O       -3.5574290    -0.5524670    -0.9560380
  O       -0.9262260    -1.6975490     1.1507850
  O        1.5012860     1.2233130    -0.3203930
  O        1.7414800    -1.2994450    -0.3567160
  O        2.9590140    -0.0653000     1.3909990
  O        3.7753660     0.2843820    -1.0654240
  C       -2.1384996     0.7705052     0.4429818
  C       -0.8949230     0.8134730    -0.3165700
  C       -2.7827930    -0.6059770     0.2231310
  C       -1.5369320    -1.4089660    -0.0835960
  C        0.3225300     1.1924080     0.5079200
  H       -1.9376650     0.8286140     1.6117160
  H       -1.0169450     1.4955040    -1.1629930
  H       -3.3413290    -1.0227480     1.0706890
  H       -1.7077950    -2.2947630    -0.7028010
  H        0.4416350     0.4968690     1.3430810
  H        0.1975530     2.2044650     0.9092850
  H       -2.8909940     2.6048820     0.5755830
  H       -4.0423210     0.2940670    -0.9260900
  H       -0.0419210    -2.0739930     0.9730340
  H        0.9072950    -1.0817680    -0.8531670
  H        3.8470510     0.3069850     1.5449930
units angstrom
no_reorient  #important for SAPT in psi4, default
symmetry c1  #important for SAPT in psi4, default
}

set PROPERTIES_ORIGIN ["COM"]
properties('MP2/aug-cc-pvtz', properties = ['dipole'])
--------------------------------------------------------------------------

    Molecular point group: c1
  Charge       = 0
  Multiplicity = 1
  Basis Set: AUG-CC-PVTZ
    Blend: AUG-CC-PVTZ
  Basis Set: (AUG-CC-PVTZ AUX)
    Blend: AUG-CC-PVTZ-JKFIT

    Orbital Energies [Eh]
    ---------------------

    Doubly Occupied:

       1A    -80.115849     2A    -20.611829     3A    -20.606683
       4A    -20.605290     5A    -20.604879     6A    -20.599223
       7A    -20.594739     8A    -20.573803     9A    -20.515383
      10A    -11.362430    11A    -11.325923    12A    -11.323644
      13A    -11.317385    14A    -11.308657    15A     -7.630799
      16A     -5.529222    17A     -5.529135    18A     -5.527633
      19A     -1.465442    20A     -1.449873    21A     -1.409759
      22A     -1.391756    23A     -1.379022    24A     -1.373490
      25A     -1.369877    26A     -1.296713    27A     -1.096151
      28A     -1.047695    29A     -0.951835    30A     -0.858235
      31A     -0.838828    32A     -0.835106    33A     -0.772591
      34A     -0.760308    35A     -0.751925    36A     -0.724184
      37A     -0.717362    38A     -0.694440    39A     -0.682905
      40A     -0.666791    41A     -0.654000    42A     -0.648527
      43A     -0.637456    44A     -0.616570    45A     -0.603985
      46A     -0.597651    47A     -0.582735    48A     -0.579415
      49A     -0.565731    50A     -0.560683    51A     -0.544294
      52A     -0.532751    53A     -0.528275    54A     -0.504629
      55A     -0.490346    56A     -0.483282    57A     -0.473588
      58A     -0.469692    59A     -0.468285    60A     -0.456491

  @DF-RHF Final Energy: -1135.80971869354607

   => Energetics <=

    Nuclear Repulsion Energy =           1217.5402090812153801
    One-Electron Energy =               -3988.2694999264672333
    Two-Electron Energy =                1634.9195721517057791
    Total Energy =                      -1135.8097186935460741
  Basis Set: (AUG-CC-PVTZ AUX)
    Blend: AUG-CC-PVTZ-RI
    Molecular point group: c1

    Geometry (in Angstrom), charge = 0, multiplicity = 1:

       Center              X                  Y                   Z               Mass
    ------------   -----------------  -----------------  -----------------  -----------------
         P            2.556989382540     0.050668870776    -0.164919994952    30.973761998420
         O           -0.796034617460    -0.509339129224    -0.851053994952    15.994914619570
         O           -3.201581617460     1.759835870776     0.210618005048    15.994914619570
         O           -3.611890617460    -0.545151129224    -0.931161994952    15.994914619570
         O           -0.980687617460    -1.690233129224     1.175661005048    15.994914619570
         O            1.446824382540     1.230628870776    -0.295516994952    15.994914619570
         O            1.687018382540    -1.292129129224    -0.331839994952    15.994914619570
         O            2.904552382540    -0.057984129224     1.415875005048    15.994914619570
         O            3.720904382540     0.291697870776    -1.040547994952    15.994914619570
         C           -2.192961217460     0.777821070776     0.467857805048    12.000000000000
         C           -0.949384617460     0.820788870776    -0.291693994952    12.000000000000
         C           -2.837254617460    -0.598661129224     0.248007005048    12.000000000000
         C           -1.591393617460    -1.401650129224    -0.058719994952    12.000000000000
         C            0.268068382540     1.199723870776     0.532796005048    12.000000000000
         H           -1.992126617460     0.835929870776     1.636592005048     1.007825032230
         H           -1.071406617460     1.502819870776    -1.138116994952     1.007825032230
         H           -3.395790617460    -1.015432129224     1.095565005048     1.007825032230
         H           -1.762256617460    -2.287447129224    -0.677924994952     1.007825032230
         H            0.387173382540     0.504184870776     1.367957005048     1.007825032230
         H            0.143091382540     2.211780870776     0.934161005048     1.007825032230
         H           -2.945455617460     2.612197870776     0.600459005048     1.007825032230
         H           -4.096782617460     0.301382870776    -0.901213994952     1.007825032230
         H           -0.096382617460    -2.066677129224     0.997910005048     1.007825032230
         H            0.852833382540    -1.074452129224    -0.828290994952     1.007825032230
         H            3.792589382540     0.314300870776     1.569869005048     1.007825032230

  Basis Set: AUG-CC-PVTZ
    Blend: AUG-CC-PVTZ
  Basis Set: (AUG-CC-PVTZ AUX)
    Blend: AUG-CC-PVTZ-JKFIT
	 Reference Energy          =   -1135.8097186935460741 [Eh]
	 Singles Energy            =      -0.0000000000000000 [Eh]
	 Same-Spin Energy          =      -0.8171987786988805 [Eh]
	 Opposite-Spin Energy      =      -2.4231306528422278 [Eh]
	 Correlation Energy        =      -3.2403294315411082 [Eh]
	 Total Energy              =   -1139.0500481250871871 [Eh]

	 ================> DF-SCS-MP2 Energies <==================
	-----------------------------------------------------------
	 SCS Same-Spin Scale       =       0.3333333333333333 [-]
	 SCS Opposite-Spin Scale   =       1.2000000000000000 [-]
	 SCS Same-Spin Energy      =      -0.2723995928996268 [Eh]
	 SCS Opposite-Spin Energy  =      -2.9077567834106732 [Eh]
	 SCS Correlation Energy    =      -3.1801563763103000 [Eh]
	 SCS Total Energy          =   -1138.9898750698564527 [Eh]
	-----------------------------------------------------------

  Dipole Moment: [D]
     X:    -3.3825      Y:     2.2512      Z:     3.9076     Total:     5.6372

*** Psi4 exiting successfully. Buy a developer a beer!
