                               Psi4 1.3.2 release

  ==> Input File <==

--------------------------------------------------------------------------
#psi4
#
memory 32 gb

molecule  {
0 1
  P        2.6114510     0.0433530    -0.1897960
  O       -0.7415730    -0.5166550    -0.8759300
  O       -3.1471200     1.7525200     0.1857420
  O       -3.5574290    -0.5524670    -0.9560380
  O       -0.9262260    -1.6975490     1.1507850
  O        1.5012860     1.2233130    -0.3203930
  O        1.7414800    -1.2994450    -0.3567160
  O        2.9590140    -0.0653000     1.3909990
  O        3.7753660     0.2843820    -1.0654240
  C       -2.1786680     0.7692630     0.5423480
  C       -0.8949230     0.8134730    -0.3165700
  C       -2.7827930    -0.6059770     0.2231310
  C       -1.5369320    -1.4089660    -0.0835960
  C        0.3225300     1.1924080     0.5079200
  H       -1.9376650     0.8286140     1.6117160
  H       -1.0169450     1.4955040    -1.1629930
  H       -3.4431331    -1.0987126     1.2251730
  H       -1.7077950    -2.2947630    -0.7028010
  H        0.4416350     0.4968690     1.3430810
  H        0.1975530     2.2044650     0.9092850
  H       -2.8909940     2.6048820     0.5755830
  H       -4.0423210     0.2940670    -0.9260900
  H       -0.0419210    -2.0739930     0.9730340
  H        0.9072950    -1.0817680    -0.8531670
  H        3.8470510     0.3069850     1.5449930
units angstrom
no_reorient  #important for SAPT in psi4, default
symmetry c1  #important for SAPT in psi4, default
}

set PROPERTIES_ORIGIN ["COM"]
properties('MP2/aug-cc-pvtz', properties = ['dipole'])
--------------------------------------------------------------------------

    Molecular point group: c1
  Charge       = 0
  Multiplicity = 1
  Basis Set: AUG-CC-PVTZ
    Blend: AUG-CC-PVTZ
  Basis Set: (AUG-CC-PVTZ AUX)
    Blend: AUG-CC-PVTZ-JKFIT

    Orbital Energies [Eh]
    ---------------------

    Doubly Occupied:

       1A    -80.115453     2A    -20.611577     3A    -20.606909
       4A    -20.605826     5A    -20.605412     6A    -20.599032
       7A    -20.594475     8A    -20.579510     9A    -20.515050
      10A    -11.364374    11A    -11.328689    12A    -11.325352
      13A    -11.322133    14A    -11.319801    15A     -7.630405
      16A     -5.528826    17A     -5.528742    18A     -5.527242
      19A     -1.464164    20A     -1.449053    21A     -1.412419
      22A     -1.391193    23A     -1.378756    24A     -1.375574
      25A     -1.369747    26A     -1.296387    27A     -1.084652
      28A     -1.044238    29A     -0.947523    30A     -0.858393
      31A     -0.840519    32A     -0.820284    33A     -0.772122
      34A     -0.760711    35A     -0.746246    36A     -0.730945
      37A     -0.717179    38A     -0.693295    39A     -0.679793
      40A     -0.667341    41A     -0.652968    42A     -0.647127
      43A     -0.629483    44A     -0.609711    45A     -0.601858
      46A     -0.590021    47A     -0.582690    48A     -0.578260
      49A     -0.570939    50A     -0.561126    51A     -0.543648
      52A     -0.532708    53A     -0.527891    54A     -0.512875
      55A     -0.491244    56A     -0.487914    57A     -0.475533
      58A     -0.468575    59A     -0.460069    60A     -0.445624

  @DF-RHF Final Energy: -1135.80158159583766

   => Energetics <=

    Nuclear Repulsion Energy =           1214.7373208710710060
    One-Electron Energy =               -3982.7185920099491341
    Two-Electron Energy =                1632.1796895430404675
    Total Energy =                      -1135.8015815958376606
  Basis Set: (AUG-CC-PVTZ AUX)
    Blend: AUG-CC-PVTZ-RI
    Molecular point group: c1

    Geometry (in Angstrom), charge = 0, multiplicity = 1:

       Center              X                  Y                   Z               Mass
    ------------   -----------------  -----------------  -----------------  -----------------
         P            2.559531003572     0.051066513423    -0.170780755750    30.973761998420
         O           -0.793492996428    -0.508941486577    -0.856914755750    15.994914619570
         O           -3.199039996428     1.760233513423     0.204757244250    15.994914619570
         O           -3.609348996428    -0.544753486577    -0.937022755750    15.994914619570
         O           -0.978145996428    -1.689835486577     1.169800244250    15.994914619570
         O            1.449366003572     1.231026513423    -0.301377755750    15.994914619570
         O            1.689560003572    -1.291731486577    -0.337700755750    15.994914619570
         O            2.907094003572    -0.057586486577     1.410014244250    15.994914619570
         O            3.723446003572     0.292095513423    -1.046408755750    15.994914619570
         C           -2.230587996428     0.776976513423     0.561363244250    12.000000000000
         C           -0.946842996428     0.821186513423    -0.297554755750    12.000000000000
         C           -2.834712996428    -0.598263486577     0.242146244250    12.000000000000
         C           -1.588851996428    -1.401252486577    -0.064580755750    12.000000000000
         C            0.270610003572     1.200121513423     0.526935244250    12.000000000000
         H           -1.989584996428     0.836327513423     1.630731244250     1.007825032230
         H           -1.068864996428     1.503217513423    -1.143977755750     1.007825032230
         H           -3.495053096428    -1.090999086577     1.244188244250     1.007825032230
         H           -1.759714996428    -2.287049486577    -0.683785755750     1.007825032230
         H            0.389715003572     0.504582513423     1.362096244250     1.007825032230
         H            0.145633003572     2.212178513423     0.928300244250     1.007825032230
         H           -2.942913996428     2.612595513423     0.594598244250     1.007825032230
         H           -4.094240996428     0.301780513423    -0.907074755750     1.007825032230
         H           -0.093840996428    -2.066279486577     0.992049244250     1.007825032230
         H            0.855375003572    -1.074054486577    -0.834151755750     1.007825032230
         H            3.795131003572     0.314698513423     1.564008244250     1.007825032230

  Basis Set: AUG-CC-PVTZ
    Blend: AUG-CC-PVTZ
  Basis Set: (AUG-CC-PVTZ AUX)
    Blend: AUG-CC-PVTZ-JKFIT
	 Reference Energy          =   -1135.8015815958376606 [Eh]
	 Singles Energy            =      -0.0000000000000000 [Eh]
	 Same-Spin Energy          =      -0.8167756755253206 [Eh]
	 Opposite-Spin Energy      =      -2.4240915749740819 [Eh]
	 Correlation Energy        =      -3.2408672504994023 [Eh]
	 Total Energy              =   -1139.0424488463370380 [Eh]

	 ================> DF-SCS-MP2 Energies <==================
	-----------------------------------------------------------
	 SCS Same-Spin Scale       =       0.3333333333333333 [-]
	 SCS Opposite-Spin Scale   =       1.2000000000000000 [-]
	 SCS Same-Spin Energy      =      -0.2722585585084402 [Eh]
	 SCS Opposite-Spin Energy  =      -2.9089098899688981 [Eh]
	 SCS Correlation Energy    =      -3.1811684484773384 [Eh]
	 SCS Total Energy          =   -1138.9827500443150257 [Eh]
	-----------------------------------------------------------

  Dipole Moment: [D]
     X:    -3.4243      Y:     2.3591      Z:     3.9002     Total:     5.7012

*** Psi4 exiting successfully. Buy a developer a beer!
