                               Psi4 1.4a3.dev225

  ==> Input File <==

--------------------------------------------------------------------------
#psi4
#
memory 32 gb

molecule  {
0 1
  P        2.6113660     0.0433910    -0.1897900
  O       -0.7416560    -0.5164190    -0.8762010
  O       -3.1473860     1.7523070     0.1855430
  O       -3.5574330    -0.5529450    -0.9556820
  O       -0.9255690    -1.6972900     1.1506350
  O        1.5012550     1.2233910    -0.3202530
  O        1.7411940    -1.2993510    -0.3564950
  O        2.9591660    -0.0655390     1.3909200
  O        3.7751240     0.2843830    -1.0656400
  C       -2.1787050     0.7693270     0.5422590
  C       -0.8949630     0.8136090    -0.3166340
  C       -2.7825860    -0.6061320     0.2233240
  C       -1.5366410    -1.4089160    -0.0835620
  C        0.3060803     1.1919902     0.5195064
  H       -1.9377070     0.8289040     1.6116220
  H       -1.0168440     1.4957790    -1.1629650
  H       -3.3408870    -1.0228010     1.0710960
  H       -1.7074320    -2.2947510    -0.7027390
  H        0.4414920     0.4968360     1.3431340
  H        0.1974400     2.2044510     0.9094280
  H       -2.8916000     2.6047160     0.5754970
  H       -4.0429610     0.2932130    -0.9254450
  H       -0.0410590    -2.0731950     0.9726900
  H        0.9073710    -1.0816890    -0.8535130
  H        3.8468470     0.3075270     1.5450430
units angstrom
no_reorient  #important for SAPT in psi4, default
symmetry c1  #important for SAPT in psi4, default
}

set PROPERTIES_ORIGIN ["COM"]
properties('MP2/aug-cc-pvtz', properties = ['dipole'])
--------------------------------------------------------------------------

    Molecular point group: c1
  Charge       = 0
  Multiplicity = 1
  Basis Set: AUG-CC-PVTZ
    Blend: AUG-CC-PVTZ
  Basis Set: (AUG-CC-PVTZ AUX)
    Blend: AUG-CC-PVTZ-JKFIT

    Orbital Energies [Eh]
    ---------------------

    Doubly Occupied:

       1A    -80.113556     2A    -20.610401     3A    -20.606681
       4A    -20.604132     5A    -20.602882     6A    -20.597681
       7A    -20.595164     8A    -20.575183     9A    -20.513570
      10A    -11.362584    11A    -11.323717    12A    -11.321726
      13A    -11.318905    14A    -11.307593    15A     -7.628508
      16A     -5.526921    17A     -5.526854    18A     -5.525351
      19A     -1.462357    20A     -1.446870    21A     -1.411864
      22A     -1.387226    23A     -1.376220    24A     -1.373878
      25A     -1.368818    26A     -1.294743    27A     -1.086277
      28A     -1.047862    29A     -0.947091    30A     -0.857165
      31A     -0.842258    32A     -0.829532    33A     -0.771429
      34A     -0.759204    35A     -0.747340    36A     -0.734024
      37A     -0.715640    38A     -0.692285    39A     -0.684331
      40A     -0.667282    41A     -0.651864    42A     -0.647137
      43A     -0.631720    44A     -0.614098    45A     -0.601642
      46A     -0.596056    47A     -0.581667    48A     -0.577701
      49A     -0.570149    50A     -0.560257    51A     -0.542469
      52A     -0.532662    53A     -0.526154    54A     -0.512755
      55A     -0.491536    56A     -0.488725    57A     -0.475194
      58A     -0.468968    59A     -0.465419    60A     -0.450814

  @DF-RHF Final Energy: -1135.82202065656338

   => Energetics <=

    Nuclear Repulsion Energy =           1215.7508676950842528
    One-Electron Energy =               -3984.8415909845189162
    Two-Electron Energy =                1633.2687026328712818
    Total Energy =                      -1135.8220206565633816
  Basis Set: (AUG-CC-PVTZ AUX)
    Blend: AUG-CC-PVTZ-RI
    Molecular point group: c1

    Geometry (in Angstrom), charge = 0, multiplicity = 1:

       Center              X                  Y                   Z               Mass
    ------------   -----------------  -----------------  -----------------  -----------------
         P            2.559854348584     0.050797779770    -0.170695513917    30.973761998420
         O           -0.793167651416    -0.509012220230    -0.857106513917    15.994914619570
         O           -3.198897651416     1.759713779770     0.204637486083    15.994914619570
         O           -3.608944651416    -0.545538220230    -0.936587513917    15.994914619570
         O           -0.977080651416    -1.689883220230     1.169729486083    15.994914619570
         O            1.449743348584     1.230797779770    -0.301158513917    15.994914619570
         O            1.689682348584    -1.291944220230    -0.337400513917    15.994914619570
         O            2.907654348584    -0.058132220230     1.410014486083    15.994914619570
         O            3.723612348584     0.291789779770    -1.046545513917    15.994914619570
         C           -2.230216651416     0.776733779770     0.561353486083    12.000000000000
         C           -0.946474651416     0.821015779770    -0.297539513917    12.000000000000
         C           -2.834097651416    -0.598725220230     0.242418486083    12.000000000000
         C           -1.588152651416    -1.401509220230    -0.064467513917    12.000000000000
         C            0.254568648584     1.199396979770     0.538600886083    12.000000000000
         H           -1.989218651416     0.836310779770     1.630716486083     1.007825032230
         H           -1.068355651416     1.503185779770    -1.143870513917     1.007825032230
         H           -3.392398651416    -1.015394220230     1.090190486083     1.007825032230
         H           -1.758943651416    -2.287344220230    -0.683644513917     1.007825032230
         H            0.389980348584     0.504242779770     1.362228486083     1.007825032230
         H            0.145928348584     2.211857779770     0.928522486083     1.007825032230
         H           -2.943111651416     2.612122779770     0.594591486083     1.007825032230
         H           -4.094472651416     0.300619779770    -0.906350513917     1.007825032230
         H           -0.092570651416    -2.065788220230     0.991784486083     1.007825032230
         H            0.855859348584    -1.074282220230    -0.834418513917     1.007825032230
         H            3.795335348584     0.314933779770     1.564137486083     1.007825032230

  Basis Set: AUG-CC-PVTZ
    Blend: AUG-CC-PVTZ
  Basis Set: (AUG-CC-PVTZ AUX)
    Blend: AUG-CC-PVTZ-JKFIT
	 Reference Energy          =   -1135.8220206565633816 [Eh]
	 Singles Energy            =      -0.0000000000000000 [Eh]
	 Same-Spin Energy          =      -0.8163080447829308 [Eh]
	 Opposite-Spin Energy      =      -2.4220645167444328 [Eh]
	 Correlation Energy        =      -3.2383725615273637 [Eh]
	 Total Energy              =   -1139.0603932180906668 [Eh]

	 ================> DF-SCS-MP2 Energies <==================
	-----------------------------------------------------------
	 SCS Same-Spin Scale       =       0.3333333333333333 [-]
	 SCS Opposite-Spin Scale   =       1.2000000000000000 [-]
	 SCS Same-Spin Energy      =      -0.2721026815943103 [Eh]
	 SCS Opposite-Spin Energy  =      -2.9064774200933194 [Eh]
	 SCS Correlation Energy    =      -3.1785801016876296 [Eh]
	 SCS Total Energy          =   -1139.0006007582510392 [Eh]
	-----------------------------------------------------------

  Dipole Moment: [D]
     X:    -3.5697      Y:     2.3115      Z:     4.0635     Total:     5.8820

*** Psi4 exiting successfully. Buy a developer a beer!
