                               Psi4 1.3.2 release

  ==> Input File <==

--------------------------------------------------------------------------
#psi4
#
memory 32 gb

molecule  {
0 1
  P        2.6114510     0.0433530    -0.1897960
  O       -0.7415730    -0.5166550    -0.8759300
  O       -3.1471200     1.7525200     0.1857420
  O       -3.5574290    -0.5524670    -0.9560380
  O       -0.9262260    -1.6975490     1.1507850
  O        1.5012860     1.2233130    -0.3203930
  O        1.7414800    -1.2994450    -0.3567160
  O        2.9590140    -0.0653000     1.3909990
  O        3.7753660     0.2843820    -1.0654240
  C       -2.0427863     0.6313040     0.5923827
  C       -0.8949230     0.8134730    -0.3165700
  C       -2.7827930    -0.6059770     0.2231310
  C       -1.5369320    -1.4089660    -0.0835960
  C        0.3225300     1.1924080     0.5079200
  H       -1.9376650     0.8286140     1.6117160
  H       -1.0169450     1.4955040    -1.1629930
  H       -3.3413290    -1.0227480     1.0706890
  H       -1.7077950    -2.2947630    -0.7028010
  H        0.4416350     0.4968690     1.3430810
  H        0.1975530     2.2044650     0.9092850
  H       -2.8909940     2.6048820     0.5755830
  H       -4.0423210     0.2940670    -0.9260900
  H       -0.0419210    -2.0739930     0.9730340
  H        0.9072950    -1.0817680    -0.8531670
  H        3.8470510     0.3069850     1.5449930
units angstrom
no_reorient  #important for SAPT in psi4, default
symmetry c1  #important for SAPT in psi4, default
}

set PROPERTIES_ORIGIN ["COM"]
properties('MP2/aug-cc-pvtz', properties = ['dipole'])
--------------------------------------------------------------------------

    Molecular point group: c1
  Charge       = 0
  Multiplicity = 1
  Basis Set: AUG-CC-PVTZ
    Blend: AUG-CC-PVTZ
  Basis Set: (AUG-CC-PVTZ AUX)
    Blend: AUG-CC-PVTZ-JKFIT

    Orbital Energies [Eh]
    ---------------------

    Doubly Occupied:

       1A    -80.117573     2A    -20.613616     3A    -20.608400
       4A    -20.607033     5A    -20.601308     6A    -20.600313
       7A    -20.581446     8A    -20.578937     9A    -20.516844
      10A    -11.365634    11A    -11.328796    12A    -11.325549
      13A    -11.324007    14A    -11.311870    15A     -7.632528
      16A     -5.530951    17A     -5.530864    18A     -5.529359
      19A     -1.469536    20A     -1.452662    21A     -1.393982
      22A     -1.388739    23A     -1.381041    24A     -1.374636
      25A     -1.333855    26A     -1.298194    27A     -1.108420
      28A     -1.060776    29A     -0.950983    30A     -0.860583
      31A     -0.848297    32A     -0.835014    33A     -0.772773
      34A     -0.763978    35A     -0.750916    36A     -0.729919
      37A     -0.714252    38A     -0.697178    39A     -0.681552
      40A     -0.661998    41A     -0.655365    42A     -0.650571
      43A     -0.628335    44A     -0.614683    45A     -0.607224
      46A     -0.591932    47A     -0.584362    48A     -0.578920
      49A     -0.562721    50A     -0.546906    51A     -0.539815
      52A     -0.532375    53A     -0.524608    54A     -0.514859
      55A     -0.500650    56A     -0.491979    57A     -0.477788
      58A     -0.475490    59A     -0.470076    60A     -0.456196

  @DF-RHF Final Energy: -1135.78591961400889

   => Energetics <=

    Nuclear Repulsion Energy =           1217.7297992486651310
    One-Electron Energy =               -3988.5530986626686172
    Two-Electron Energy =                1635.0373797999945964
    Total Energy =                      -1135.7859196140088898
  Basis Set: (AUG-CC-PVTZ AUX)
    Blend: AUG-CC-PVTZ-RI
    Molecular point group: c1

    Geometry (in Angstrom), charge = 0, multiplicity = 1:

       Center              X                  Y                   Z               Mass
    ------------   -----------------  -----------------  -----------------  -----------------
         P            2.551996060990     0.057930937298    -0.172714175421    30.973761998420
         O           -0.801027939010    -0.502077062702    -0.858848175421    15.994914619570
         O           -3.206574939010     1.767097937298     0.202823824579    15.994914619570
         O           -3.616883939010    -0.537889062702    -0.938956175421    15.994914619570
         O           -0.985680939010    -1.682971062702     1.167866824579    15.994914619570
         O            1.441831060990     1.237890937298    -0.303311175421    15.994914619570
         O            1.682025060990    -1.284867062702    -0.339634175421    15.994914619570
         O            2.899559060990    -0.050722062702     1.408080824579    15.994914619570
         O            3.715911060990     0.298959937298    -1.048342175421    15.994914619570
         C           -2.102241239010     0.645881937298     0.609464524579    12.000000000000
         C           -0.954377939010     0.828050937298    -0.299488175421    12.000000000000
         C           -2.842247939010    -0.591399062702     0.240212824579    12.000000000000
         C           -1.596386939010    -1.394388062702    -0.066514175421    12.000000000000
         C            0.263075060990     1.206985937298     0.525001824579    12.000000000000
         H           -1.997119939010     0.843191937298     1.628797824579     1.007825032230
         H           -1.076399939010     1.510081937298    -1.145911175421     1.007825032230
         H           -3.400783939010    -1.008170062702     1.087770824579     1.007825032230
         H           -1.767249939010    -2.280185062702    -0.685719175421     1.007825032230
         H            0.382180060990     0.511446937298     1.360162824579     1.007825032230
         H            0.138098060990     2.219042937298     0.926366824579     1.007825032230
         H           -2.950448939010     2.619459937298     0.592664824579     1.007825032230
         H           -4.101775939010     0.308644937298    -0.909008175421     1.007825032230
         H           -0.101375939010    -2.059415062702     0.990115824579     1.007825032230
         H            0.847840060990    -1.067190062702    -0.836085175421     1.007825032230
         H            3.787596060990     0.321562937298     1.562074824579     1.007825032230

  Basis Set: AUG-CC-PVTZ
    Blend: AUG-CC-PVTZ
  Basis Set: (AUG-CC-PVTZ AUX)
    Blend: AUG-CC-PVTZ-JKFIT
	 Reference Energy          =   -1135.7859196140088898 [Eh]
	 Singles Energy            =      -0.0000000000000000 [Eh]
	 Same-Spin Energy          =      -0.8186504802368593 [Eh]
	 Opposite-Spin Energy      =      -2.4274916744518427 [Eh]
	 Correlation Energy        =      -3.2461421546887017 [Eh]
	 Total Energy              =   -1139.0320617686975311 [Eh]

	 ================> DF-SCS-MP2 Energies <==================
	-----------------------------------------------------------
	 SCS Same-Spin Scale       =       0.3333333333333333 [-]
	 SCS Opposite-Spin Scale   =       1.2000000000000000 [-]
	 SCS Same-Spin Energy      =      -0.2728834934122864 [Eh]
	 SCS Opposite-Spin Energy  =      -2.9129900093422112 [Eh]
	 SCS Correlation Energy    =      -3.1858735027544975 [Eh]
	 SCS Total Energy          =   -1138.9717931167633651 [Eh]
	-----------------------------------------------------------

  Dipole Moment: [D]
     X:    -2.9910      Y:     1.8246      Z:     4.0616     Total:     5.3640

*** Psi4 exiting successfully. Buy a developer a beer!
