                               Psi4 1.3.2 release

  ==> Input File <==

--------------------------------------------------------------------------
#psi4
#
memory 32 gb

molecule  {
0 1
  P        2.6114510     0.0433530    -0.1897960
  O       -0.7415730    -0.5166550    -0.8759300
  O       -3.1471200     1.7525200     0.1857420
  O       -3.5574290    -0.5524670    -0.9560380
  O       -0.9262260    -1.6975490     1.1507850
  O        1.5012860     1.2233130    -0.3203930
  O        1.7414800    -1.2994450    -0.3567160
  O        2.9590140    -0.0653000     1.3909990
  O        3.7753660     0.2843820    -1.0654240
  C       -2.1786680     0.7692630     0.5423480
  C       -0.8949230     0.8134730    -0.3165700
  C       -2.7827930    -0.6059770     0.2231310
  C       -1.5369320    -1.4089660    -0.0835960
  C        0.3225300     1.1924080     0.5079200
  H       -1.9376650     0.8286140     1.6117160
  H       -1.0169450     1.4955040    -1.1629930
  H       -3.3922310    -1.0607303     1.1479310
  H       -1.7077950    -2.2947630    -0.7028010
  H        0.4416350     0.4968690     1.3430810
  H        0.1975530     2.2044650     0.9092850
  H       -2.8909940     2.6048820     0.5755830
  H       -4.0423210     0.2940670    -0.9260900
  H       -0.0419210    -2.0739930     0.9730340
  H        0.9072950    -1.0817680    -0.8531670
  H        3.8470510     0.3069850     1.5449930
units angstrom
no_reorient  #important for SAPT in psi4, default
symmetry c1  #important for SAPT in psi4, default
}

set PROPERTIES_ORIGIN ["COM"]
properties('MP2/aug-cc-pvtz', properties = ['dipole'])
--------------------------------------------------------------------------

    Molecular point group: c1
  Charge       = 0
  Multiplicity = 1
  Basis Set: AUG-CC-PVTZ
    Blend: AUG-CC-PVTZ
  Basis Set: (AUG-CC-PVTZ AUX)
    Blend: AUG-CC-PVTZ-JKFIT

    Orbital Energies [Eh]
    ---------------------

    Doubly Occupied:

       1A    -80.115170     2A    -20.611361     3A    -20.606504
       4A    -20.605416     5A    -20.604352     6A    -20.598710
       7A    -20.594607     8A    -20.576930     9A    -20.514799
      10A    -11.363162    11A    -11.324230    12A    -11.321643
      13A    -11.318908    14A    -11.318370    15A     -7.630122
      16A     -5.528542    17A     -5.528459    18A     -5.526959
      19A     -1.463588    20A     -1.448599    21A     -1.411826
      22A     -1.390896    23A     -1.378434    24A     -1.374421
      25A     -1.369138    26A     -1.296136    27A     -1.084222
      28A     -1.045100    29A     -0.947015    30A     -0.858002
      31A     -0.840617    32A     -0.823920    33A     -0.771916
      34A     -0.760022    35A     -0.746603    36A     -0.732356
      37A     -0.716945    38A     -0.692961    39A     -0.681504
      40A     -0.667124    41A     -0.652934    42A     -0.647288
      43A     -0.630777    44A     -0.611598    45A     -0.601341
      46A     -0.593749    47A     -0.582319    48A     -0.577824
      49A     -0.570312    50A     -0.560536    51A     -0.543486
      52A     -0.532410    53A     -0.527404    54A     -0.512277
      55A     -0.490742    56A     -0.487855    57A     -0.475240
      58A     -0.468565    59A     -0.462958    60A     -0.449120

  @DF-RHF Final Energy: -1135.81557099169390

   => Energetics <=

    Nuclear Repulsion Energy =           1215.3051176461908653
    One-Electron Energy =               -3983.9047307859714238
    Two-Electron Energy =                1632.7840421480866553
    Total Energy =                      -1135.8155709916939031
  Basis Set: (AUG-CC-PVTZ AUX)
    Blend: AUG-CC-PVTZ-RI
    Molecular point group: c1

    Geometry (in Angstrom), charge = 0, multiplicity = 1:

       Center              X                  Y                   Z               Mass
    ------------   -----------------  -----------------  -----------------  -----------------
         P            2.559307976882     0.050900094618    -0.170442321234    30.973761998420
         O           -0.793716023118    -0.509107905382    -0.856576321234    15.994914619570
         O           -3.199263023118     1.760067094618     0.205095678766    15.994914619570
         O           -3.609572023118    -0.544919905382    -0.936684321234    15.994914619570
         O           -0.978369023118    -1.690001905382     1.170138678766    15.994914619570
         O            1.449142976882     1.230860094618    -0.301039321234    15.994914619570
         O            1.689336976882    -1.291897905382    -0.337362321234    15.994914619570
         O            2.906870976882    -0.057752905382     1.410352678766    15.994914619570
         O            3.723222976882     0.291929094618    -1.046070321234    15.994914619570
         C           -2.230811023118     0.776810094618     0.561701678766    12.000000000000
         C           -0.947066023118     0.821020094618    -0.297216321234    12.000000000000
         C           -2.834936023118    -0.598429905382     0.242484678766    12.000000000000
         C           -1.589075023118    -1.401418905382    -0.064242321234    12.000000000000
         C            0.270386976882     1.199955094618     0.527273678766    12.000000000000
         H           -1.989808023118     0.836161094618     1.631069678766     1.007825032230
         H           -1.069088023118     1.503051094618    -1.143639321234     1.007825032230
         H           -3.444374023118    -1.053183205382     1.167284678766     1.007825032230
         H           -1.759938023118    -2.287215905382    -0.683447321234     1.007825032230
         H            0.389491976882     0.504416094618     1.362434678766     1.007825032230
         H            0.145409976882     2.212012094618     0.928638678766     1.007825032230
         H           -2.943137023118     2.612429094618     0.594936678766     1.007825032230
         H           -4.094464023118     0.301614094618    -0.906736321234     1.007825032230
         H           -0.094064023118    -2.066445905382     0.992387678766     1.007825032230
         H            0.855151976882    -1.074220905382    -0.833813321234     1.007825032230
         H            3.794907976882     0.314532094618     1.564346678766     1.007825032230

  Basis Set: AUG-CC-PVTZ
    Blend: AUG-CC-PVTZ
  Basis Set: (AUG-CC-PVTZ AUX)
    Blend: AUG-CC-PVTZ-JKFIT
	 Reference Energy          =   -1135.8155709916939031 [Eh]
	 Singles Energy            =      -0.0000000000000000 [Eh]
	 Same-Spin Energy          =      -0.8165011075244181 [Eh]
	 Opposite-Spin Energy      =      -2.4228580121630019 [Eh]
	 Correlation Energy        =      -3.2393591196874199 [Eh]
	 Total Energy              =   -1139.0549301113812817 [Eh]

	 ================> DF-SCS-MP2 Energies <==================
	-----------------------------------------------------------
	 SCS Same-Spin Scale       =       0.3333333333333333 [-]
	 SCS Opposite-Spin Scale   =       1.2000000000000000 [-]
	 SCS Same-Spin Energy      =      -0.2721670358414727 [Eh]
	 SCS Opposite-Spin Energy  =      -2.9074296145956020 [Eh]
	 SCS Correlation Energy    =      -3.1795966504370745 [Eh]
	 SCS Total Energy          =   -1138.9951676421310367 [Eh]
	-----------------------------------------------------------

  Dipole Moment: [D]
     X:    -3.4602      Y:     2.3236      Z:     3.9751     Total:     5.7596

*** Psi4 exiting successfully. Buy a developer a beer!
