                               Psi4 1.3.2 release

  ==> Input File <==

--------------------------------------------------------------------------
#psi4
#
memory 32 gb

molecule  {
0 1
  P        2.6114510     0.0433530    -0.1897960
  O       -0.7415730    -0.5166550    -0.8759300
  O       -3.1471200     1.7525200     0.1857420
  O       -3.5574290    -0.5524670    -0.9560380
  O       -0.9262260    -1.6975490     1.1507850
  O        1.5012860     1.2233130    -0.3203930
  O        1.7414800    -1.2994450    -0.3567160
  O        2.9590140    -0.0653000     1.3909990
  O        3.7753660     0.2843820    -1.0654240
  C       -2.1786680     0.7692630     0.5423480
  C       -0.8949230     0.8134730    -0.3165700
  C       -2.7827930    -0.6059770     0.2231310
  C       -1.5803337    -1.3884570    -0.1713210
  C        0.3225300     1.1924080     0.5079200
  H       -1.9376650     0.8286140     1.6117160
  H       -1.0169450     1.4955040    -1.1629930
  H       -3.3413290    -1.0227480     1.0706890
  H       -1.7077950    -2.2947630    -0.7028010
  H        0.4416350     0.4968690     1.3430810
  H        0.1975530     2.2044650     0.9092850
  H       -2.8909940     2.6048820     0.5755830
  H       -4.0423210     0.2940670    -0.9260900
  H       -0.0419210    -2.0739930     0.9730340
  H        0.9072950    -1.0817680    -0.8531670
  H        3.8470510     0.3069850     1.5449930
units angstrom
no_reorient  #important for SAPT in psi4, default
symmetry c1  #important for SAPT in psi4, default
}

set PROPERTIES_ORIGIN ["COM"]
properties('MP2/aug-cc-pvtz', properties = ['dipole'])
--------------------------------------------------------------------------

    Molecular point group: c1
  Charge       = 0
  Multiplicity = 1
  Basis Set: AUG-CC-PVTZ
    Blend: AUG-CC-PVTZ
  Basis Set: (AUG-CC-PVTZ AUX)
    Blend: AUG-CC-PVTZ-JKFIT

    Orbital Energies [Eh]
    ---------------------

    Doubly Occupied:

       1A    -80.114681     2A    -20.611127     3A    -20.610563
       4A    -20.608438     5A    -20.605575     6A    -20.597901
       7A    -20.576912     8A    -20.576540     9A    -20.514432
      10A    -11.362890    11A    -11.326003    12A    -11.322645
      13A    -11.321948    14A    -11.308914    15A     -7.629635
      16A     -5.528062    17A     -5.527965    18A     -5.526472
      19A     -1.465205    20A     -1.448634    21A     -1.412404
      22A     -1.389731    23A     -1.377813    24A     -1.375243
      25A     -1.342516    26A     -1.295802    27A     -1.088483
      28A     -1.052574    29A     -0.950914    30A     -0.859516
      31A     -0.847037    32A     -0.831100    33A     -0.771599
      34A     -0.755789    35A     -0.744682    36A     -0.736547
      37A     -0.716195    38A     -0.692041    39A     -0.681219
      40A     -0.665134    41A     -0.652943    42A     -0.647778
      43A     -0.634545    44A     -0.607117    45A     -0.599692
      46A     -0.594513    47A     -0.582764    48A     -0.578897
      49A     -0.567348    50A     -0.562848    51A     -0.541367
      52A     -0.529069    53A     -0.522448    54A     -0.515181
      55A     -0.495173    56A     -0.491217    57A     -0.474044
      58A     -0.469482    59A     -0.465967    60A     -0.453207

  @DF-RHF Final Energy: -1135.81420463162817

   => Energetics <=

    Nuclear Repulsion Energy =           1215.5583411882503242
    One-Electron Energy =               -3984.4321315657148261
    Two-Electron Energy =                1633.0595857458363298
    Total Energy =                      -1135.8142046316281721
  Basis Set: (AUG-CC-PVTZ AUX)
    Blend: AUG-CC-PVTZ-RI
    Molecular point group: c1

    Geometry (in Angstrom), charge = 0, multiplicity = 1:

       Center              X                  Y                   Z               Mass
    ------------   -----------------  -----------------  -----------------  -----------------
         P            2.561349198586     0.049663730136    -0.165527311332    30.973761998420
         O           -0.791674801414    -0.510344269864    -0.851661311332    15.994914619570
         O           -3.197221801414     1.758830730136     0.210010688668    15.994914619570
         O           -3.607530801414    -0.546156269864    -0.931769311332    15.994914619570
         O           -0.976327801414    -1.691238269864     1.175053688668    15.994914619570
         O            1.451184198586     1.229623730136    -0.296124311332    15.994914619570
         O            1.691378198586    -1.293134269864    -0.332447311332    15.994914619570
         O            2.908912198586    -0.058989269864     1.415267688668    15.994914619570
         O            3.725264198586     0.290692730136    -1.041155311332    15.994914619570
         C           -2.228769801414     0.775573730136     0.566616688668    12.000000000000
         C           -0.945024801414     0.819783730136    -0.292301311332    12.000000000000
         C           -2.832894801414    -0.599666269864     0.247399688668    12.000000000000
         C           -1.630435501414    -1.382146269864    -0.147052311332    12.000000000000
         C            0.272428198586     1.198718730136     0.532188688668    12.000000000000
         H           -1.987766801414     0.834924730136     1.635984688668     1.007825032230
         H           -1.067046801414     1.501814730136    -1.138724311332     1.007825032230
         H           -3.391430801414    -1.016437269864     1.094957688668     1.007825032230
         H           -1.757896801414    -2.288452269864    -0.678532311332     1.007825032230
         H            0.391533198586     0.503179730136     1.367349688668     1.007825032230
         H            0.147451198586     2.210775730136     0.933553688668     1.007825032230
         H           -2.941095801414     2.611192730136     0.599851688668     1.007825032230
         H           -4.092422801414     0.300377730136    -0.901821311332     1.007825032230
         H           -0.092022801414    -2.067682269864     0.997302688668     1.007825032230
         H            0.857193198586    -1.075457269864    -0.828898311332     1.007825032230
         H            3.796949198586     0.313295730136     1.569261688668     1.007825032230

  Basis Set: AUG-CC-PVTZ
    Blend: AUG-CC-PVTZ
  Basis Set: (AUG-CC-PVTZ AUX)
    Blend: AUG-CC-PVTZ-JKFIT
	 Reference Energy          =   -1135.8142046316281721 [Eh]
	 Singles Energy            =      -0.0000000000000000 [Eh]
	 Same-Spin Energy          =      -0.8163423379486650 [Eh]
	 Opposite-Spin Energy      =      -2.4229115635476295 [Eh]
	 Correlation Energy        =      -3.2392539014962942 [Eh]
	 Total Energy              =   -1139.0534585331245125 [Eh]

	 ================> DF-SCS-MP2 Energies <==================
	-----------------------------------------------------------
	 SCS Same-Spin Scale       =       0.3333333333333333 [-]
	 SCS Opposite-Spin Scale   =       1.2000000000000000 [-]
	 SCS Same-Spin Energy      =      -0.2721141126495550 [Eh]
	 SCS Opposite-Spin Energy  =      -2.9074938762571554 [Eh]
	 SCS Correlation Energy    =      -3.1796079889067101 [Eh]
	 SCS Total Energy          =   -1138.9938126205349818 [Eh]
	-----------------------------------------------------------

  Dipole Moment: [D]
     X:    -3.6555      Y:     2.5417      Z:     3.6652     Total:     5.7668

*** Psi4 exiting successfully. Buy a developer a beer!
