                               Psi4 1.3.2 release

  ==> Input File <==

--------------------------------------------------------------------------
#psi4
#
memory 32 gb

molecule  {
0 1
  P        2.6114510     0.0433530    -0.1897960
  O       -0.7415730    -0.5166550    -0.8759300
  O       -3.1471200     1.7525200     0.1857420
  O       -3.5574290    -0.5524670    -0.9560380
  O       -0.9262260    -1.6975490     1.1507850
  O        1.5012860     1.2233130    -0.3203930
  O        1.7414800    -1.2994450    -0.3567160
  O        2.9590140    -0.0653000     1.3909990
  O        3.7753660     0.2843820    -1.0654240
  C       -2.1786680     0.7692630     0.5423480
  C       -0.8949230     0.8134730    -0.3165700
  C       -2.7681322    -0.5889909     0.2370740
  C       -1.5369320    -1.4089660    -0.0835960
  C        0.3225300     1.1924080     0.5079200
  H       -1.9376650     0.8286140     1.6117160
  H       -1.0169450     1.4955040    -1.1629930
  H       -3.3413290    -1.0227480     1.0706890
  H       -1.7077950    -2.2947630    -0.7028010
  H        0.4416350     0.4968690     1.3430810
  H        0.1975530     2.2044650     0.9092850
  H       -2.8909940     2.6048820     0.5755830
  H       -4.0423210     0.2940670    -0.9260900
  H       -0.0419210    -2.0739930     0.9730340
  H        0.9072950    -1.0817680    -0.8531670
  H        3.8470510     0.3069850     1.5449930
units angstrom
no_reorient  #important for SAPT in psi4, default
symmetry c1  #important for SAPT in psi4, default
}

set PROPERTIES_ORIGIN ["COM"]
properties('MP2/aug-cc-pvtz', properties = ['dipole'])
--------------------------------------------------------------------------

    Molecular point group: c1
  Charge       = 0
  Multiplicity = 1
  Basis Set: AUG-CC-PVTZ
    Blend: AUG-CC-PVTZ
  Basis Set: (AUG-CC-PVTZ AUX)
    Blend: AUG-CC-PVTZ-JKFIT

    Orbital Energies [Eh]
    ---------------------

    Doubly Occupied:

       1A    -80.115164     2A    -20.611387     3A    -20.606769
       4A    -20.605390     5A    -20.603690     6A    -20.598677
       7A    -20.594872     8A    -20.573197     9A    -20.514787
      10A    -11.362807    11A    -11.323473    12A    -11.321666
      13A    -11.318781    14A    -11.306890    15A     -7.630115
      16A     -5.528535    17A     -5.528452    18A     -5.526952
      19A     -1.463522    20A     -1.448524    21A     -1.411386
      22A     -1.390903    23A     -1.378404    24A     -1.371770
      25A     -1.364673    26A     -1.296123    27A     -1.087202
      28A     -1.048813    29A     -0.947423    30A     -0.859209
      31A     -0.841547    32A     -0.829154    33A     -0.772553
      34A     -0.757805    35A     -0.748505    36A     -0.735116
      37A     -0.717091    38A     -0.693071    39A     -0.683278
      40A     -0.665337    41A     -0.653209    42A     -0.647752
      43A     -0.632118    44A     -0.613619    45A     -0.601322
      46A     -0.594234    47A     -0.581761    48A     -0.577206
      49A     -0.569876    50A     -0.558721    51A     -0.543445
      52A     -0.532424    53A     -0.526787    54A     -0.513526
      55A     -0.492887    56A     -0.488510    57A     -0.475450
      58A     -0.469368    59A     -0.466072    60A     -0.452153

  @DF-RHF Final Energy: -1135.82152192426975

   => Energetics <=

    Nuclear Repulsion Energy =           1216.2040810125397456
    One-Electron Energy =               -3985.7043046172834693
    Two-Electron Energy =                1633.6787016804742052
    Total Energy =                      -1135.8215219242697458
  Basis Set: (AUG-CC-PVTZ AUX)
    Blend: AUG-CC-PVTZ-RI
    Molecular point group: c1

    Geometry (in Angstrom), charge = 0, multiplicity = 1:

       Center              X                  Y                   Z               Mass
    ------------   -----------------  -----------------  -----------------  -----------------
         P            2.558320103022     0.049847518308    -0.170831287010    30.973761998420
         O           -0.794703896978    -0.510160481692    -0.856965287010    15.994914619570
         O           -3.200250896978     1.759014518308     0.204706712990    15.994914619570
         O           -3.610559896978    -0.545972481692    -0.937073287010    15.994914619570
         O           -0.979356896978    -1.691054481692     1.169749712990    15.994914619570
         O            1.448155103022     1.229807518308    -0.301428287010    15.994914619570
         O            1.688349103022    -1.292950481692    -0.337751287010    15.994914619570
         O            2.905883103022    -0.058805481692     1.409963712990    15.994914619570
         O            3.722235103022     0.290876518308    -1.046459287010    15.994914619570
         C           -2.231798896978     0.775757518308     0.561312712990    12.000000000000
         C           -0.948053896978     0.819967518308    -0.297605287010    12.000000000000
         C           -2.821263096978    -0.582496381692     0.256038712990    12.000000000000
         C           -1.590062896978    -1.402471481692    -0.064631287010    12.000000000000
         C            0.269399103022     1.198902518308     0.526884712990    12.000000000000
         H           -1.990795896978     0.835108518308     1.630680712990     1.007825032230
         H           -1.070075896978     1.501998518308    -1.144028287010     1.007825032230
         H           -3.394459896978    -1.016253481692     1.089653712990     1.007825032230
         H           -1.760925896978    -2.288268481692    -0.683836287010     1.007825032230
         H            0.388504103022     0.503363518308     1.362045712990     1.007825032230
         H            0.144422103022     2.210959518308     0.928249712990     1.007825032230
         H           -2.944124896978     2.611376518308     0.594547712990     1.007825032230
         H           -4.095451896978     0.300561518308    -0.907125287010     1.007825032230
         H           -0.095051896978    -2.067498481692     0.991998712990     1.007825032230
         H            0.854164103022    -1.075273481692    -0.834202287010     1.007825032230
         H            3.793920103022     0.313479518308     1.563957712990     1.007825032230

  Basis Set: AUG-CC-PVTZ
    Blend: AUG-CC-PVTZ
  Basis Set: (AUG-CC-PVTZ AUX)
    Blend: AUG-CC-PVTZ-JKFIT
	 Reference Energy          =   -1135.8215219242697458 [Eh]
	 Singles Energy            =      -0.0000000000000000 [Eh]
	 Same-Spin Energy          =      -0.8164047047170571 [Eh]
	 Opposite-Spin Energy      =      -2.4222608355483524 [Eh]
	 Correlation Energy        =      -3.2386655402654094 [Eh]
	 Total Energy              =   -1139.0601874645351472 [Eh]

	 ================> DF-SCS-MP2 Energies <==================
	-----------------------------------------------------------
	 SCS Same-Spin Scale       =       0.3333333333333333 [-]
	 SCS Opposite-Spin Scale   =       1.2000000000000000 [-]
	 SCS Same-Spin Energy      =      -0.2721349015723523 [Eh]
	 SCS Opposite-Spin Energy  =      -2.9067130026580226 [Eh]
	 SCS Correlation Energy    =      -3.1788479042303748 [Eh]
	 SCS Total Energy          =   -1139.0003698285001974 [Eh]
	-----------------------------------------------------------

  Dipole Moment: [D]
     X:    -3.4238      Y:     2.3073      Z:     4.0690     Total:     5.7968

*** Psi4 exiting successfully. Buy a developer a beer!
