                               Psi4 1.3.2 release

  ==> Input File <==

--------------------------------------------------------------------------
#psi4
#
memory 32 gb

molecule  {
0 1
  P        2.6114510     0.0433530    -0.1897960
  O       -0.7415730    -0.5166550    -0.8759300
  O       -3.1471200     1.7525200     0.1857420
  O       -3.5574290    -0.5524670    -0.9560380
  O       -0.9262260    -1.6975490     1.1507850
  O        1.5012860     1.2233130    -0.3203930
  O        1.7414800    -1.2994450    -0.3567160
  O        2.9590140    -0.0653000     1.3909990
  O        3.7753660     0.2843820    -1.0654240
  C       -2.1786680     0.7692630     0.5423480
  C       -0.8009159     0.8615535    -0.4257522
  C       -2.7827930    -0.6059770     0.2231310
  C       -1.5369320    -1.4089660    -0.0835960
  C        0.3225300     1.1924080     0.5079200
  H       -1.9376650     0.8286140     1.6117160
  H       -1.0169450     1.4955040    -1.1629930
  H       -3.3413290    -1.0227480     1.0706890
  H       -1.7077950    -2.2947630    -0.7028010
  H        0.4416350     0.4968690     1.3430810
  H        0.1975530     2.2044650     0.9092850
  H       -2.8909940     2.6048820     0.5755830
  H       -4.0423210     0.2940670    -0.9260900
  H       -0.0419210    -2.0739930     0.9730340
  H        0.9072950    -1.0817680    -0.8531670
  H        3.8470510     0.3069850     1.5449930
units angstrom
no_reorient  #important for SAPT in psi4, default
symmetry c1  #important for SAPT in psi4, default
}

set PROPERTIES_ORIGIN ["COM"]
properties('MP2/aug-cc-pvtz', properties = ['dipole'])
--------------------------------------------------------------------------

    Molecular point group: c1
  Charge       = 0
  Multiplicity = 1
  Basis Set: AUG-CC-PVTZ
    Blend: AUG-CC-PVTZ
  Basis Set: (AUG-CC-PVTZ AUX)
    Blend: AUG-CC-PVTZ-JKFIT

    Orbital Energies [Eh]
    ---------------------

    Doubly Occupied:

       1A    -80.114071     2A    -20.611190     3A    -20.603280
       4A    -20.601873     5A    -20.600373     6A    -20.597922
       7A    -20.593925     8A    -20.573002     9A    -20.513892
      10A    -11.363146    11A    -11.324948    12A    -11.322207
      13A    -11.317769    14A    -11.305246    15A     -7.629061
      16A     -5.527484    17A     -5.527378    18A     -5.525912
      19A     -1.460944    20A     -1.445485    21A     -1.408014
      22A     -1.391145    23A     -1.377945    24A     -1.371518
      25A     -1.366371    26A     -1.295416    27A     -1.072113
      28A     -1.048244    29A     -0.943542    30A     -0.864324
      31A     -0.846086    32A     -0.823588    33A     -0.771123
      34A     -0.755836    35A     -0.744045    36A     -0.730502
      37A     -0.715861    38A     -0.698158    39A     -0.686635
      40A     -0.668355    41A     -0.653727    42A     -0.648885
      43A     -0.636803    44A     -0.613735    45A     -0.600893
      46A     -0.593931    47A     -0.582191    48A     -0.579809
      49A     -0.565435    50A     -0.559277    51A     -0.542582
      52A     -0.533666    53A     -0.525951    54A     -0.511271
      55A     -0.487351    56A     -0.483779    57A     -0.475029
      58A     -0.469629    59A     -0.465487    60A     -0.431337

  @DF-RHF Final Energy: -1135.80019023287423

   => Energetics <=

    Nuclear Repulsion Energy =           1214.5584380295949813
    One-Electron Energy =               -3982.5198644955844429
    Two-Electron Energy =                1632.1612362331152326
    Total Energy =                      -1135.8001902328742290
  Basis Set: (AUG-CC-PVTZ AUX)
    Blend: AUG-CC-PVTZ-RI
    Molecular point group: c1

    Geometry (in Angstrom), charge = 0, multiplicity = 1:

       Center              X                  Y                   Z               Mass
    ------------   -----------------  -----------------  -----------------  -----------------
         P            2.554180640798     0.048225336881    -0.164407898469    30.973761998420
         O           -0.798843359202    -0.511782663119    -0.850541898469    15.994914619570
         O           -3.204390359202     1.757392336881     0.211130101531    15.994914619570
         O           -3.614699359202    -0.547594663119    -0.930649898469    15.994914619570
         O           -0.983496359202    -1.692676663119     1.176173101531    15.994914619570
         O            1.444015640798     1.228185336881    -0.295004898469    15.994914619570
         O            1.684209640798    -1.294572663119    -0.331327898469    15.994914619570
         O            2.901743640798    -0.060427663119     1.416387101531    15.994914619570
         O            3.718095640798     0.289254336881    -1.040035898469    15.994914619570
         C           -2.235938359202     0.774135336881     0.567736101531    12.000000000000
         C           -0.858186259202     0.866425836881    -0.400364098469    12.000000000000
         C           -2.840063359202    -0.601104663119     0.248519101531    12.000000000000
         C           -1.594202359202    -1.404093663119    -0.058207898469    12.000000000000
         C            0.265259640798     1.197280336881     0.533308101531    12.000000000000
         H           -1.994935359202     0.833486336881     1.637104101531     1.007825032230
         H           -1.074215359202     1.500376336881    -1.137604898469     1.007825032230
         H           -3.398599359202    -1.017875663119     1.096077101531     1.007825032230
         H           -1.765065359202    -2.289890663119    -0.677412898469     1.007825032230
         H            0.384364640798     0.501741336881     1.368469101531     1.007825032230
         H            0.140282640798     2.209337336881     0.934673101531     1.007825032230
         H           -2.948264359202     2.609754336881     0.600971101531     1.007825032230
         H           -4.099591359202     0.298939336881    -0.900701898469     1.007825032230
         H           -0.099191359202    -2.069120663119     0.998422101531     1.007825032230
         H            0.850024640798    -1.076895663119    -0.827778898469     1.007825032230
         H            3.789780640798     0.311857336881     1.570381101531     1.007825032230

  Basis Set: AUG-CC-PVTZ
    Blend: AUG-CC-PVTZ
  Basis Set: (AUG-CC-PVTZ AUX)
    Blend: AUG-CC-PVTZ-JKFIT
	 Reference Energy          =   -1135.8001902328742290 [Eh]
	 Singles Energy            =      -0.0000000000000000 [Eh]
	 Same-Spin Energy          =      -0.8162662729805665 [Eh]
	 Opposite-Spin Energy      =      -2.4224387528432398 [Eh]
	 Correlation Energy        =      -3.2387050258238066 [Eh]
	 Total Energy              =   -1139.0388952586979485 [Eh]

	 ================> DF-SCS-MP2 Energies <==================
	-----------------------------------------------------------
	 SCS Same-Spin Scale       =       0.3333333333333333 [-]
	 SCS Opposite-Spin Scale   =       1.2000000000000000 [-]
	 SCS Same-Spin Energy      =      -0.2720887576601888 [Eh]
	 SCS Opposite-Spin Energy  =      -2.9069265034118876 [Eh]
	 SCS Correlation Energy    =      -3.1790152610720765 [Eh]
	 SCS Total Energy          =   -1138.9792054939462105 [Eh]
	-----------------------------------------------------------

  Dipole Moment: [D]
     X:    -3.4677      Y:     2.3909      Z:     4.0110     Total:     5.8163

*** Psi4 exiting successfully. Buy a developer a beer!
