                               Psi4 1.3.2 release

  ==> Input File <==

--------------------------------------------------------------------------
#psi4
#
memory 32 gb

molecule  {
0 1
  P        2.6114510     0.0433530    -0.1897960
  O       -0.6723437    -0.5887519    -0.8813077
  O       -3.1471200     1.7525200     0.1857420
  O       -3.5574290    -0.5524670    -0.9560380
  O       -0.9262260    -1.6975490     1.1507850
  O        1.5012860     1.2233130    -0.3203930
  O        1.7414800    -1.2994450    -0.3567160
  O        2.9590140    -0.0653000     1.3909990
  O        3.7753660     0.2843820    -1.0654240
  C       -2.1786680     0.7692630     0.5423480
  C       -0.8949230     0.8134730    -0.3165700
  C       -2.7827930    -0.6059770     0.2231310
  C       -1.5369320    -1.4089660    -0.0835960
  C        0.3225300     1.1924080     0.5079200
  H       -1.9376650     0.8286140     1.6117160
  H       -1.0169450     1.4955040    -1.1629930
  H       -3.3413290    -1.0227480     1.0706890
  H       -1.7077950    -2.2947630    -0.7028010
  H        0.4416350     0.4968690     1.3430810
  H        0.1975530     2.2044650     0.9092850
  H       -2.8909940     2.6048820     0.5755830
  H       -4.0423210     0.2940670    -0.9260900
  H       -0.0419210    -2.0739930     0.9730340
  H        0.9072950    -1.0817680    -0.8531670
  H        3.8470510     0.3069850     1.5449930
units angstrom
no_reorient  #important for SAPT in psi4, default
symmetry c1  #important for SAPT in psi4, default
}

set PROPERTIES_ORIGIN ["COM"]
properties('MP2/aug-cc-pvtz', properties = ['dipole'])
--------------------------------------------------------------------------

    Molecular point group: c1
  Charge       = 0
  Multiplicity = 1
  Basis Set: AUG-CC-PVTZ
    Blend: AUG-CC-PVTZ
  Basis Set: (AUG-CC-PVTZ AUX)
    Blend: AUG-CC-PVTZ-JKFIT

    Orbital Energies [Eh]
    ---------------------

    Doubly Occupied:

       1A    -80.112683     2A    -20.610456     3A    -20.609589
       4A    -20.606136     5A    -20.604912     6A    -20.591425
       7A    -20.591310     8A    -20.577227     9A    -20.512796
      10A    -11.360471    11A    -11.328788    12A    -11.327239
      13A    -11.324104    14A    -11.310553    15A     -7.627625
      16A     -5.526077    17A     -5.525934    18A     -5.524469
      19A     -1.458363    20A     -1.443222    21A     -1.414717
      22A     -1.389633    23A     -1.375487    24A     -1.374157
      25A     -1.358127    26A     -1.294117    27A     -1.091530
      28A     -1.044971    29A     -0.943746    30A     -0.860793
      31A     -0.839661    32A     -0.829074    33A     -0.772291
      34A     -0.758617    35A     -0.745719    36A     -0.733957
      37A     -0.715071    38A     -0.691405    39A     -0.684693
      40A     -0.665639    41A     -0.652119    42A     -0.642242
      43A     -0.635083    44A     -0.609749    45A     -0.605192
      46A     -0.591597    47A     -0.580584    48A     -0.578198
      49A     -0.569377    50A     -0.559018    51A     -0.540596
      52A     -0.530576    53A     -0.524342    54A     -0.514333
      55A     -0.494658    56A     -0.485788    57A     -0.476782
      58A     -0.468501    59A     -0.464977    60A     -0.454314

  @DF-RHF Final Energy: -1135.81448601829334

   => Energetics <=

    Nuclear Repulsion Energy =           1214.8054792268819710
    One-Electron Energy =               -3982.9703205712594354
    Two-Electron Energy =                1632.3503553260838999
    Total Energy =                      -1135.8144860182933371
  Basis Set: (AUG-CC-PVTZ AUX)
    Blend: AUG-CC-PVTZ-RI
    Molecular point group: c1

    Geometry (in Angstrom), charge = 0, multiplicity = 1:

       Center              X                  Y                   Z               Mass
    ------------   -----------------  -----------------  -----------------  -----------------
         P            2.554270930920     0.055747100732    -0.169729935894    30.973761998420
         O           -0.729523769080    -0.576357799268    -0.861241635894    15.994914619570
         O           -3.204300069080     1.764914100732     0.205808064106    15.994914619570
         O           -3.614609069080    -0.540072899268    -0.935971935894    15.994914619570
         O           -0.983406069080    -1.685154899268     1.170851064106    15.994914619570
         O            1.444105930920     1.235707100732    -0.300326935894    15.994914619570
         O            1.684299930920    -1.287050899268    -0.336649935894    15.994914619570
         O            2.901833930920    -0.052905899268     1.411065064106    15.994914619570
         O            3.718185930920     0.296776100732    -1.045357935894    15.994914619570
         C           -2.235848069080     0.781657100732     0.562414064106    12.000000000000
         C           -0.952103069080     0.825867100732    -0.296503935894    12.000000000000
         C           -2.839973069080    -0.593582899268     0.243197064106    12.000000000000
         C           -1.594112069080    -1.396571899268    -0.063529935894    12.000000000000
         C            0.265349930920     1.204802100732     0.527986064106    12.000000000000
         H           -1.994845069080     0.841008100732     1.631782064106     1.007825032230
         H           -1.074125069080     1.507898100732    -1.142926935894     1.007825032230
         H           -3.398509069080    -1.010353899268     1.090755064106     1.007825032230
         H           -1.764975069080    -2.282368899268    -0.682734935894     1.007825032230
         H            0.384454930920     0.509263100732     1.363147064106     1.007825032230
         H            0.140372930920     2.216859100732     0.929351064106     1.007825032230
         H           -2.948174069080     2.617276100732     0.595649064106     1.007825032230
         H           -4.099501069080     0.306461100732    -0.906023935894     1.007825032230
         H           -0.099101069080    -2.061598899268     0.993100064106     1.007825032230
         H            0.850114930920    -1.069373899268    -0.833100935894     1.007825032230
         H            3.789870930920     0.319379100732     1.565059064106     1.007825032230

  Basis Set: AUG-CC-PVTZ
    Blend: AUG-CC-PVTZ
  Basis Set: (AUG-CC-PVTZ AUX)
    Blend: AUG-CC-PVTZ-JKFIT
	 Reference Energy          =   -1135.8144860182933371 [Eh]
	 Singles Energy            =      -0.0000000000000000 [Eh]
	 Same-Spin Energy          =      -0.8170271416242886 [Eh]
	 Opposite-Spin Energy      =      -2.4242549681779320 [Eh]
	 Correlation Energy        =      -3.2412821098022206 [Eh]
	 Total Energy              =   -1139.0557681280954512 [Eh]

	 ================> DF-SCS-MP2 Energies <==================
	-----------------------------------------------------------
	 SCS Same-Spin Scale       =       0.3333333333333333 [-]
	 SCS Opposite-Spin Scale   =       1.2000000000000000 [-]
	 SCS Same-Spin Energy      =      -0.2723423805414295 [Eh]
	 SCS Opposite-Spin Energy  =      -2.9091059618135184 [Eh]
	 SCS Correlation Energy    =      -3.1814483423549480 [Eh]
	 SCS Total Energy          =   -1138.9959343606483344 [Eh]
	-----------------------------------------------------------

  Dipole Moment: [D]
     X:    -3.7765      Y:     2.5616      Z:     4.0778     Total:     6.1198

*** Psi4 exiting successfully. Buy a developer a beer!
