                               Psi4 1.3.2 release

  ==> Input File <==

--------------------------------------------------------------------------
#psi4
#
memory 32 gb

molecule  {
0 1
  P        2.6114510     0.0433530    -0.1897960
  O       -0.7415730    -0.5166550    -0.8759300
  O       -3.1471200     1.7525200     0.1857420
  O       -3.5574290    -0.5524670    -0.9560380
  O       -0.9262260    -1.6975490     1.1507850
  O        1.5012860     1.2233130    -0.3203930
  O        1.7414800    -1.2994450    -0.3567160
  O        2.9590140    -0.0653000     1.3909990
  O        3.7753660     0.2843820    -1.0654240
  C       -2.1786680     0.7692630     0.5423480
  C       -0.9259358     0.7941770    -0.2814805
  C       -2.7827930    -0.6059770     0.2231310
  C       -1.5369320    -1.4089660    -0.0835960
  C        0.3225300     1.1924080     0.5079200
  H       -1.9376650     0.8286140     1.6117160
  H       -1.0169450     1.4955040    -1.1629930
  H       -3.3413290    -1.0227480     1.0706890
  H       -1.7077950    -2.2947630    -0.7028010
  H        0.4416350     0.4968690     1.3430810
  H        0.1975530     2.2044650     0.9092850
  H       -2.8909940     2.6048820     0.5755830
  H       -4.0423210     0.2940670    -0.9260900
  H       -0.0419210    -2.0739930     0.9730340
  H        0.9072950    -1.0817680    -0.8531670
  H        3.8470510     0.3069850     1.5449930
units angstrom
no_reorient  #important for SAPT in psi4, default
symmetry c1  #important for SAPT in psi4, default
}

set PROPERTIES_ORIGIN ["COM"]
properties('MP2/aug-cc-pvtz', properties = ['dipole'])
--------------------------------------------------------------------------

    Molecular point group: c1
  Charge       = 0
  Multiplicity = 1
  Basis Set: AUG-CC-PVTZ
    Blend: AUG-CC-PVTZ
  Basis Set: (AUG-CC-PVTZ AUX)
    Blend: AUG-CC-PVTZ-JKFIT

    Orbital Energies [Eh]
    ---------------------

    Doubly Occupied:

       1A    -80.115279     2A    -20.611227     3A    -20.607125
       4A    -20.606169     5A    -20.604888     6A    -20.598761
       7A    -20.595344     8A    -20.575524     9A    -20.514877
      10A    -11.362211    11A    -11.322122    12A    -11.321633
      13A    -11.319304    14A    -11.308103    15A     -7.630221
      16A     -5.528643    17A     -5.528561    18A     -5.527054
      19A     -1.464380    20A     -1.449232    21A     -1.412549
      22A     -1.390617    23A     -1.378386    24A     -1.374415
      25A     -1.369568    26A     -1.296158    27A     -1.090497
      28A     -1.045773    29A     -0.948133    30A     -0.857332
      31A     -0.840473    32A     -0.831085    33A     -0.772540
      34A     -0.760935    35A     -0.748784    36A     -0.735405
      37A     -0.717181    38A     -0.691583    39A     -0.683769
      40A     -0.667013    41A     -0.653151    42A     -0.647515
      43A     -0.634084    44A     -0.613876    45A     -0.601658
      46A     -0.594970    47A     -0.582029    48A     -0.579306
      49A     -0.568407    50A     -0.559450    51A     -0.543674
      52A     -0.531702    53A     -0.527223    54A     -0.512543
      55A     -0.491767    56A     -0.491184    57A     -0.473710
      58A     -0.468600    59A     -0.465140    60A     -0.452135

  @DF-RHF Final Energy: -1135.81898533048911

   => Energetics <=

    Nuclear Repulsion Energy =           1216.4040638065623625
    One-Electron Energy =               -3986.0561475361550947
    Two-Electron Energy =                1633.8330983991038465
    Total Energy =                      -1135.8189853304891130
  Basis Set: (AUG-CC-PVTZ AUX)
    Blend: AUG-CC-PVTZ-RI
    Molecular point group: c1

    Geometry (in Angstrom), charge = 0, multiplicity = 1:

       Center              X                  Y                   Z               Mass
    ------------   -----------------  -----------------  -----------------  -----------------
         P            2.560702875021     0.051740339805    -0.171934490788    30.973761998420
         O           -0.792321124979    -0.508267660195    -0.858068490788    15.994914619570
         O           -3.197868124979     1.760907339805     0.203603509212    15.994914619570
         O           -3.608177124979    -0.544079660195    -0.938176490788    15.994914619570
         O           -0.976974124979    -1.689161660195     1.168646509212    15.994914619570
         O            1.450537875021     1.231700339805    -0.302531490788    15.994914619570
         O            1.690731875021    -1.291057660195    -0.338854490788    15.994914619570
         O            2.908265875021    -0.056912660195     1.408860509212    15.994914619570
         O            3.724617875021     0.292769339805    -1.047562490788    15.994914619570
         C           -2.229416124979     0.777650339805     0.560209509212    12.000000000000
         C           -0.976683924979     0.802564339805    -0.263618990788    12.000000000000
         C           -2.833541124979    -0.597589660195     0.240992509212    12.000000000000
         C           -1.587680124979    -1.400578660195    -0.065734490788    12.000000000000
         C            0.271781875021     1.200795339805     0.525781509212    12.000000000000
         H           -1.988413124979     0.837001339805     1.629577509212     1.007825032230
         H           -1.067693124979     1.503891339805    -1.145131490788     1.007825032230
         H           -3.392077124979    -1.014360660195     1.088550509212     1.007825032230
         H           -1.758543124979    -2.286375660195    -0.684939490788     1.007825032230
         H            0.390886875021     0.505256339805     1.360942509212     1.007825032230
         H            0.146804875021     2.212852339805     0.927146509212     1.007825032230
         H           -2.941742124979     2.613269339805     0.593444509212     1.007825032230
         H           -4.093069124979     0.302454339805    -0.908228490788     1.007825032230
         H           -0.092669124979    -2.065605660195     0.990895509212     1.007825032230
         H            0.856546875021    -1.073380660195    -0.835305490788     1.007825032230
         H            3.796302875021     0.315372339805     1.562854509212     1.007825032230

  Basis Set: AUG-CC-PVTZ
    Blend: AUG-CC-PVTZ
  Basis Set: (AUG-CC-PVTZ AUX)
    Blend: AUG-CC-PVTZ-JKFIT
	 Reference Energy          =   -1135.8189853304891130 [Eh]
	 Singles Energy            =      -0.0000000000000000 [Eh]
	 Same-Spin Energy          =      -0.8167493928628905 [Eh]
	 Opposite-Spin Energy      =      -2.4225362333338136 [Eh]
	 Correlation Energy        =      -3.2392856261967040 [Eh]
	 Total Energy              =   -1139.0582709566858739 [Eh]

	 ================> DF-SCS-MP2 Energies <==================
	-----------------------------------------------------------
	 SCS Same-Spin Scale       =       0.3333333333333333 [-]
	 SCS Opposite-Spin Scale   =       1.2000000000000000 [-]
	 SCS Same-Spin Energy      =      -0.2722497976209635 [Eh]
	 SCS Opposite-Spin Energy  =      -2.9070434800005764 [Eh]
	 SCS Correlation Energy    =      -3.1792932776215399 [Eh]
	 SCS Total Energy          =   -1138.9982786081106951 [Eh]
	-----------------------------------------------------------

  Dipole Moment: [D]
     X:    -3.4889      Y:     2.2506      Z:     4.0400     Total:     5.7930

*** Psi4 exiting successfully. Buy a developer a beer!
