                               Psi4 1.3.2 release

  ==> Input File <==

--------------------------------------------------------------------------
#psi4
#
memory 32 gb

molecule  {
0 1
  P        2.6114510     0.0433530    -0.1897960
  O       -0.7415730    -0.5166550    -0.8759300
  O       -3.1471200     1.7525200     0.1857420
  O       -3.5574290    -0.5524670    -0.9560380
  O       -0.9262260    -1.6975490     1.1507850
  O        1.5012860     1.2233130    -0.3203930
  O        1.7414800    -1.2994450    -0.3567160
  O        2.9590140    -0.0653000     1.3909990
  O        3.7753660     0.2843820    -1.0654240
  C       -2.1786680     0.7692630     0.5423480
  C       -0.8949230     0.8134730    -0.3165700
  C       -2.7827930    -0.6059770     0.2231310
  C       -1.5369320    -1.4089660    -0.0835960
  C        0.3225300     1.1924080     0.5079200
  H       -1.9376650     0.8286140     1.6117160
  H       -1.0169450     1.4955040    -1.1629930
  H       -3.3413290    -1.0227480     1.0706890
  H       -1.6765640    -2.1328534    -0.5896202
  H        0.4416350     0.4968690     1.3430810
  H        0.1975530     2.2044650     0.9092850
  H       -2.8909940     2.6048820     0.5755830
  H       -4.0423210     0.2940670    -0.9260900
  H       -0.0419210    -2.0739930     0.9730340
  H        0.9072950    -1.0817680    -0.8531670
  H        3.8470510     0.3069850     1.5449930
units angstrom
no_reorient  #important for SAPT in psi4, default
symmetry c1  #important for SAPT in psi4, default
}

set PROPERTIES_ORIGIN ["COM"]
properties('MP2/aug-cc-pvtz', properties = ['dipole'])
--------------------------------------------------------------------------

    Molecular point group: c1
  Charge       = 0
  Multiplicity = 1
  Basis Set: AUG-CC-PVTZ
    Blend: AUG-CC-PVTZ
  Basis Set: (AUG-CC-PVTZ AUX)
    Blend: AUG-CC-PVTZ-JKFIT

    Orbital Energies [Eh]
    ---------------------

    Doubly Occupied:

       1A    -80.114812     2A    -20.611037     3A    -20.605829
       4A    -20.604822     5A    -20.602200     6A    -20.598373
       7A    -20.592997     8A    -20.575177     9A    -20.514484
      10A    -11.339464    11A    -11.322634    12A    -11.320832
      13A    -11.317611    14A    -11.306385    15A     -7.629760
      16A     -5.528179    17A     -5.528099    18A     -5.526598
      19A     -1.463367    20A     -1.448457    21A     -1.411170
      22A     -1.390432    23A     -1.378086    24A     -1.373419
      25A     -1.367972    26A     -1.295821    27A     -1.084257
      28A     -1.053252    29A     -0.960141    30A     -0.862929
      31A     -0.846213    32A     -0.838215    33A     -0.777502
      34A     -0.763253    35A     -0.752566    36A     -0.734493
      37A     -0.717022    38A     -0.692931    39A     -0.684093
      40A     -0.675591    41A     -0.654529    42A     -0.647944
      43A     -0.633700    44A     -0.613943    45A     -0.601523
      46A     -0.596048    47A     -0.581969    48A     -0.577534
      49A     -0.570001    50A     -0.560238    51A     -0.543952
      52A     -0.535845    53A     -0.527062    54A     -0.511715
      55A     -0.498624    56A     -0.487498    57A     -0.474916
      58A     -0.469308    59A     -0.465587    60A     -0.450232

  @DF-RHF Final Energy: -1135.79003730647560

   => Energetics <=

    Nuclear Repulsion Energy =           1217.4014181773759447
    One-Electron Energy =               -3987.9576359001898709
    Two-Electron Energy =                1634.7661804163383295
    Total Energy =                      -1135.7900373064755968
  Basis Set: (AUG-CC-PVTZ AUX)
    Blend: AUG-CC-PVTZ-RI
    Molecular point group: c1

    Geometry (in Angstrom), charge = 0, multiplicity = 1:

       Center              X                  Y                   Z               Mass
    ------------   -----------------  -----------------  -----------------  -----------------
         P            2.558948112532     0.050024271641    -0.170599786478    30.973761998420
         O           -0.794075887468    -0.509983728359    -0.856733786478    15.994914619570
         O           -3.199622887468     1.759191271641     0.204938213522    15.994914619570
         O           -3.609931887468    -0.545795728359    -0.936841786478    15.994914619570
         O           -0.978728887468    -1.690877728359     1.169981213522    15.994914619570
         O            1.448783112532     1.229984271641    -0.301196786478    15.994914619570
         O            1.688977112532    -1.292773728359    -0.337519786478    15.994914619570
         O            2.906511112532    -0.058628728359     1.410195213522    15.994914619570
         O            3.722863112532     0.291053271641    -1.046227786478    15.994914619570
         C           -2.231170887468     0.775934271641     0.561544213522    12.000000000000
         C           -0.947425887468     0.820144271641    -0.297373786478    12.000000000000
         C           -2.835295887468    -0.599305728359     0.242327213522    12.000000000000
         C           -1.589434887468    -1.402294728359    -0.064399786478    12.000000000000
         C            0.270027112532     1.199079271641     0.527116213522    12.000000000000
         H           -1.990167887468     0.835285271641     1.630912213522     1.007825032230
         H           -1.069447887468     1.502175271641    -1.143796786478     1.007825032230
         H           -3.393831887468    -1.016076728359     1.089885213522     1.007825032230
         H           -1.729066887468    -2.126182128359    -0.570423986478     1.007825032230
         H            0.389132112532     0.503540271641     1.362277213522     1.007825032230
         H            0.145050112532     2.211136271641     0.928481213522     1.007825032230
         H           -2.943496887468     2.611553271641     0.594779213522     1.007825032230
         H           -4.094823887468     0.300738271641    -0.906893786478     1.007825032230
         H           -0.094423887468    -2.067321728359     0.992230213522     1.007825032230
         H            0.854792112532    -1.075096728359    -0.833970786478     1.007825032230
         H            3.794548112532     0.313656271641     1.564189213522     1.007825032230

  Basis Set: AUG-CC-PVTZ
    Blend: AUG-CC-PVTZ
  Basis Set: (AUG-CC-PVTZ AUX)
    Blend: AUG-CC-PVTZ-JKFIT
	 Reference Energy          =   -1135.7900373064755968 [Eh]
	 Singles Energy            =      -0.0000000000000000 [Eh]
	 Same-Spin Energy          =      -0.8158694893059464 [Eh]
	 Opposite-Spin Energy      =      -2.4207314787139471 [Eh]
	 Correlation Energy        =      -3.2366009680198937 [Eh]
	 Total Energy              =   -1139.0266382744955536 [Eh]

	 ================> DF-SCS-MP2 Energies <==================
	-----------------------------------------------------------
	 SCS Same-Spin Scale       =       0.3333333333333333 [-]
	 SCS Opposite-Spin Scale   =       1.2000000000000000 [-]
	 SCS Same-Spin Energy      =      -0.2719564964353154 [Eh]
	 SCS Opposite-Spin Energy  =      -2.9048777744567365 [Eh]
	 SCS Correlation Energy    =      -3.1768342708920518 [Eh]
	 SCS Total Energy          =   -1138.9668715773675558 [Eh]
	-----------------------------------------------------------

  Dipole Moment: [D]
     X:    -3.5081      Y:     2.2761      Z:     4.0105     Total:     5.7941

*** Psi4 exiting successfully. Buy a developer a beer!
