                               Psi4 1.3.2 release

  ==> Input File <==

--------------------------------------------------------------------------
#psi4
#
memory 32 gb

molecule  {
0 1
  P        2.6114510     0.0433530    -0.1897960
  O       -0.7415730    -0.5166550    -0.8759300
  O       -3.1471200     1.7525200     0.1857420
  O       -3.4514373    -0.6331252    -1.0200671
  O       -0.9262260    -1.6975490     1.1507850
  O        1.5012860     1.2233130    -0.3203930
  O        1.7414800    -1.2994450    -0.3567160
  O        2.9590140    -0.0653000     1.3909990
  O        3.7753660     0.2843820    -1.0654240
  C       -2.1786680     0.7692630     0.5423480
  C       -0.8949230     0.8134730    -0.3165700
  C       -2.7827930    -0.6059770     0.2231310
  C       -1.5369320    -1.4089660    -0.0835960
  C        0.3225300     1.1924080     0.5079200
  H       -1.9376650     0.8286140     1.6117160
  H       -1.0169450     1.4955040    -1.1629930
  H       -3.3413290    -1.0227480     1.0706890
  H       -1.7077950    -2.2947630    -0.7028010
  H        0.4416350     0.4968690     1.3430810
  H        0.1975530     2.2044650     0.9092850
  H       -2.8909940     2.6048820     0.5755830
  H       -4.0423210     0.2940670    -0.9260900
  H       -0.0419210    -2.0739930     0.9730340
  H        0.9072950    -1.0817680    -0.8531670
  H        3.8470510     0.3069850     1.5449930
units angstrom
no_reorient  #important for SAPT in psi4, default
symmetry c1  #important for SAPT in psi4, default
}

set PROPERTIES_ORIGIN ["COM"]
properties('MP2/aug-cc-pvtz', properties = ['dipole'])
--------------------------------------------------------------------------

    Molecular point group: c1
  Charge       = 0
  Multiplicity = 1
  Basis Set: AUG-CC-PVTZ
    Blend: AUG-CC-PVTZ
  Basis Set: (AUG-CC-PVTZ AUX)
    Blend: AUG-CC-PVTZ-JKFIT

    Orbital Energies [Eh]
    ---------------------

    Doubly Occupied:

       1A    -80.114278     2A    -20.610606     3A    -20.608495
       4A    -20.604547     5A    -20.601278     6A    -20.597422
       7A    -20.591216     8A    -20.587222     9A    -20.514010
      10A    -11.358009    11A    -11.324259    12A    -11.320786
      13A    -11.317693    14A    -11.305439    15A     -7.629227
      16A     -5.527651    17A     -5.527563    18A     -5.526066
      19A     -1.461755    20A     -1.446940    21A     -1.410258
      22A     -1.389935    23A     -1.377268    24A     -1.369221
      25A     -1.357359    26A     -1.295338    27A     -1.083182
      28A     -1.040660    29A     -0.945508    30A     -0.857723
      31A     -0.838929    32A     -0.825851    33A     -0.770831
      34A     -0.749821    35A     -0.747226    36A     -0.734105
      37A     -0.716063    38A     -0.691566    39A     -0.682431
      40A     -0.656931    41A     -0.650081    42A     -0.643338
      43A     -0.632966    44A     -0.610465    45A     -0.600951
      46A     -0.594587    47A     -0.581205    48A     -0.575423
      49A     -0.566704    50A     -0.557685    51A     -0.542710
      52A     -0.530250    53A     -0.524499    54A     -0.511937
      55A     -0.489355    56A     -0.485694    57A     -0.474463
      58A     -0.469449    59A     -0.465850    60A     -0.448991

  @DF-RHF Final Energy: -1135.79874508704233

   => Energetics <=

    Nuclear Repulsion Energy =           1216.6489531022580195
    One-Electron Energy =               -3986.7528543487101160
    Two-Electron Energy =                1634.3051561594097620
    Total Energy =                      -1135.7987450870423345
  Basis Set: (AUG-CC-PVTZ AUX)
    Blend: AUG-CC-PVTZ-RI
    Molecular point group: c1

    Geometry (in Angstrom), charge = 0, multiplicity = 1:

       Center              X                  Y                   Z               Mass
    ------------   -----------------  -----------------  -----------------  -----------------
         P            2.551714572294     0.056342430555    -0.165651474958    30.973761998420
         O           -0.801309427706    -0.503665569445    -0.851785474958    15.994914619570
         O           -3.206856427706     1.765509430555     0.209886525042    15.994914619570
         O           -3.511173727706    -0.620135769445    -0.995922574958    15.994914619570
         O           -0.985962427706    -1.684559569445     1.174929525042    15.994914619570
         O            1.441549572294     1.236302430555    -0.296248474958    15.994914619570
         O            1.681743572294    -1.286455569445    -0.332571474958    15.994914619570
         O            2.899277572294    -0.052310569445     1.415143525042    15.994914619570
         O            3.715629572294     0.297371430555    -1.041279474958    15.994914619570
         C           -2.238404427706     0.782252430555     0.566492525042    12.000000000000
         C           -0.954659427706     0.826462430555    -0.292425474958    12.000000000000
         C           -2.842529427706    -0.592987569445     0.247275525042    12.000000000000
         C           -1.596668427706    -1.395976569445    -0.059451474958    12.000000000000
         C            0.262793572294     1.205397430555     0.532064525042    12.000000000000
         H           -1.997401427706     0.841603430555     1.635860525042     1.007825032230
         H           -1.076681427706     1.508493430555    -1.138848474958     1.007825032230
         H           -3.401065427706    -1.009758569445     1.094833525042     1.007825032230
         H           -1.767531427706    -2.281773569445    -0.678656474958     1.007825032230
         H            0.381898572294     0.509858430555     1.367225525042     1.007825032230
         H            0.137816572294     2.217454430555     0.933429525042     1.007825032230
         H           -2.950730427706     2.617871430555     0.599727525042     1.007825032230
         H           -4.102057427706     0.307056430555    -0.901945474958     1.007825032230
         H           -0.101657427706    -2.061003569445     0.997178525042     1.007825032230
         H            0.847558572294    -1.068778569445    -0.829022474958     1.007825032230
         H            3.787314572294     0.319974430555     1.569137525042     1.007825032230

  Basis Set: AUG-CC-PVTZ
    Blend: AUG-CC-PVTZ
  Basis Set: (AUG-CC-PVTZ AUX)
    Blend: AUG-CC-PVTZ-JKFIT
	 Reference Energy          =   -1135.7987450870423345 [Eh]
	 Singles Energy            =      -0.0000000000000000 [Eh]
	 Same-Spin Energy          =      -0.8186226914776232 [Eh]
	 Opposite-Spin Energy      =      -2.4273625610470693 [Eh]
	 Correlation Energy        =      -3.2459852525246924 [Eh]
	 Total Energy              =   -1139.0447303395669678 [Eh]

	 ================> DF-SCS-MP2 Energies <==================
	-----------------------------------------------------------
	 SCS Same-Spin Scale       =       0.3333333333333333 [-]
	 SCS Opposite-Spin Scale   =       1.2000000000000000 [-]
	 SCS Same-Spin Energy      =      -0.2728742304925411 [Eh]
	 SCS Opposite-Spin Energy  =      -2.9128350732564829 [Eh]
	 SCS Correlation Energy    =      -3.1857093037490238 [Eh]
	 SCS Total Energy          =   -1138.9844543907913703 [Eh]
	-----------------------------------------------------------

  Dipole Moment: [D]
     X:    -3.7147      Y:     2.4122      Z:     4.0899     Total:     6.0287

*** Psi4 exiting successfully. Buy a developer a beer!
