                               Psi4 1.3.2 release

  ==> Input File <==

--------------------------------------------------------------------------
#psi4
#
memory 32 gb

molecule  {
0 1
  P        2.6114510     0.0433530    -0.1897960
  O       -0.7415730    -0.5166550    -0.8759300
  O       -3.1471200     1.7525200     0.1857420
  O       -3.5574290    -0.5524670    -0.9560380
  O       -0.9262260    -1.6975490     1.1507850
  O        1.5012860     1.2233130    -0.3203930
  O        1.7414800    -1.2994450    -0.3567160
  O        2.9590140    -0.0653000     1.3909990
  O        3.7753660     0.2843820    -1.0654240
  C       -2.1786680     0.7692630     0.5423480
  C       -0.8949230     0.8134730    -0.3165700
  C       -2.7827930    -0.6059770     0.2231310
  C       -1.6192421    -1.3559151    -0.0633315
  C        0.3225300     1.1924080     0.5079200
  H       -1.9376650     0.8286140     1.6117160
  H       -1.0169450     1.4955040    -1.1629930
  H       -3.3413290    -1.0227480     1.0706890
  H       -1.7077950    -2.2947630    -0.7028010
  H        0.4416350     0.4968690     1.3430810
  H        0.1975530     2.2044650     0.9092850
  H       -2.8909940     2.6048820     0.5755830
  H       -4.0423210     0.2940670    -0.9260900
  H       -0.0419210    -2.0739930     0.9730340
  H        0.9072950    -1.0817680    -0.8531670
  H        3.8470510     0.3069850     1.5449930
units angstrom
no_reorient  #important for SAPT in psi4, default
symmetry c1  #important for SAPT in psi4, default
}

set PROPERTIES_ORIGIN ["COM"]
properties('MP2/aug-cc-pvtz', properties = ['dipole'])
--------------------------------------------------------------------------

    Molecular point group: c1
  Charge       = 0
  Multiplicity = 1
  Basis Set: AUG-CC-PVTZ
    Blend: AUG-CC-PVTZ
  Basis Set: (AUG-CC-PVTZ AUX)
    Blend: AUG-CC-PVTZ-JKFIT

    Orbital Energies [Eh]
    ---------------------

    Doubly Occupied:

       1A    -80.113971     2A    -20.610341     3A    -20.608414
       4A    -20.604421     5A    -20.602563     6A    -20.596893
       7A    -20.588799     8A    -20.579701     9A    -20.513785
      10A    -11.366083    11A    -11.326828    12A    -11.320546
      13A    -11.317180    14A    -11.307481    15A     -7.628924
      16A     -5.527350    17A     -5.527256    18A     -5.525763
      19A     -1.459748    20A     -1.445357    21A     -1.411640
      22A     -1.389438    23A     -1.377839    24A     -1.376023
      25A     -1.359008    26A     -1.295113    27A     -1.091426
      28A     -1.061911    29A     -0.949185    30A     -0.858613
      31A     -0.842645    32A     -0.826379    33A     -0.772010
      34A     -0.760056    35A     -0.747283    36A     -0.737396
      37A     -0.716000    38A     -0.691313    39A     -0.682221
      40A     -0.661789    41A     -0.651760    42A     -0.646427
      43A     -0.634024    44A     -0.608246    45A     -0.598968
      46A     -0.596713    47A     -0.581676    48A     -0.579827
      49A     -0.568891    50A     -0.564674    51A     -0.541675
      52A     -0.530717    53A     -0.527341    54A     -0.515168
      55A     -0.495021    56A     -0.482677    57A     -0.474039
      58A     -0.471989    59A     -0.466384    60A     -0.452412

  @DF-RHF Final Energy: -1135.80831423016753

   => Energetics <=

    Nuclear Repulsion Energy =           1216.4242432488024406
    One-Electron Energy =               -3986.1304632493229292
    Two-Electron Energy =                1633.8979057703527360
    Total Energy =                      -1135.8083142301675252
  Basis Set: (AUG-CC-PVTZ AUX)
    Blend: AUG-CC-PVTZ-RI
    Molecular point group: c1

    Geometry (in Angstrom), charge = 0, multiplicity = 1:

       Center              X                  Y                   Z               Mass
    ------------   -----------------  -----------------  -----------------  -----------------
         P            2.563379033021     0.047966033258    -0.171161076937    30.973761998420
         O           -0.789644966979    -0.512041966742    -0.857295076937    15.994914619570
         O           -3.195191966979     1.757133033258     0.204376923063    15.994914619570
         O           -3.605500966979    -0.547853966742    -0.937403076937    15.994914619570
         O           -0.974297966979    -1.692935966742     1.169419923063    15.994914619570
         O            1.453214033021     1.227926033258    -0.301758076937    15.994914619570
         O            1.693408033021    -1.294831966742    -0.338081076937    15.994914619570
         O            2.910942033021    -0.060686966742     1.409633923063    15.994914619570
         O            3.727294033021     0.288995033258    -1.046789076937    15.994914619570
         C           -2.226739966979     0.773876033258     0.560982923063    12.000000000000
         C           -0.942994966979     0.818086033258    -0.297935076937    12.000000000000
         C           -2.830864966979    -0.601363966742     0.241765923063    12.000000000000
         C           -1.667314066979    -1.351302066742    -0.044696576937    12.000000000000
         C            0.274458033021     1.197021033258     0.526554923063    12.000000000000
         H           -1.985736966979     0.833227033258     1.630350923063     1.007825032230
         H           -1.065016966979     1.500117033258    -1.144358076937     1.007825032230
         H           -3.389400966979    -1.018134966742     1.089323923063     1.007825032230
         H           -1.755866966979    -2.290149966742    -0.684166076937     1.007825032230
         H            0.393563033021     0.501482033258     1.361715923063     1.007825032230
         H            0.149481033021     2.209078033258     0.927919923063     1.007825032230
         H           -2.939065966979     2.609495033258     0.594217923063     1.007825032230
         H           -4.090392966979     0.298680033258    -0.907455076937     1.007825032230
         H           -0.089992966979    -2.069379966742     0.991668923063     1.007825032230
         H            0.859223033021    -1.077154966742    -0.834532076937     1.007825032230
         H            3.798979033021     0.311598033258     1.563627923063     1.007825032230

  Basis Set: AUG-CC-PVTZ
    Blend: AUG-CC-PVTZ
  Basis Set: (AUG-CC-PVTZ AUX)
    Blend: AUG-CC-PVTZ-JKFIT
	 Reference Energy          =   -1135.8083142301675252 [Eh]
	 Singles Energy            =      -0.0000000000000000 [Eh]
	 Same-Spin Energy          =      -0.8173416268939523 [Eh]
	 Opposite-Spin Energy      =      -2.4237264300544812 [Eh]
	 Correlation Energy        =      -3.2410680569484334 [Eh]
	 Total Energy              =   -1139.0493822871160319 [Eh]

	 ================> DF-SCS-MP2 Energies <==================
	-----------------------------------------------------------
	 SCS Same-Spin Scale       =       0.3333333333333333 [-]
	 SCS Opposite-Spin Scale   =       1.2000000000000000 [-]
	 SCS Same-Spin Energy      =      -0.2724472089646507 [Eh]
	 SCS Opposite-Spin Energy  =      -2.9084717160653772 [Eh]
	 SCS Correlation Energy    =      -3.1809189250300278 [Eh]
	 SCS Total Energy          =   -1138.9892331551975531 [Eh]
	-----------------------------------------------------------

  Dipole Moment: [D]
     X:    -3.7472      Y:     2.4262      Z:     4.0234     Total:     6.0096

*** Psi4 exiting successfully. Buy a developer a beer!
