                               Psi4 1.3.2 release

  ==> Input File <==

--------------------------------------------------------------------------
#psi4
#
memory 32 gb

molecule  {
0 1
  P        2.6114510     0.0433530    -0.1897960
  O       -0.7415730    -0.5166550    -0.8759300
  O       -3.1471200     1.7525200     0.1857420
  O       -3.5574290    -0.5524670    -0.9560380
  O       -0.9262260    -1.6975490     1.1507850
  O        1.5012860     1.2233130    -0.3203930
  O        1.7414800    -1.2994450    -0.3567160
  O        2.9590140    -0.0653000     1.3909990
  O        3.7753660     0.2843820    -1.0654240
  C       -2.1786680     0.7692630     0.5423480
  C       -0.8949230     0.8134730    -0.3165700
  C       -2.7827930    -0.6059770     0.2231310
  C       -1.5763241    -1.3925424    -0.0592901
  C        0.3225300     1.1924080     0.5079200
  H       -1.9376650     0.8286140     1.6117160
  H       -1.0169450     1.4955040    -1.1629930
  H       -3.3413290    -1.0227480     1.0706890
  H       -1.7077950    -2.2947630    -0.7028010
  H        0.4416350     0.4968690     1.3430810
  H        0.1975530     2.2044650     0.9092850
  H       -2.8909940     2.6048820     0.5755830
  H       -4.0423210     0.2940670    -0.9260900
  H       -0.0419210    -2.0739930     0.9730340
  H        0.9072950    -1.0817680    -0.8531670
  H        3.8470510     0.3069850     1.5449930
units angstrom
no_reorient  #important for SAPT in psi4, default
symmetry c1  #important for SAPT in psi4, default
}

set PROPERTIES_ORIGIN ["COM"]
properties('MP2/aug-cc-pvtz', properties = ['dipole'])
--------------------------------------------------------------------------

    Molecular point group: c1
  Charge       = 0
  Multiplicity = 1
  Basis Set: AUG-CC-PVTZ
    Blend: AUG-CC-PVTZ
  Basis Set: (AUG-CC-PVTZ AUX)
    Blend: AUG-CC-PVTZ-JKFIT

    Orbital Energies [Eh]
    ---------------------

    Doubly Occupied:

       1A    -80.114302     2A    -20.610716     3A    -20.606929
       4A    -20.604431     5A    -20.600715     6A    -20.597473
       7A    -20.594841     8A    -20.577049     9A    -20.514051
      10A    -11.364334    11A    -11.324558    12A    -11.320466
      13A    -11.316617    14A    -11.307767    15A     -7.629252
      16A     -5.527675    17A     -5.527588    18A     -5.526091
      19A     -1.460579    20A     -1.446450    21A     -1.411864
      22A     -1.390092    23A     -1.377376    24A     -1.375122
      25A     -1.366029    26A     -1.295372    27A     -1.085144
      28A     -1.054101    29A     -0.947449    30A     -0.857832
      31A     -0.841213    32A     -0.828108    33A     -0.772057
      34A     -0.761641    35A     -0.746587    36A     -0.735155
      37A     -0.716256    38A     -0.691856    39A     -0.683788
      40A     -0.664609    41A     -0.652149    42A     -0.647023
      43A     -0.632997    44A     -0.612004    45A     -0.600286
      46A     -0.596731    47A     -0.581405    48A     -0.578320
      49A     -0.569648    50A     -0.561678    51A     -0.542655
      52A     -0.531266    53A     -0.526791    54A     -0.513299
      55A     -0.491093    56A     -0.486613    57A     -0.474627
      58A     -0.470642    59A     -0.466209    60A     -0.450860

  @DF-RHF Final Energy: -1135.81913053894391

   => Energetics <=

    Nuclear Repulsion Energy =           1216.0255329118690497
    One-Electron Energy =               -3985.3696649737507869
    Two-Electron Energy =                1633.5250015229378278
    Total Energy =                      -1135.8191305389439094
  Basis Set: (AUG-CC-PVTZ AUX)
    Blend: AUG-CC-PVTZ-RI
    Molecular point group: c1

    Geometry (in Angstrom), charge = 0, multiplicity = 1:

       Center              X                  Y                   Z               Mass
    ------------   -----------------  -----------------  -----------------  -----------------
         P            2.561140019485     0.049876863690    -0.171371915030    30.973761998420
         O           -0.791883980515    -0.510131136310    -0.857505915030    15.994914619570
         O           -3.197430980515     1.759043863690     0.204166084970    15.994914619570
         O           -3.607739980515    -0.545943136310    -0.937613915030    15.994914619570
         O           -0.976536980515    -1.691025136310     1.169209084970    15.994914619570
         O            1.450975019485     1.229836863690    -0.301968915030    15.994914619570
         O            1.691169019485    -1.292921136310    -0.338291915030    15.994914619570
         O            2.908703019485    -0.058776136310     1.409423084970    15.994914619570
         O            3.725055019485     0.290905863690    -1.046999915030    15.994914619570
         C           -2.228978980515     0.775786863690     0.560772084970    12.000000000000
         C           -0.945233980515     0.819996863690    -0.298145915030    12.000000000000
         C           -2.833103980515    -0.599453136310     0.241555084970    12.000000000000
         C           -1.626635080515    -1.386018536310    -0.040866015030    12.000000000000
         C            0.272219019485     1.198931863690     0.526344084970    12.000000000000
         H           -1.987975980515     0.835137863690     1.630140084970     1.007825032230
         H           -1.067255980515     1.502027863690    -1.144568915030     1.007825032230
         H           -3.391639980515    -1.016224136310     1.089113084970     1.007825032230
         H           -1.758105980515    -2.288239136310    -0.684376915030     1.007825032230
         H            0.391324019485     0.503392863690     1.361505084970     1.007825032230
         H            0.147242019485     2.210988863690     0.927709084970     1.007825032230
         H           -2.941304980515     2.611405863690     0.594007084970     1.007825032230
         H           -4.092631980515     0.300590863690    -0.907665915030     1.007825032230
         H           -0.092231980515    -2.067469136310     0.991458084970     1.007825032230
         H            0.856984019485    -1.075244136310    -0.834742915030     1.007825032230
         H            3.796740019485     0.313508863690     1.563417084970     1.007825032230

  Basis Set: AUG-CC-PVTZ
    Blend: AUG-CC-PVTZ
  Basis Set: (AUG-CC-PVTZ AUX)
    Blend: AUG-CC-PVTZ-JKFIT
	 Reference Energy          =   -1135.8191305389439094 [Eh]
	 Singles Energy            =      -0.0000000000000000 [Eh]
	 Same-Spin Energy          =      -0.8166710137487179 [Eh]
	 Opposite-Spin Energy      =      -2.4224707927618896 [Eh]
	 Correlation Energy        =      -3.2391418065106077 [Eh]
	 Total Energy              =   -1139.0582723454544976 [Eh]

	 ================> DF-SCS-MP2 Energies <==================
	-----------------------------------------------------------
	 SCS Same-Spin Scale       =       0.3333333333333333 [-]
	 SCS Opposite-Spin Scale   =       1.2000000000000000 [-]
	 SCS Same-Spin Energy      =      -0.2722236712495726 [Eh]
	 SCS Opposite-Spin Energy  =      -2.9069649513142672 [Eh]
	 SCS Correlation Energy    =      -3.1791886225638399 [Eh]
	 SCS Total Energy          =   -1138.9983191615076521 [Eh]
	-----------------------------------------------------------

  Dipole Moment: [D]
     X:    -3.6081      Y:     2.2939      Z:     4.0925     Total:     5.9185

*** Psi4 exiting successfully. Buy a developer a beer!
