                               Psi4 1.3.2 release

  ==> Input File <==

--------------------------------------------------------------------------
#psi4
#
memory 32 gb

molecule  {
0 1
  P        2.6114510     0.0433530    -0.1897960
  O       -0.7415730    -0.5166550    -0.8759300
  O       -3.1471200     1.7525200     0.1857420
  O       -3.5574290    -0.5524670    -0.9560380
  O       -0.9262260    -1.6975490     1.1507850
  O        1.5012860     1.2233130    -0.3203930
  O        1.7414800    -1.2994450    -0.3567160
  O        2.9590140    -0.0653000     1.3909990
  O        3.7753660     0.2843820    -1.0654240
  C       -2.1786680     0.7692630     0.5423480
  C       -0.8949230     0.8134730    -0.3165700
  C       -2.7827930    -0.6059770     0.2231310
  C       -1.4501287    -1.4499840     0.0918540
  C        0.3225300     1.1924080     0.5079200
  H       -1.9376650     0.8286140     1.6117160
  H       -1.0169450     1.4955040    -1.1629930
  H       -3.3413290    -1.0227480     1.0706890
  H       -1.7077950    -2.2947630    -0.7028010
  H        0.4416350     0.4968690     1.3430810
  H        0.1975530     2.2044650     0.9092850
  H       -2.8909940     2.6048820     0.5755830
  H       -4.0423210     0.2940670    -0.9260900
  H       -0.0419210    -2.0739930     0.9730340
  H        0.9072950    -1.0817680    -0.8531670
  H        3.8470510     0.3069850     1.5449930
units angstrom
no_reorient  #important for SAPT in psi4, default
symmetry c1  #important for SAPT in psi4, default
}

set PROPERTIES_ORIGIN ["COM"]
properties('MP2/aug-cc-pvtz', properties = ['dipole'])
--------------------------------------------------------------------------

    Molecular point group: c1
  Charge       = 0
  Multiplicity = 1
  Basis Set: AUG-CC-PVTZ
    Blend: AUG-CC-PVTZ
  Basis Set: (AUG-CC-PVTZ AUX)
    Blend: AUG-CC-PVTZ-JKFIT

    Orbital Energies [Eh]
    ---------------------

    Doubly Occupied:

       1A    -80.115600     2A    -20.630523     3A    -20.612637
       4A    -20.604175     5A    -20.601677     6A    -20.599819
       7A    -20.585593     8A    -20.572211     9A    -20.515028
      10A    -11.370054    11A    -11.319651    12A    -11.317800
      13A    -11.309193    14A    -11.305665    15A     -7.630545
      16A     -5.528953    17A     -5.528895    18A     -5.527383
      19A     -1.532242    20A     -1.455829    21A     -1.414024
      22A     -1.392612    23A     -1.380433    24A     -1.374827
      25A     -1.362345    26A     -1.296257    27A     -1.075588
      28A     -1.035571    29A     -0.941667    30A     -0.867881
      31A     -0.841830    32A     -0.830399    33A     -0.791773
      34A     -0.767299    35A     -0.746936    36A     -0.730458
      37A     -0.717728    38A     -0.709123    39A     -0.684161
      40A     -0.682902    41A     -0.665984    42A     -0.653888
      43A     -0.636975    44A     -0.628030    45A     -0.602717
      46A     -0.593099    47A     -0.581201    48A     -0.577425
      49A     -0.566626    50A     -0.552513    51A     -0.545380
      52A     -0.528315    53A     -0.524261    54A     -0.503785
      55A     -0.477932    56A     -0.474562    57A     -0.470916
      58A     -0.466484    59A     -0.445885    60A     -0.442162

  @DF-RHF Final Energy: -1135.77373797588143

   => Energetics <=

    Nuclear Repulsion Energy =           1216.8513730470160681
    One-Electron Energy =               -3986.7593615698410758
    Two-Electron Energy =                1634.1342505469433490
    Total Energy =                      -1135.7737379758814313
  Basis Set: (AUG-CC-PVTZ AUX)
    Blend: AUG-CC-PVTZ-RI
    Molecular point group: c1

    Geometry (in Angstrom), charge = 0, multiplicity = 1:

       Center              X                  Y                   Z               Mass
    ------------   -----------------  -----------------  -----------------  -----------------
         P            2.554556459935     0.052873567169    -0.179257037491    30.973761998420
         O           -0.798467540065    -0.507134432831    -0.865391037491    15.994914619570
         O           -3.204014540065     1.762040567169     0.196280962509    15.994914619570
         O           -3.614323540065    -0.542946432831    -0.945499037491    15.994914619570
         O           -0.983120540065    -1.688028432831     1.161323962509    15.994914619570
         O            1.444391459935     1.232833567169    -0.309854037491    15.994914619570
         O            1.684585459935    -1.289924432831    -0.346177037491    15.994914619570
         O            2.902119459935    -0.055779432831     1.401537962509    15.994914619570
         O            3.718471459935     0.293902567169    -1.054885037491    15.994914619570
         C           -2.235562540065     0.778783567169     0.552886962509    12.000000000000
         C           -0.951817540065     0.822993567169    -0.306031037491    12.000000000000
         C           -2.839687540065    -0.596456432831     0.233669962509    12.000000000000
         C           -1.507023240065    -1.440463432831     0.102392962509    12.000000000000
         C            0.265635459935     1.201928567169     0.518458962509    12.000000000000
         H           -1.994559540065     0.838134567169     1.622254962509     1.007825032230
         H           -1.073839540065     1.505024567169    -1.152454037491     1.007825032230
         H           -3.398223540065    -1.013227432831     1.081227962509     1.007825032230
         H           -1.764689540065    -2.285242432831    -0.692262037491     1.007825032230
         H            0.384740459935     0.506389567169     1.353619962509     1.007825032230
         H            0.140658459935     2.213985567169     0.919823962509     1.007825032230
         H           -2.947888540065     2.614402567169     0.586121962509     1.007825032230
         H           -4.099215540065     0.303587567169    -0.915551037491     1.007825032230
         H           -0.098815540065    -2.064472432831     0.983572962509     1.007825032230
         H            0.850400459935    -1.072247432831    -0.842628037491     1.007825032230
         H            3.790156459935     0.316505567169     1.555531962509     1.007825032230

  Basis Set: AUG-CC-PVTZ
    Blend: AUG-CC-PVTZ
  Basis Set: (AUG-CC-PVTZ AUX)
    Blend: AUG-CC-PVTZ-JKFIT
	 Reference Energy          =   -1135.7737379758814313 [Eh]
	 Singles Energy            =      -0.0000000000000000 [Eh]
	 Same-Spin Energy          =      -0.8184938105149591 [Eh]
	 Opposite-Spin Energy      =      -2.4236010051022943 [Eh]
	 Correlation Energy        =      -3.2420948156172535 [Eh]
	 Total Energy              =   -1139.0158327914987240 [Eh]

	 ================> DF-SCS-MP2 Energies <==================
	-----------------------------------------------------------
	 SCS Same-Spin Scale       =       0.3333333333333333 [-]
	 SCS Opposite-Spin Scale   =       1.2000000000000000 [-]
	 SCS Same-Spin Energy      =      -0.2728312701716530 [Eh]
	 SCS Opposite-Spin Energy  =      -2.9083212061227530 [Eh]
	 SCS Correlation Energy    =      -3.1811524762944061 [Eh]
	 SCS Total Energy          =   -1138.9548904521757322 [Eh]
	-----------------------------------------------------------

  Dipole Moment: [D]
     X:    -3.0774      Y:     1.8271      Z:     4.8826     Total:     6.0538

*** Psi4 exiting successfully. Buy a developer a beer!
