                               Psi4 1.3.2 release

  ==> Input File <==

--------------------------------------------------------------------------
#psi4
#
memory 32 gb

molecule  {
0 1
  P        2.6114510     0.0433530    -0.1897960
  O       -0.7415730    -0.5166550    -0.8759300
  O       -3.1471200     1.7525200     0.1857420
  O       -3.5574290    -0.5524670    -0.9560380
  O       -0.9262260    -1.6975490     1.1507850
  O        1.5012860     1.2233130    -0.3203930
  O        1.7414800    -1.2994450    -0.3567160
  O        2.9590140    -0.0653000     1.3909990
  O        3.7753660     0.2843820    -1.0654240
  C       -2.1582033     0.7707227     0.4928292
  C       -0.8949230     0.8134730    -0.3165700
  C       -2.7827930    -0.6059770     0.2231310
  C       -1.5369320    -1.4089660    -0.0835960
  C        0.3225300     1.1924080     0.5079200
  H       -1.9376650     0.8286140     1.6117160
  H       -1.0169450     1.4955040    -1.1629930
  H       -3.3413290    -1.0227480     1.0706890
  H       -1.7077950    -2.2947630    -0.7028010
  H        0.4416350     0.4968690     1.3430810
  H        0.1975530     2.2044650     0.9092850
  H       -2.8909940     2.6048820     0.5755830
  H       -4.0423210     0.2940670    -0.9260900
  H       -0.0419210    -2.0739930     0.9730340
  H        0.9072950    -1.0817680    -0.8531670
  H        3.8470510     0.3069850     1.5449930
units angstrom
no_reorient  #important for SAPT in psi4, default
symmetry c1  #important for SAPT in psi4, default
}

set PROPERTIES_ORIGIN ["COM"]
properties('MP2/aug-cc-pvtz', properties = ['dipole'])
--------------------------------------------------------------------------

    Molecular point group: c1
  Charge       = 0
  Multiplicity = 1
  Basis Set: AUG-CC-PVTZ
    Blend: AUG-CC-PVTZ
  Basis Set: (AUG-CC-PVTZ AUX)
    Blend: AUG-CC-PVTZ-JKFIT

    Orbital Energies [Eh]
    ---------------------

    Doubly Occupied:

       1A    -80.115415     2A    -20.611527     3A    -20.605918
       4A    -20.605713     5A    -20.604153     6A    -20.598851
       7A    -20.594775     8A    -20.574241     9A    -20.515007
      10A    -11.362270    11A    -11.324338    12A    -11.322458
      13A    -11.317876    14A    -11.307715    15A     -7.630365
      16A     -5.528787    17A     -5.528702    18A     -5.527201
      19A     -1.464243    20A     -1.449063    21A     -1.410846
      22A     -1.391229    23A     -1.378621    24A     -1.373558
      25A     -1.369251    26A     -1.296339    27A     -1.089722
      28A     -1.047278    29A     -0.949002    30A     -0.857832
      31A     -0.840260    32A     -0.832199    33A     -0.772113
      34A     -0.759813    35A     -0.749605    36A     -0.728985
      37A     -0.717333    38A     -0.693602    39A     -0.683732
      40A     -0.666976    41A     -0.653595    42A     -0.648106
      43A     -0.635078    44A     -0.615153    45A     -0.602327
      46A     -0.596941    47A     -0.582384    48A     -0.578448
      49A     -0.567765    50A     -0.560385    51A     -0.543829
      52A     -0.532445    53A     -0.527553    54A     -0.507578
      55A     -0.490110    56A     -0.486357    57A     -0.474947
      58A     -0.469571    59A     -0.467069    60A     -0.454498

  @DF-RHF Final Energy: -1135.81930080029565

   => Energetics <=

    Nuclear Repulsion Energy =           1216.7373445883363274
    One-Electron Energy =               -3986.7311788551555765
    Two-Electron Energy =                1634.1745334665235987
    Total Energy =                      -1135.8193008002956503
  Basis Set: (AUG-CC-PVTZ AUX)
    Blend: AUG-CC-PVTZ-RI
    Molecular point group: c1

    Geometry (in Angstrom), charge = 0, multiplicity = 1:

       Center              X                  Y                   Z               Mass
    ------------   -----------------  -----------------  -----------------  -----------------
         P            2.558017316064     0.050657523895    -0.167520512295    30.973761998420
         O           -0.795006683936    -0.509350476105    -0.853654512295    15.994914619570
         O           -3.200553683936     1.759824523895     0.208017487705    15.994914619570
         O           -3.610862683936    -0.545162476105    -0.933762512295    15.994914619570
         O           -0.979659683936    -1.690244476105     1.173060487705    15.994914619570
         O            1.447852316064     1.230617523895    -0.298117512295    15.994914619570
         O            1.688046316064    -1.292140476105    -0.334440512295    15.994914619570
         O            2.905580316064    -0.057995476105     1.413274487705    15.994914619570
         O            3.721932316064     0.291686523895    -1.043148512295    15.994914619570
         C           -2.211636983936     0.778027223895     0.515104687705    12.000000000000
         C           -0.948356683936     0.820777523895    -0.294294512295    12.000000000000
         C           -2.836226683936    -0.598672476105     0.245406487705    12.000000000000
         C           -1.590365683936    -1.401661476105    -0.061320512295    12.000000000000
         C            0.269096316064     1.199712523895     0.530195487705    12.000000000000
         H           -1.991098683936     0.835918523895     1.633991487705     1.007825032230
         H           -1.070378683936     1.502808523895    -1.140717512295     1.007825032230
         H           -3.394762683936    -1.015443476105     1.092964487705     1.007825032230
         H           -1.761228683936    -2.287458476105    -0.680525512295     1.007825032230
         H            0.388201316064     0.504173523895     1.365356487705     1.007825032230
         H            0.144119316064     2.211769523895     0.931560487705     1.007825032230
         H           -2.944427683936     2.612186523895     0.597858487705     1.007825032230
         H           -4.095754683936     0.301371523895    -0.903814512295     1.007825032230
         H           -0.095354683936    -2.066688476105     0.995309487705     1.007825032230
         H            0.853861316064    -1.074463476105    -0.830891512295     1.007825032230
         H            3.793617316064     0.314289523895     1.567268487705     1.007825032230

  Basis Set: AUG-CC-PVTZ
    Blend: AUG-CC-PVTZ
  Basis Set: (AUG-CC-PVTZ AUX)
    Blend: AUG-CC-PVTZ-JKFIT
	 Reference Energy          =   -1135.8193008002956503 [Eh]
	 Singles Energy            =      -0.0000000000000000 [Eh]
	 Same-Spin Energy          =      -0.8166222103910212 [Eh]
	 Opposite-Spin Energy      =      -2.4222514157729713 [Eh]
	 Correlation Energy        =      -3.2388736261639925 [Eh]
	 Total Energy              =   -1139.0581744264595727 [Eh]

	 ================> DF-SCS-MP2 Energies <==================
	-----------------------------------------------------------
	 SCS Same-Spin Scale       =       0.3333333333333333 [-]
	 SCS Opposite-Spin Scale   =       1.2000000000000000 [-]
	 SCS Same-Spin Energy      =      -0.2722074034636737 [Eh]
	 SCS Opposite-Spin Energy  =      -2.9067016989275656 [Eh]
	 SCS Correlation Energy    =      -3.1789091023912395 [Eh]
	 SCS Total Energy          =   -1138.9982099026869946 [Eh]
	-----------------------------------------------------------

  Dipole Moment: [D]
     X:    -3.4309      Y:     2.2771      Z:     3.9741     Total:     5.7227

*** Psi4 exiting successfully. Buy a developer a beer!
