                               Psi4 1.3.2 release

  ==> Input File <==

--------------------------------------------------------------------------
#psi4
#
memory 32 gb

molecule  {
0 1
  P        2.6114510     0.0433530    -0.1897960
  O       -0.7415730    -0.5166550    -0.8759300
  O       -3.1471200     1.7525200     0.1857420
  O       -3.5909283    -0.5256677    -0.9317852
  O       -0.9262260    -1.6975490     1.1507850
  O        1.5012860     1.2233130    -0.3203930
  O        1.7414800    -1.2994450    -0.3567160
  O        2.9590140    -0.0653000     1.3909990
  O        3.7753660     0.2843820    -1.0654240
  C       -2.1786680     0.7692630     0.5423480
  C       -0.8949230     0.8134730    -0.3165700
  C       -2.7827930    -0.6059770     0.2231310
  C       -1.5369320    -1.4089660    -0.0835960
  C        0.3225300     1.1924080     0.5079200
  H       -1.9376650     0.8286140     1.6117160
  H       -1.0169450     1.4955040    -1.1629930
  H       -3.3413290    -1.0227480     1.0706890
  H       -1.7077950    -2.2947630    -0.7028010
  H        0.4416350     0.4968690     1.3430810
  H        0.1975530     2.2044650     0.9092850
  H       -2.8909940     2.6048820     0.5755830
  H       -4.0423210     0.2940670    -0.9260900
  H       -0.0419210    -2.0739930     0.9730340
  H        0.9072950    -1.0817680    -0.8531670
  H        3.8470510     0.3069850     1.5449930
units angstrom
no_reorient  #important for SAPT in psi4, default
symmetry c1  #important for SAPT in psi4, default
}

set PROPERTIES_ORIGIN ["COM"]
properties('MP2/aug-cc-pvtz', properties = ['dipole'])
--------------------------------------------------------------------------

    Molecular point group: c1
  Charge       = 0
  Multiplicity = 1
  Basis Set: AUG-CC-PVTZ
    Blend: AUG-CC-PVTZ
  Basis Set: (AUG-CC-PVTZ AUX)
    Blend: AUG-CC-PVTZ-JKFIT

    Orbital Energies [Eh]
    ---------------------

    Doubly Occupied:

       1A    -80.115197     2A    -20.611410     3A    -20.605476
       4A    -20.605304     5A    -20.604240     6A    -20.598830
       7A    -20.596003     8A    -20.570072     9A    -20.514823
      10A    -11.363690    11A    -11.323040    12A    -11.321455
      13A    -11.318421    14A    -11.308182    15A     -7.630149
      16A     -5.528568    17A     -5.528487    18A     -5.526986
      19A     -1.463736    20A     -1.448801    21A     -1.412691
      22A     -1.390965    23A     -1.378582    24A     -1.377368
      25A     -1.370683    26A     -1.296161    27A     -1.084768
      28A     -1.049279    29A     -0.947127    30A     -0.857930
      31A     -0.843801    32A     -0.830985    33A     -0.772806
      34A     -0.762843    35A     -0.747716    36A     -0.734283
      37A     -0.717079    38A     -0.693266    39A     -0.685389
      40A     -0.671481    41A     -0.653650    42A     -0.648439
      43A     -0.632870    44A     -0.614738    45A     -0.600973
      46A     -0.596801    47A     -0.582361    48A     -0.578215
      49A     -0.569922    50A     -0.560977    51A     -0.543661
      52A     -0.532818    53A     -0.527786    54A     -0.511234
      55A     -0.490872    56A     -0.488313    57A     -0.475284
      58A     -0.469137    59A     -0.465669    60A     -0.451015

  @DF-RHF Final Energy: -1135.82384923943596

   => Energetics <=

    Nuclear Repulsion Energy =           1215.7645149257828052
    One-Electron Energy =               -3984.7711086294316374
    Two-Electron Energy =                1633.1827444642128739
    Total Energy =                      -1135.8238492394359582
  Basis Set: (AUG-CC-PVTZ AUX)
    Blend: AUG-CC-PVTZ-RI
    Molecular point group: c1

    Geometry (in Angstrom), charge = 0, multiplicity = 1:

       Center              X                  Y                   Z               Mass
    ------------   -----------------  -----------------  -----------------  -----------------
         P            2.561414402040     0.048870124421    -0.171790361336    30.973761998420
         O           -0.791609597960    -0.511137875579    -0.857924361336    15.994914619570
         O           -3.197156597960     1.758037124421     0.203747638664    15.994914619570
         O           -3.640964897960    -0.520150575579    -0.913779561336    15.994914619570
         O           -0.976262597960    -1.692031875579     1.168790638664    15.994914619570
         O            1.451249402040     1.228830124421    -0.302387361336    15.994914619570
         O            1.691443402040    -1.293927875579    -0.338710361336    15.994914619570
         O            2.908977402040    -0.059782875579     1.409004638664    15.994914619570
         O            3.725329402040     0.289899124421    -1.047418361336    15.994914619570
         C           -2.228704597960     0.774780124421     0.560353638664    12.000000000000
         C           -0.944959597960     0.818990124421    -0.298564361336    12.000000000000
         C           -2.832829597960    -0.600459875579     0.241136638664    12.000000000000
         C           -1.586968597960    -1.403448875579    -0.065590361336    12.000000000000
         C            0.272493402040     1.197925124421     0.525925638664    12.000000000000
         H           -1.987701597960     0.834131124421     1.629721638664     1.007825032230
         H           -1.066981597960     1.501021124421    -1.144987361336     1.007825032230
         H           -3.391365597960    -1.017230875579     1.088694638664     1.007825032230
         H           -1.757831597960    -2.289245875579    -0.684795361336     1.007825032230
         H            0.391598402040     0.502386124421     1.361086638664     1.007825032230
         H            0.147516402040     2.209982124421     0.927290638664     1.007825032230
         H           -2.941030597960     2.610399124421     0.593588638664     1.007825032230
         H           -4.092357597960     0.299584124421    -0.908084361336     1.007825032230
         H           -0.091957597960    -2.068475875579     0.991039638664     1.007825032230
         H            0.857258402040    -1.076250875579    -0.835161361336     1.007825032230
         H            3.797014402040     0.312502124421     1.562998638664     1.007825032230

  Basis Set: AUG-CC-PVTZ
    Blend: AUG-CC-PVTZ
  Basis Set: (AUG-CC-PVTZ AUX)
    Blend: AUG-CC-PVTZ-JKFIT
	 Reference Energy          =   -1135.8238492394359582 [Eh]
	 Singles Energy            =      -0.0000000000000000 [Eh]
	 Same-Spin Energy          =      -0.8156024475869925 [Eh]
	 Opposite-Spin Energy      =      -2.4203356472382680 [Eh]
	 Correlation Energy        =      -3.2359380948252605 [Eh]
	 Total Energy              =   -1139.0597873342612729 [Eh]

	 ================> DF-SCS-MP2 Energies <==================
	-----------------------------------------------------------
	 SCS Same-Spin Scale       =       0.3333333333333333 [-]
	 SCS Opposite-Spin Scale   =       1.2000000000000000 [-]
	 SCS Same-Spin Energy      =      -0.2718674825289975 [Eh]
	 SCS Opposite-Spin Energy  =      -2.9044027766859215 [Eh]
	 SCS Correlation Energy    =      -3.1762702592149190 [Eh]
	 SCS Total Energy          =   -1139.0001194986509745 [Eh]
	-----------------------------------------------------------

  Dipole Moment: [D]
     X:    -3.3980      Y:     2.2558      Z:     4.0100     Total:     5.7197

*** Psi4 exiting successfully. Buy a developer a beer!
