                               Psi4 1.3.2 release

  ==> Input File <==

--------------------------------------------------------------------------
#psi4
#
memory 32 gb

molecule  {
0 1
  P        2.6114510     0.0433530    -0.1897960
  O       -0.7415730    -0.5166550    -0.8759300
  O       -3.1471200     1.7525200     0.1857420
  O       -3.5574290    -0.5524670    -0.9560380
  O       -0.9262260    -1.6975490     1.1507850
  O        1.5012860     1.2233130    -0.3203930
  O        1.7414800    -1.2994450    -0.3567160
  O        2.9590140    -0.0653000     1.3909990
  O        3.7753660     0.2843820    -1.0654240
  C       -2.1786680     0.7692630     0.5423480
  C       -0.8949230     0.8134730    -0.3165700
  C       -2.7342683    -0.7373792     0.1760299
  C       -1.5369320    -1.4089660    -0.0835960
  C        0.3225300     1.1924080     0.5079200
  H       -1.9376650     0.8286140     1.6117160
  H       -1.0169450     1.4955040    -1.1629930
  H       -3.3413290    -1.0227480     1.0706890
  H       -1.7077950    -2.2947630    -0.7028010
  H        0.4416350     0.4968690     1.3430810
  H        0.1975530     2.2044650     0.9092850
  H       -2.8909940     2.6048820     0.5755830
  H       -4.0423210     0.2940670    -0.9260900
  H       -0.0419210    -2.0739930     0.9730340
  H        0.9072950    -1.0817680    -0.8531670
  H        3.8470510     0.3069850     1.5449930
units angstrom
no_reorient  #important for SAPT in psi4, default
symmetry c1  #important for SAPT in psi4, default
}

set PROPERTIES_ORIGIN ["COM"]
properties('MP2/aug-cc-pvtz', properties = ['dipole'])
--------------------------------------------------------------------------

    Molecular point group: c1
  Charge       = 0
  Multiplicity = 1
  Basis Set: AUG-CC-PVTZ
    Blend: AUG-CC-PVTZ
  Basis Set: (AUG-CC-PVTZ AUX)
    Blend: AUG-CC-PVTZ-JKFIT

    Orbital Energies [Eh]
    ---------------------

    Doubly Occupied:

       1A    -80.114718     2A    -20.611022     3A    -20.606058
       4A    -20.604733     5A    -20.604289     6A    -20.598631
       7A    -20.598077     8A    -20.572792     9A    -20.514401
      10A    -11.360061    11A    -11.324684    12A    -11.320192
      13A    -11.316278    14A    -11.312339    15A     -7.629671
      16A     -5.528087    17A     -5.528012    18A     -5.526511
      19A     -1.465588    20A     -1.449676    21A     -1.408158
      22A     -1.390492    23A     -1.378228    24A     -1.374513
      25A     -1.368578    26A     -1.295749    27A     -1.077362
      28A     -1.063724    29A     -0.949680    30A     -0.855227
      31A     -0.844017    32A     -0.825030    33A     -0.775039
      34A     -0.763648    35A     -0.748602    36A     -0.731929
      37A     -0.716366    38A     -0.693198    39A     -0.684101
      40A     -0.670196    41A     -0.654330    42A     -0.649797
      43A     -0.637597    44A     -0.610227    45A     -0.601415
      46A     -0.596139    47A     -0.583328    48A     -0.578657
      49A     -0.567711    50A     -0.561418    51A     -0.543496
      52A     -0.533425    53A     -0.528520    54A     -0.508043
      55A     -0.492126    56A     -0.484523    57A     -0.476585
      58A     -0.469632    59A     -0.463711    60A     -0.435599

  @DF-RHF Final Energy: -1135.80122544172536

   => Energetics <=

    Nuclear Repulsion Energy =           1216.1192807286440711
    One-Electron Energy =               -3985.4891367994873690
    Two-Electron Energy =                1633.5686306291181609
    Total Energy =                      -1135.8012254417253644
  Basis Set: (AUG-CC-PVTZ AUX)
    Blend: AUG-CC-PVTZ-RI
    Molecular point group: c1

    Geometry (in Angstrom), charge = 0, multiplicity = 1:

       Center              X                  Y                   Z               Mass
    ------------   -----------------  -----------------  -----------------  -----------------
         P            2.556553437975     0.057588871872    -0.167646642661    30.973761998420
         O           -0.796470562025    -0.502419128128    -0.853780642661    15.994914619570
         O           -3.202017562025     1.766755871872     0.207891357339    15.994914619570
         O           -3.612326562025    -0.538231128128    -0.933888642661    15.994914619570
         O           -0.981123562025    -1.683313128128     1.172934357339    15.994914619570
         O            1.446388437975     1.237548871872    -0.298243642661    15.994914619570
         O            1.686582437975    -1.285209128128    -0.334566642661    15.994914619570
         O            2.904116437975    -0.051064128128     1.413148357339    15.994914619570
         O            3.720468437975     0.298617871872    -1.043274642661    15.994914619570
         C           -2.233565562025     0.783498871872     0.564497357339    12.000000000000
         C           -0.949820562025     0.827708871872    -0.294420642661    12.000000000000
         C           -2.789165862025    -0.723143328128     0.198179257339    12.000000000000
         C           -1.591829562025    -1.394730128128    -0.061446642661    12.000000000000
         C            0.267632437975     1.206643871872     0.530069357339    12.000000000000
         H           -1.992562562025     0.842849871872     1.633865357339     1.007825032230
         H           -1.071842562025     1.509739871872    -1.140843642661     1.007825032230
         H           -3.396226562025    -1.008512128128     1.092838357339     1.007825032230
         H           -1.762692562025    -2.280527128128    -0.680651642661     1.007825032230
         H            0.386737437975     0.511104871872     1.365230357339     1.007825032230
         H            0.142655437975     2.218700871872     0.931434357339     1.007825032230
         H           -2.945891562025     2.619117871872     0.597732357339     1.007825032230
         H           -4.097218562025     0.308302871872    -0.903940642661     1.007825032230
         H           -0.096818562025    -2.059757128128     0.995183357339     1.007825032230
         H            0.852397437975    -1.067532128128    -0.831017642661     1.007825032230
         H            3.792153437975     0.321220871872     1.567142357339     1.007825032230

  Basis Set: AUG-CC-PVTZ
    Blend: AUG-CC-PVTZ
  Basis Set: (AUG-CC-PVTZ AUX)
    Blend: AUG-CC-PVTZ-JKFIT
	 Reference Energy          =   -1135.8012254417253644 [Eh]
	 Singles Energy            =      -0.0000000000000000 [Eh]
	 Same-Spin Energy          =      -0.8173422656790684 [Eh]
	 Opposite-Spin Energy      =      -2.4230836095015680 [Eh]
	 Correlation Energy        =      -3.2404258751806365 [Eh]
	 Total Energy              =   -1139.0416513169059272 [Eh]

	 ================> DF-SCS-MP2 Energies <==================
	-----------------------------------------------------------
	 SCS Same-Spin Scale       =       0.3333333333333333 [-]
	 SCS Opposite-Spin Scale   =       1.2000000000000000 [-]
	 SCS Same-Spin Energy      =      -0.2724474218930228 [Eh]
	 SCS Opposite-Spin Energy  =      -2.9077003314018817 [Eh]
	 SCS Correlation Energy    =      -3.1801477532949045 [Eh]
	 SCS Total Energy          =   -1138.9813731950202964 [Eh]
	-----------------------------------------------------------

  Dipole Moment: [D]
     X:    -3.5265      Y:     2.2193      Z:     4.0403     Total:     5.8040

*** Psi4 exiting successfully. Buy a developer a beer!
