                               Psi4 1.3.2 release

  ==> Input File <==

--------------------------------------------------------------------------
#psi4
#
memory 32 gb

molecule  {
0 1
  P        2.6114510     0.0433530    -0.1897960
  O       -0.7415730    -0.5166550    -0.8759300
  O       -3.1471200     1.7525200     0.1857420
  O       -3.5574290    -0.5524670    -0.9560380
  O       -0.9262260    -1.6975490     1.1507850
  O        1.5012860     1.2233130    -0.3203930
  O        1.7414800    -1.2994450    -0.3567160
  O        2.9590140    -0.0653000     1.3909990
  O        3.7753660     0.2843820    -1.0654240
  C       -2.1786680     0.7692630     0.5423480
  C       -0.8949230     0.8134730    -0.3165700
  C       -2.7827930    -0.6059770     0.2231310
  C       -1.5369320    -1.4089660    -0.0835960
  C        0.3390769     1.2721060     0.4400457
  H       -1.9376650     0.8286140     1.6117160
  H       -1.0169450     1.4955040    -1.1629930
  H       -3.3413290    -1.0227480     1.0706890
  H       -1.7077950    -2.2947630    -0.7028010
  H        0.4416350     0.4968690     1.3430810
  H        0.1975530     2.2044650     0.9092850
  H       -2.8909940     2.6048820     0.5755830
  H       -4.0423210     0.2940670    -0.9260900
  H       -0.0419210    -2.0739930     0.9730340
  H        0.9072950    -1.0817680    -0.8531670
  H        3.8470510     0.3069850     1.5449930
units angstrom
no_reorient  #important for SAPT in psi4, default
symmetry c1  #important for SAPT in psi4, default
}

set PROPERTIES_ORIGIN ["COM"]
properties('MP2/aug-cc-pvtz', properties = ['dipole'])
--------------------------------------------------------------------------

    Molecular point group: c1
  Charge       = 0
  Multiplicity = 1
  Basis Set: AUG-CC-PVTZ
    Blend: AUG-CC-PVTZ
  Basis Set: (AUG-CC-PVTZ AUX)
    Blend: AUG-CC-PVTZ-JKFIT

    Orbital Energies [Eh]
    ---------------------

    Doubly Occupied:

       1A    -80.119182     2A    -20.612312     3A    -20.607862
       4A    -20.605367     5A    -20.603923     6A    -20.599732
       7A    -20.593329     8A    -20.574046     9A    -20.517521
      10A    -11.361620    11A    -11.322939    12A    -11.322832
      13A    -11.316569    14A    -11.306584    15A     -7.633822
      16A     -5.532361    17A     -5.532151    18A     -5.530615
      19A     -1.466511    20A     -1.450412    21A     -1.410546
      22A     -1.400084    23A     -1.380604    24A     -1.372743
      25A     -1.367988    26A     -1.298948    27A     -1.081924
      28A     -1.046262    29A     -0.948442    30A     -0.861628
      31A     -0.839679    32A     -0.826340    33A     -0.772875
      34A     -0.761119    35A     -0.749322    36A     -0.731935
      37A     -0.718724    38A     -0.704956    39A     -0.683190
      40A     -0.665498    41A     -0.658057    42A     -0.647735
      43A     -0.633747    44A     -0.615591    45A     -0.599215
      46A     -0.597564    47A     -0.585277    48A     -0.575010
      49A     -0.568318    50A     -0.559561    51A     -0.544648
      52A     -0.531066    53A     -0.521855    54A     -0.502315
      55A     -0.490869    56A     -0.485636    57A     -0.475537
      58A     -0.470221    59A     -0.461616    60A     -0.450241

  @DF-RHF Final Energy: -1135.81244108631472

   => Energetics <=

    Nuclear Repulsion Energy =           1215.5372833640901717
    One-Electron Energy =               -3984.2863029656250546
    Two-Electron Energy =                1632.9365785152203898
    Total Energy =                      -1135.8124410863147205
  Basis Set: (AUG-CC-PVTZ AUX)
    Blend: AUG-CC-PVTZ-RI
    Molecular point group: c1

    Geometry (in Angstrom), charge = 0, multiplicity = 1:

       Center              X                  Y                   Z               Mass
    ------------   -----------------  -----------------  -----------------  -----------------
         P            2.558221705999     0.046575865553    -0.166562913783    30.973761998420
         O           -0.794802294001    -0.513432134447    -0.852696913783    15.994914619570
         O           -3.200349294001     1.755742865553     0.208975086217    15.994914619570
         O           -3.610658294001    -0.549244134447    -0.932804913783    15.994914619570
         O           -0.979455294001    -1.694326134447     1.174018086217    15.994914619570
         O            1.448056705999     1.226535865553    -0.297159913783    15.994914619570
         O            1.688250705999    -1.296222134447    -0.333482913783    15.994914619570
         O            2.905784705999    -0.062077134447     1.414232086217    15.994914619570
         O            3.722136705999     0.287604865553    -1.042190913783    15.994914619570
         C           -2.231897294001     0.772485865553     0.565581086217    12.000000000000
         C           -0.948152294001     0.816695865553    -0.293336913783    12.000000000000
         C           -2.836022294001    -0.602754134447     0.246364086217    12.000000000000
         C           -1.590161294001    -1.405743134447    -0.060362913783    12.000000000000
         C            0.285847605999     1.275328865553     0.463278786217    12.000000000000
         H           -1.990894294001     0.831836865553     1.634949086217     1.007825032230
         H           -1.070174294001     1.498726865553    -1.139759913783     1.007825032230
         H           -3.394558294001    -1.019525134447     1.093922086217     1.007825032230
         H           -1.761024294001    -2.291540134447    -0.679567913783     1.007825032230
         H            0.388405705999     0.500091865553     1.366314086217     1.007825032230
         H            0.144323705999     2.207687865553     0.932518086217     1.007825032230
         H           -2.944223294001     2.608104865553     0.598816086217     1.007825032230
         H           -4.095550294001     0.297289865553    -0.902856913783     1.007825032230
         H           -0.095150294001    -2.070770134447     0.996267086217     1.007825032230
         H            0.854065705999    -1.078545134447    -0.829933913783     1.007825032230
         H            3.793821705999     0.310207865553     1.568226086217     1.007825032230

  Basis Set: AUG-CC-PVTZ
    Blend: AUG-CC-PVTZ
  Basis Set: (AUG-CC-PVTZ AUX)
    Blend: AUG-CC-PVTZ-JKFIT
	 Reference Energy          =   -1135.8124410863147205 [Eh]
	 Singles Energy            =      -0.0000000000000000 [Eh]
	 Same-Spin Energy          =      -0.8164264967219164 [Eh]
	 Opposite-Spin Energy      =      -2.4216139790709521 [Eh]
	 Correlation Energy        =      -3.2380404757928685 [Eh]
	 Total Energy              =   -1139.0504815621075068 [Eh]

	 ================> DF-SCS-MP2 Energies <==================
	-----------------------------------------------------------
	 SCS Same-Spin Scale       =       0.3333333333333333 [-]
	 SCS Opposite-Spin Scale   =       1.2000000000000000 [-]
	 SCS Same-Spin Energy      =      -0.2721421655739721 [Eh]
	 SCS Opposite-Spin Energy  =      -2.9059367748851423 [Eh]
	 SCS Correlation Energy    =      -3.1780789404591143 [Eh]
	 SCS Total Energy          =   -1138.9905200267737655 [Eh]
	-----------------------------------------------------------

  Dipole Moment: [D]
     X:    -3.2856      Y:     2.3426      Z:     3.9259     Total:     5.6299

*** Psi4 exiting successfully. Buy a developer a beer!
