                               Psi4 1.4a3.dev225

  ==> Input File <==

--------------------------------------------------------------------------
#psi4
#
memory 32 gb

molecule  {
0 1
  P        2.6113660     0.0433910    -0.1897900
  O       -0.7416560    -0.5164190    -0.8762010
  O       -3.1473860     1.7523070     0.1855430
  O       -3.5574330    -0.5529450    -0.9556820
  O       -0.9255690    -1.6972900     1.1506350
  O        1.5012550     1.2233910    -0.3202530
  O        1.7411940    -1.2993510    -0.3564950
  O        2.9591660    -0.0655390     1.3909200
  O        3.7751240     0.2843830    -1.0656400
  C       -2.1787050     0.7693270     0.5422590
  C       -0.8949630     0.8136090    -0.3166340
  C       -2.7825860    -0.6061320     0.2233240
  C       -1.5366410    -1.4089160    -0.0835620
  C        0.3625288     1.2048938     0.5351656
  H       -1.9377070     0.8289040     1.6116220
  H       -1.0168440     1.4957790    -1.1629650
  H       -3.3408870    -1.0228010     1.0710960
  H       -1.7074320    -2.2947510    -0.7027390
  H        0.4414920     0.4968360     1.3431340
  H        0.1974400     2.2044510     0.9094280
  H       -2.8916000     2.6047160     0.5754970
  H       -4.0429610     0.2932130    -0.9254450
  H       -0.0410590    -2.0731950     0.9726900
  H        0.9073710    -1.0816890    -0.8535130
  H        3.8468470     0.3075270     1.5450430
units angstrom
no_reorient  #important for SAPT in psi4, default
symmetry c1  #important for SAPT in psi4, default
}

set PROPERTIES_ORIGIN ["COM"]
properties('MP2/aug-cc-pvtz', properties = ['dipole'])
--------------------------------------------------------------------------

    Molecular point group: c1
  Charge       = 0
  Multiplicity = 1
  Basis Set: AUG-CC-PVTZ
    Blend: AUG-CC-PVTZ
  Basis Set: (AUG-CC-PVTZ AUX)
    Blend: AUG-CC-PVTZ-JKFIT

    Orbital Energies [Eh]
    ---------------------

    Doubly Occupied:

       1A    -80.116189     2A    -20.612188     3A    -20.607485
       4A    -20.605203     5A    -20.602872     6A    -20.599310
       7A    -20.594608     8A    -20.574093     9A    -20.515499
      10A    -11.361566    11A    -11.321684    12A    -11.319894
      13A    -11.318370    14A    -11.306307    15A     -7.631178
      16A     -5.529608    17A     -5.529490    18A     -5.528014
      19A     -1.463926    20A     -1.449301    21A     -1.410481
      22A     -1.394207    23A     -1.379778    24A     -1.372965
      25A     -1.367959    26A     -1.297013    27A     -1.078428
      28A     -1.042761    29A     -0.948182    30A     -0.857478
      31A     -0.841780    32A     -0.829218    33A     -0.771894
      34A     -0.759312    35A     -0.746579    36A     -0.734490
      37A     -0.718044    38A     -0.694863    39A     -0.683211
      40A     -0.667243    41A     -0.655048    42A     -0.647866
      43A     -0.632425    44A     -0.613568    45A     -0.600027
      46A     -0.595775    47A     -0.583486    48A     -0.578067
      49A     -0.569330    50A     -0.559251    51A     -0.545248
      52A     -0.534045    53A     -0.527387    54A     -0.512535
      55A     -0.490127    56A     -0.486453    57A     -0.474923
      58A     -0.469481    59A     -0.465346    60A     -0.444790

  @DF-RHF Final Energy: -1135.82106870798498

   => Energetics <=

    Nuclear Repulsion Energy =           1215.4301688084308353
    One-Electron Energy =               -3984.1667756383876622
    Two-Electron Energy =                1632.9155381219720766
    Total Energy =                      -1135.8210687079849777
  Basis Set: (AUG-CC-PVTZ AUX)
    Blend: AUG-CC-PVTZ-RI
    Molecular point group: c1

    Geometry (in Angstrom), charge = 0, multiplicity = 1:

       Center              X                  Y                   Z               Mass
    ------------   -----------------  -----------------  -----------------  -----------------
         P            2.556909454703     0.050124604527    -0.171512447622    30.973761998420
         O           -0.796112545297    -0.509685395473    -0.857923447622    15.994914619570
         O           -3.201842545297     1.759040604527     0.203820552378    15.994914619570
         O           -3.611889545297    -0.546211395473    -0.937404447622    15.994914619570
         O           -0.980025545297    -1.690556395473     1.168912552378    15.994914619570
         O            1.446798454703     1.230124604527    -0.301975447622    15.994914619570
         O            1.686737454703    -1.292617395473    -0.338217447622    15.994914619570
         O            2.904709454703    -0.058805395473     1.409197552378    15.994914619570
         O            3.720667454703     0.291116604527    -1.047362447622    15.994914619570
         C           -2.233161545297     0.776060604527     0.560536552378    12.000000000000
         C           -0.949419545297     0.820342604527    -0.298356447622    12.000000000000
         C           -2.837042545297    -0.599398395473     0.241601552378    12.000000000000
         C           -1.591097545297    -1.402182395473    -0.065284447622    12.000000000000
         C            0.308072254703     1.211627404527     0.553443152378    12.000000000000
         H           -1.992163545297     0.835637604527     1.629899552378     1.007825032230
         H           -1.071300545297     1.502512604527    -1.144687447622     1.007825032230
         H           -3.395343545297    -1.016067395473     1.089373552378     1.007825032230
         H           -1.761888545297    -2.288017395473    -0.684461447622     1.007825032230
         H            0.387035454703     0.503569604527     1.361411552378     1.007825032230
         H            0.142983454703     2.211184604527     0.927705552378     1.007825032230
         H           -2.946056545297     2.611449604527     0.593774552378     1.007825032230
         H           -4.097417545297     0.299946604527    -0.907167447622     1.007825032230
         H           -0.095515545297    -2.066461395473     0.990967552378     1.007825032230
         H            0.852914454703    -1.074955395473    -0.835235447622     1.007825032230
         H            3.792390454703     0.314260604527     1.563320552378     1.007825032230

  Basis Set: AUG-CC-PVTZ
    Blend: AUG-CC-PVTZ
  Basis Set: (AUG-CC-PVTZ AUX)
    Blend: AUG-CC-PVTZ-JKFIT
	 Reference Energy          =   -1135.8210687079849777 [Eh]
	 Singles Energy            =      -0.0000000000000000 [Eh]
	 Same-Spin Energy          =      -0.8160531612889690 [Eh]
	 Opposite-Spin Energy      =      -2.4216551921806011 [Eh]
	 Correlation Energy        =      -3.2377083534695701 [Eh]
	 Total Energy              =   -1139.0587770614545207 [Eh]

	 ================> DF-SCS-MP2 Energies <==================
	-----------------------------------------------------------
	 SCS Same-Spin Scale       =       0.3333333333333333 [-]
	 SCS Opposite-Spin Scale   =       1.2000000000000000 [-]
	 SCS Same-Spin Energy      =      -0.2720177204296563 [Eh]
	 SCS Opposite-Spin Energy  =      -2.9059862306167212 [Eh]
	 SCS Correlation Energy    =      -3.1780039510463776 [Eh]
	 SCS Total Energy          =   -1138.9990726590312988 [Eh]
	-----------------------------------------------------------

  Dipole Moment: [D]
     X:    -3.3617      Y:     2.3025      Z:     4.0273     Total:     5.7290

*** Psi4 exiting successfully. Buy a developer a beer!
