                               Psi4 1.3.2 release

  ==> Input File <==

--------------------------------------------------------------------------
#psi4
#
memory 32 gb

molecule  {
0 1
  P        2.6114510     0.0433530    -0.1897960
  O       -0.7415730    -0.5166550    -0.8759300
  O       -3.1471200     1.7525200     0.1857420
  O       -3.5403228    -0.5658932    -0.9676274
  O       -0.9262260    -1.6975490     1.1507850
  O        1.5012860     1.2233130    -0.3203930
  O        1.7414800    -1.2994450    -0.3567160
  O        2.9590140    -0.0653000     1.3909990
  O        3.7753660     0.2843820    -1.0654240
  C       -2.1786680     0.7692630     0.5423480
  C       -0.8949230     0.8134730    -0.3165700
  C       -2.7827930    -0.6059770     0.2231310
  C       -1.5369320    -1.4089660    -0.0835960
  C        0.3225300     1.1924080     0.5079200
  H       -1.9376650     0.8286140     1.6117160
  H       -1.0169450     1.4955040    -1.1629930
  H       -3.3413290    -1.0227480     1.0706890
  H       -1.7077950    -2.2947630    -0.7028010
  H        0.4416350     0.4968690     1.3430810
  H        0.1975530     2.2044650     0.9092850
  H       -2.8909940     2.6048820     0.5755830
  H       -4.0423210     0.2940670    -0.9260900
  H       -0.0419210    -2.0739930     0.9730340
  H        0.9072950    -1.0817680    -0.8531670
  H        3.8470510     0.3069850     1.5449930
units angstrom
no_reorient  #important for SAPT in psi4, default
symmetry c1  #important for SAPT in psi4, default
}

set PROPERTIES_ORIGIN ["COM"]
properties('MP2/aug-cc-pvtz', properties = ['dipole'])
--------------------------------------------------------------------------

    Molecular point group: c1
  Charge       = 0
  Multiplicity = 1
  Basis Set: AUG-CC-PVTZ
    Blend: AUG-CC-PVTZ
  Basis Set: (AUG-CC-PVTZ AUX)
    Blend: AUG-CC-PVTZ-JKFIT

    Orbital Energies [Eh]
    ---------------------

    Doubly Occupied:

       1A    -80.114843     2A    -20.611101     3A    -20.606609
       4A    -20.605007     5A    -20.603124     6A    -20.598293
       7A    -20.594226     8A    -20.577110     9A    -20.514509
      10A    -11.361480    11A    -11.323454    12A    -11.321187
      13A    -11.318118    14A    -11.306840    15A     -7.629793
      16A     -5.528214    17A     -5.528131    18A     -5.526631
      19A     -1.462907    20A     -1.448029    21A     -1.411021
      22A     -1.390549    23A     -1.378039    24A     -1.372340
      25A     -1.367093    26A     -1.295844    27A     -1.083981
      28A     -1.045838    29A     -0.946534    30A     -0.857829
      31A     -0.841165    32A     -0.828468    33A     -0.771643
      34A     -0.757792    35A     -0.747604    36A     -0.734159
      37A     -0.716682    38A     -0.692552    39A     -0.683936
      40A     -0.664984    41A     -0.652794    42A     -0.647240
      43A     -0.632949    44A     -0.613188    45A     -0.600991
      46A     -0.595848    47A     -0.581898    48A     -0.577118
      49A     -0.569651    50A     -0.559675    51A     -0.543269
      52A     -0.531911    53A     -0.526635    54A     -0.512178
      55A     -0.490265    56A     -0.487685    57A     -0.475012
      58A     -0.469290    59A     -0.465813    60A     -0.450253

  @DF-RHF Final Energy: -1135.82068619090387

   => Energetics <=

    Nuclear Repulsion Energy =           1216.0156120428857776
    One-Electron Energy =               -3985.3699576773960871
    Two-Electron Energy =                1633.5336594436066662
    Total Energy =                      -1135.8206861909038707
  Basis Set: (AUG-CC-PVTZ AUX)
    Blend: AUG-CC-PVTZ-RI
    Molecular point group: c1

    Geometry (in Angstrom), charge = 0, multiplicity = 1:

       Center              X                  Y                   Z               Mass
    ------------   -----------------  -----------------  -----------------  -----------------
         P            2.557895431395     0.051667297726    -0.169297990948    30.973761998420
         O           -0.795128568605    -0.508340702274    -0.855431990948    15.994914619570
         O           -3.200675568605     1.760834297726     0.206240009052    15.994914619570
         O           -3.593878368605    -0.557578902274    -0.947129390948    15.994914619570
         O           -0.979781568605    -1.689234702274     1.171283009052    15.994914619570
         O            1.447730431395     1.231627297726    -0.299894990948    15.994914619570
         O            1.687924431395    -1.291130702274    -0.336217990948    15.994914619570
         O            2.905458431395    -0.056985702274     1.411497009052    15.994914619570
         O            3.721810431395     0.292696297726    -1.044925990948    15.994914619570
         C           -2.232223568605     0.777577297726     0.562846009052    12.000000000000
         C           -0.948478568605     0.821787297726    -0.296071990948    12.000000000000
         C           -2.836348568605    -0.597662702274     0.243629009052    12.000000000000
         C           -1.590487568605    -1.400651702274    -0.063097990948    12.000000000000
         C            0.268974431395     1.200722297726     0.528418009052    12.000000000000
         H           -1.991220568605     0.836928297726     1.632214009052     1.007825032230
         H           -1.070500568605     1.503818297726    -1.142494990948     1.007825032230
         H           -3.394884568605    -1.014433702274     1.091187009052     1.007825032230
         H           -1.761350568605    -2.286448702274    -0.682302990948     1.007825032230
         H            0.388079431395     0.505183297726     1.363579009052     1.007825032230
         H            0.143997431395     2.212779297726     0.929783009052     1.007825032230
         H           -2.944549568605     2.613196297726     0.596081009052     1.007825032230
         H           -4.095876568605     0.302381297726    -0.905591990948     1.007825032230
         H           -0.095476568605    -2.065678702274     0.993532009052     1.007825032230
         H            0.853739431395    -1.073453702274    -0.832668990948     1.007825032230
         H            3.793495431395     0.315299297726     1.565491009052     1.007825032230

  Basis Set: AUG-CC-PVTZ
    Blend: AUG-CC-PVTZ
  Basis Set: (AUG-CC-PVTZ AUX)
    Blend: AUG-CC-PVTZ-JKFIT
	 Reference Energy          =   -1135.8206861909038707 [Eh]
	 Singles Energy            =      -0.0000000000000000 [Eh]
	 Same-Spin Energy          =      -0.8166210213057413 [Eh]
	 Opposite-Spin Energy      =      -2.4226432398871358 [Eh]
	 Correlation Energy        =      -3.2392642611928770 [Eh]
	 Total Energy              =   -1139.0599504520967002 [Eh]

	 ================> DF-SCS-MP2 Energies <==================
	-----------------------------------------------------------
	 SCS Same-Spin Scale       =       0.3333333333333333 [-]
	 SCS Opposite-Spin Scale   =       1.2000000000000000 [-]
	 SCS Same-Spin Energy      =      -0.2722070071019138 [Eh]
	 SCS Opposite-Spin Energy  =      -2.9071718878645627 [Eh]
	 SCS Correlation Energy    =      -3.1793788949664763 [Eh]
	 SCS Total Energy          =   -1139.0000650858703466 [Eh]
	-----------------------------------------------------------

  Dipole Moment: [D]
     X:    -3.5241      Y:     2.3174      Z:     4.0437     Total:     5.8431

*** Psi4 exiting successfully. Buy a developer a beer!
