                               Psi4 1.4a3.dev225

  ==> Input File <==

--------------------------------------------------------------------------
#psi4
#
memory 32 gb

molecule  {
0 1
  P        2.6113660     0.0433910    -0.1897900
  O       -0.7416560    -0.5164190    -0.8762010
  O       -3.1473860     1.7523070     0.1855430
  O       -3.5574330    -0.5529450    -0.9556820
  O       -0.9255690    -1.6972900     1.1506350
  O        1.5012550     1.2233910    -0.3202530
  O        1.7411940    -1.2993510    -0.3564950
  O        2.9591660    -0.0655390     1.3909200
  O        3.7751240     0.2843830    -1.0656400
  C       -2.2126837     0.8038072     0.5297464
  C       -0.8949630     0.8136090    -0.3166340
  C       -2.7825860    -0.6061320     0.2233240
  C       -1.5366410    -1.4089160    -0.0835620
  C        0.3224410     1.1924200     0.5080110
  H       -1.9377070     0.8289040     1.6116220
  H       -1.0168440     1.4957790    -1.1629650
  H       -3.3408870    -1.0228010     1.0710960
  H       -1.7074320    -2.2947510    -0.7027390
  H        0.4414920     0.4968360     1.3431340
  H        0.1974400     2.2044510     0.9094280
  H       -2.8916000     2.6047160     0.5754970
  H       -4.0429610     0.2932130    -0.9254450
  H       -0.0410590    -2.0731950     0.9726900
  H        0.9073710    -1.0816890    -0.8535130
  H        3.8468470     0.3075270     1.5450430
units angstrom
no_reorient  #important for SAPT in psi4, default
symmetry c1  #important for SAPT in psi4, default
}

set PROPERTIES_ORIGIN ["COM"]
properties('MP2/aug-cc-pvtz', properties = ['dipole'])
--------------------------------------------------------------------------

    Molecular point group: c1
  Charge       = 0
  Multiplicity = 1
  Basis Set: AUG-CC-PVTZ
    Blend: AUG-CC-PVTZ
  Basis Set: (AUG-CC-PVTZ AUX)
    Blend: AUG-CC-PVTZ-JKFIT

    Orbital Energies [Eh]
    ---------------------

    Doubly Occupied:

       1A    -80.114309     2A    -20.611792     3A    -20.610613
       4A    -20.604226     5A    -20.602686     6A    -20.597816
       7A    -20.593737     8A    -20.573948     9A    -20.514057
      10A    -11.361595    11A    -11.324017    12A    -11.320166
      13A    -11.316661    14A    -11.306426    15A     -7.629259
      16A     -5.527677    17A     -5.527597    18A     -5.526098
      19A     -1.462384    20A     -1.448219    21A     -1.428194
      22A     -1.389899    23A     -1.377702    24A     -1.375688
      25A     -1.367671    26A     -1.295389    27A     -1.078073
      28A     -1.043578    29A     -0.945771    30A     -0.858391
      31A     -0.841522    32A     -0.827795    33A     -0.773932
      34A     -0.760243    35A     -0.749563    36A     -0.733356
      37A     -0.716600    38A     -0.691795    39A     -0.688111
      40A     -0.667891    41A     -0.652539    42A     -0.647271
      43A     -0.635606    44A     -0.614572    45A     -0.603647
      46A     -0.597016    47A     -0.582049    48A     -0.580109
      49A     -0.571386    50A     -0.559622    51A     -0.542644
      52A     -0.530954    53A     -0.526248    54A     -0.508264
      55A     -0.488128    56A     -0.482729    57A     -0.474286
      58A     -0.468419    59A     -0.463949    60A     -0.446221

  @DF-RHF Final Energy: -1135.82119404299897

   => Energetics <=

    Nuclear Repulsion Energy =           1215.5468171288689518
    One-Electron Energy =               -3984.4158119989015177
    Two-Electron Energy =                1633.0478008270335977
    Total Energy =                      -1135.8211940429989681
  Basis Set: (AUG-CC-PVTZ AUX)
    Blend: AUG-CC-PVTZ-RI
    Molecular point group: c1

    Geometry (in Angstrom), charge = 0, multiplicity = 1:

       Center              X                  Y                   Z               Mass
    ------------   -----------------  -----------------  -----------------  -----------------
         P            2.560773472040     0.048976540138    -0.169443026919    30.973761998420
         O           -0.792248527960    -0.510833459862    -0.855854026919    15.994914619570
         O           -3.197978527960     1.757892540138     0.205889973081    15.994914619570
         O           -3.608025527960    -0.547359459862    -0.935335026919    15.994914619570
         O           -0.976161527960    -1.691704459862     1.170981973081    15.994914619570
         O            1.450662472040     1.228976540138    -0.299906026919    15.994914619570
         O            1.690601472040    -1.293765459862    -0.336148026919    15.994914619570
         O            2.908573472040    -0.059953459862     1.411266973081    15.994914619570
         O            3.724531472040     0.289968540138    -1.045293026919    15.994914619570
         C           -2.263276227960     0.809392740138     0.550093373081    12.000000000000
         C           -0.945555527960     0.819194540138    -0.296287026919    12.000000000000
         C           -2.833178527960    -0.600546459862     0.243670973081    12.000000000000
         C           -1.587233527960    -1.403330459862    -0.063215026919    12.000000000000
         C            0.271848472040     1.198005540138     0.528357973081    12.000000000000
         H           -1.988299527960     0.834489540138     1.631968973081     1.007825032230
         H           -1.067436527960     1.501364540138    -1.142618026919     1.007825032230
         H           -3.391479527960    -1.017215459862     1.091442973081     1.007825032230
         H           -1.758024527960    -2.289165459862    -0.682392026919     1.007825032230
         H            0.390899472040     0.502421540138     1.363480973081     1.007825032230
         H            0.146847472040     2.210036540138     0.929774973081     1.007825032230
         H           -2.942192527960     2.610301540138     0.595843973081     1.007825032230
         H           -4.093553527960     0.298798540138    -0.905098026919     1.007825032230
         H           -0.091651527960    -2.067609459862     0.993036973081     1.007825032230
         H            0.856778472040    -1.076103459862    -0.833166026919     1.007825032230
         H            3.796254472040     0.313112540138     1.565389973081     1.007825032230

  Basis Set: AUG-CC-PVTZ
    Blend: AUG-CC-PVTZ
  Basis Set: (AUG-CC-PVTZ AUX)
    Blend: AUG-CC-PVTZ-JKFIT
	 Reference Energy          =   -1135.8211940429989681 [Eh]
	 Singles Energy            =      -0.0000000000000000 [Eh]
	 Same-Spin Energy          =      -0.8161488581773320 [Eh]
	 Opposite-Spin Energy      =      -2.4212042668260412 [Eh]
	 Correlation Energy        =      -3.2373531250033731 [Eh]
	 Total Energy              =   -1139.0585471680024057 [Eh]

	 ================> DF-SCS-MP2 Energies <==================
	-----------------------------------------------------------
	 SCS Same-Spin Scale       =       0.3333333333333333 [-]
	 SCS Opposite-Spin Scale   =       1.2000000000000000 [-]
	 SCS Same-Spin Energy      =      -0.2720496193924440 [Eh]
	 SCS Opposite-Spin Energy  =      -2.9054451201912492 [Eh]
	 SCS Correlation Energy    =      -3.1774947395836932 [Eh]
	 SCS Total Energy          =   -1138.9986887825825761 [Eh]
	-----------------------------------------------------------

  Dipole Moment: [D]
     X:    -3.6288      Y:     2.4309      Z:     4.0160     Total:     5.9335

*** Psi4 exiting successfully. Buy a developer a beer!
