                               Psi4 1.3.2 release

  ==> Input File <==

--------------------------------------------------------------------------
#psi4
#
memory 32 gb

molecule  {
0 1
  P        2.6114510     0.0433530    -0.1897960
  O       -0.7415730    -0.5166550    -0.8759300
  O       -3.1471200     1.7525200     0.1857420
  O       -3.5574290    -0.5524670    -0.9560380
  O       -0.9442196    -1.6854158     1.1622796
  O        1.5012860     1.2233130    -0.3203930
  O        1.7414800    -1.2994450    -0.3567160
  O        2.9590140    -0.0653000     1.3909990
  O        3.7753660     0.2843820    -1.0654240
  C       -2.1786680     0.7692630     0.5423480
  C       -0.8949230     0.8134730    -0.3165700
  C       -2.7827930    -0.6059770     0.2231310
  C       -1.5369320    -1.4089660    -0.0835960
  C        0.3225300     1.1924080     0.5079200
  H       -1.9376650     0.8286140     1.6117160
  H       -1.0169450     1.4955040    -1.1629930
  H       -3.3413290    -1.0227480     1.0706890
  H       -1.7077950    -2.2947630    -0.7028010
  H        0.4416350     0.4968690     1.3430810
  H        0.1975530     2.2044650     0.9092850
  H       -2.8909940     2.6048820     0.5755830
  H       -4.0423210     0.2940670    -0.9260900
  H       -0.0419210    -2.0739930     0.9730340
  H        0.9072950    -1.0817680    -0.8531670
  H        3.8470510     0.3069850     1.5449930
units angstrom
no_reorient  #important for SAPT in psi4, default
symmetry c1  #important for SAPT in psi4, default
}

set PROPERTIES_ORIGIN ["COM"]
properties('MP2/aug-cc-pvtz', properties = ['dipole'])
--------------------------------------------------------------------------

    Molecular point group: c1
  Charge       = 0
  Multiplicity = 1
  Basis Set: AUG-CC-PVTZ
    Blend: AUG-CC-PVTZ
  Basis Set: (AUG-CC-PVTZ AUX)
    Blend: AUG-CC-PVTZ-JKFIT

    Orbital Energies [Eh]
    ---------------------

    Doubly Occupied:

       1A    -80.115152     2A    -20.611355     3A    -20.605919
       4A    -20.605187     5A    -20.603826     6A    -20.598861
       7A    -20.597640     8A    -20.574122     9A    -20.514777
      10A    -11.361752    11A    -11.322927    12A    -11.321269
      13A    -11.318163    14A    -11.306283    15A     -7.630103
      16A     -5.528522    17A     -5.528443    18A     -5.526941
      19A     -1.462872    20A     -1.448015    21A     -1.410781
      22A     -1.390643    23A     -1.378493    24A     -1.372336
      25A     -1.367398    26A     -1.296109    27A     -1.084020
      28A     -1.045819    29A     -0.945980    30A     -0.857524
      31A     -0.841873    32A     -0.828566    33A     -0.771131
      34A     -0.756983    35A     -0.747132    36A     -0.733907
      37A     -0.716954    38A     -0.692750    39A     -0.683500
      40A     -0.666431    41A     -0.652994    42A     -0.648005
      43A     -0.632602    44A     -0.613861    45A     -0.600800
      46A     -0.595224    47A     -0.582176    48A     -0.577451
      49A     -0.569662    50A     -0.559648    51A     -0.543600
      52A     -0.532286    53A     -0.527056    54A     -0.511561
      55A     -0.490834    56A     -0.487830    57A     -0.475197
      58A     -0.469099    59A     -0.465487    60A     -0.450288

  @DF-RHF Final Energy: -1135.82032484027445

   => Energetics <=

    Nuclear Repulsion Energy =           1215.8326849843722357
    One-Electron Energy =               -3984.9937741728663241
    Two-Electron Energy =                1633.3407643482194089
    Total Energy =                      -1135.8203248402744521
  Basis Set: (AUG-CC-PVTZ AUX)
    Blend: AUG-CC-PVTZ-RI
    Molecular point group: c1

    Geometry (in Angstrom), charge = 0, multiplicity = 1:

       Center              X                  Y                   Z               Mass
    ------------   -----------------  -----------------  -----------------  -----------------
         P            2.560336177279     0.049889965651    -0.170903190351    30.973761998420
         O           -0.792687822721    -0.510118034349    -0.857037190351    15.994914619570
         O           -3.198234822721     1.759056965651     0.204634809649    15.994914619570
         O           -3.608543822721    -0.545930034349    -0.937145190351    15.994914619570
         O           -0.995334422721    -1.678878834349     1.181172409649    15.994914619570
         O            1.450171177279     1.229849965651    -0.301500190351    15.994914619570
         O            1.690365177279    -1.292908034349    -0.337823190351    15.994914619570
         O            2.907899177279    -0.058763034349     1.409891809649    15.994914619570
         O            3.724251177279     0.290918965651    -1.046531190351    15.994914619570
         C           -2.229782822721     0.775799965651     0.561240809649    12.000000000000
         C           -0.946037822721     0.820009965651    -0.297677190351    12.000000000000
         C           -2.833907822721    -0.599440034349     0.242023809649    12.000000000000
         C           -1.588046822721    -1.402429034349    -0.064703190351    12.000000000000
         C            0.271415177279     1.198944965651     0.526812809649    12.000000000000
         H           -1.988779822721     0.835150965651     1.630608809649     1.007825032230
         H           -1.068059822721     1.502040965651    -1.144100190351     1.007825032230
         H           -3.392443822721    -1.016211034349     1.089581809649     1.007825032230
         H           -1.758909822721    -2.288226034349    -0.683908190351     1.007825032230
         H            0.390520177279     0.503405965651     1.361973809649     1.007825032230
         H            0.146438177279     2.211001965651     0.928177809649     1.007825032230
         H           -2.942108822721     2.611418965651     0.594475809649     1.007825032230
         H           -4.093435822721     0.300603965651    -0.907197190351     1.007825032230
         H           -0.093035822721    -2.067456034349     0.991926809649     1.007825032230
         H            0.856180177279    -1.075231034349    -0.834274190351     1.007825032230
         H            3.795936177279     0.313521965651     1.563885809649     1.007825032230

  Basis Set: AUG-CC-PVTZ
    Blend: AUG-CC-PVTZ
  Basis Set: (AUG-CC-PVTZ AUX)
    Blend: AUG-CC-PVTZ-JKFIT
	 Reference Energy          =   -1135.8203248402744521 [Eh]
	 Singles Energy            =      -0.0000000000000000 [Eh]
	 Same-Spin Energy          =      -0.8166923611687675 [Eh]
	 Opposite-Spin Energy      =      -2.4227934881204245 [Eh]
	 Correlation Energy        =      -3.2394858492891920 [Eh]
	 Total Energy              =   -1139.0598106895636192 [Eh]

	 ================> DF-SCS-MP2 Energies <==================
	-----------------------------------------------------------
	 SCS Same-Spin Scale       =       0.3333333333333333 [-]
	 SCS Opposite-Spin Scale   =       1.2000000000000000 [-]
	 SCS Same-Spin Energy      =      -0.2722307870562558 [Eh]
	 SCS Opposite-Spin Energy  =      -2.9073521857445095 [Eh]
	 SCS Correlation Energy    =      -3.1795829728007652 [Eh]
	 SCS Total Energy          =   -1138.9999078130751968 [Eh]
	-----------------------------------------------------------

  Dipole Moment: [D]
     X:    -3.4397      Y:     2.2721      Z:     4.0277     Total:     5.7634

*** Psi4 exiting successfully. Buy a developer a beer!
