                               Psi4 1.3.2 release

  ==> Input File <==

--------------------------------------------------------------------------
#psi4
#
memory 32 gb

molecule  {
0 1
  P        2.6114510     0.0433530    -0.1897960
  O       -0.7415730    -0.5166550    -0.8759300
  O       -3.1471200     1.7525200     0.1857420
  O       -3.5574290    -0.5524670    -0.9560380
  O       -0.9262260    -1.6975490     1.1507850
  O        1.5012860     1.2233130    -0.3203930
  O        1.7414800    -1.2994450    -0.3567160
  O        2.9590140    -0.0653000     1.3909990
  O        3.7753660     0.2843820    -1.0654240
  C       -2.1786680     0.7692630     0.5423480
  C       -0.8949230     0.8134730    -0.3165700
  C       -2.7827930    -0.6059770     0.2231310
  C       -1.5369320    -1.4089660    -0.0835960
  C        0.2423505     1.1674520     0.4536204
  H       -1.9376650     0.8286140     1.6117160
  H       -1.0169450     1.4955040    -1.1629930
  H       -3.3413290    -1.0227480     1.0706890
  H       -1.7077950    -2.2947630    -0.7028010
  H        0.4416350     0.4968690     1.3430810
  H        0.1975530     2.2044650     0.9092850
  H       -2.8909940     2.6048820     0.5755830
  H       -4.0423210     0.2940670    -0.9260900
  H       -0.0419210    -2.0739930     0.9730340
  H        0.9072950    -1.0817680    -0.8531670
  H        3.8470510     0.3069850     1.5449930
units angstrom
no_reorient  #important for SAPT in psi4, default
symmetry c1  #important for SAPT in psi4, default
}

set PROPERTIES_ORIGIN ["COM"]
properties('MP2/aug-cc-pvtz', properties = ['dipole'])
--------------------------------------------------------------------------

    Molecular point group: c1
  Charge       = 0
  Multiplicity = 1
  Basis Set: AUG-CC-PVTZ
    Blend: AUG-CC-PVTZ
  Basis Set: (AUG-CC-PVTZ AUX)
    Blend: AUG-CC-PVTZ-JKFIT

    Orbital Energies [Eh]
    ---------------------

    Doubly Occupied:

       1A    -80.112320     2A    -20.609272     3A    -20.608402
       4A    -20.604785     5A    -20.600293     6A    -20.596723
       7A    -20.595168     8A    -20.576388     9A    -20.512686
      10A    -11.363527    11A    -11.326957    12A    -11.325626
      13A    -11.316426    14A    -11.309215    15A     -7.627216
      16A     -5.525622    17A     -5.525595    18A     -5.524052
      19A     -1.463349    20A     -1.445273    21A     -1.413428
      22A     -1.385032    23A     -1.375449    24A     -1.373527
      25A     -1.369085    26A     -1.293622    27A     -1.101068
      28A     -1.054379    29A     -0.944168    30A     -0.858619
      31A     -0.842697    32A     -0.828173    33A     -0.773138
      34A     -0.760370    35A     -0.750783    36A     -0.732942
      37A     -0.715394    38A     -0.692200    39A     -0.684114
      40A     -0.666756    41A     -0.650894    42A     -0.647056
      43A     -0.634860    44A     -0.613074    45A     -0.603812
      46A     -0.596432    47A     -0.579908    48A     -0.575365
      49A     -0.568855    50A     -0.561932    51A     -0.539878
      52A     -0.529593    53A     -0.525461    54A     -0.509278
      55A     -0.492269    56A     -0.488642    57A     -0.477079
      58A     -0.468518    59A     -0.464467    60A     -0.456450

  @DF-RHF Final Energy: -1135.81024353462340

   => Energetics <=

    Nuclear Repulsion Energy =           1216.9923880011065194
    One-Electron Energy =               -3987.2699388903806721
    Two-Electron Energy =                1634.4673073546507567
    Total Energy =                      -1135.8102435346233960
  Basis Set: (AUG-CC-PVTZ AUX)
    Blend: AUG-CC-PVTZ-RI
    Molecular point group: c1

    Geometry (in Angstrom), charge = 0, multiplicity = 1:

       Center              X                  Y                   Z               Mass
    ------------   -----------------  -----------------  -----------------  -----------------
         P            2.563267880538     0.052035619562    -0.167271100023    30.973761998420
         O           -0.789756119462    -0.507972380438    -0.853405100023    15.994914619570
         O           -3.195303119462     1.761202619562     0.208266899977    15.994914619570
         O           -3.605612119462    -0.543784380438    -0.933513100023    15.994914619570
         O           -0.974409119462    -1.688866380438     1.173309899977    15.994914619570
         O            1.453102880538     1.231995619562    -0.297868100023    15.994914619570
         O            1.693296880538    -1.290762380438    -0.334191100023    15.994914619570
         O            2.910830880538    -0.056617380438     1.413523899977    15.994914619570
         O            3.727182880538     0.293064619562    -1.042899100023    15.994914619570
         C           -2.226851119462     0.777945619562     0.564872899977    12.000000000000
         C           -0.943106119462     0.822155619562    -0.294045100023    12.000000000000
         C           -2.830976119462    -0.597294380438     0.245655899977    12.000000000000
         C           -1.585115119462    -1.400283380438    -0.061071100023    12.000000000000
         C            0.194167380538     1.176134619562     0.476145299977    12.000000000000
         H           -1.985848119462     0.837296619562     1.634240899977     1.007825032230
         H           -1.065128119462     1.504186619562    -1.140468100023     1.007825032230
         H           -3.389512119462    -1.014065380438     1.093213899977     1.007825032230
         H           -1.755978119462    -2.286080380438    -0.680276100023     1.007825032230
         H            0.393451880538     0.505551619562     1.365605899977     1.007825032230
         H            0.149369880538     2.213147619562     0.931809899977     1.007825032230
         H           -2.939177119462     2.613564619562     0.598107899977     1.007825032230
         H           -4.090504119462     0.302749619562    -0.903565100023     1.007825032230
         H           -0.090104119462    -2.065310380438     0.995558899977     1.007825032230
         H            0.859111880538    -1.073085380438    -0.830642100023     1.007825032230
         H            3.798867880538     0.315667619562     1.567517899977     1.007825032230

  Basis Set: AUG-CC-PVTZ
    Blend: AUG-CC-PVTZ
  Basis Set: (AUG-CC-PVTZ AUX)
    Blend: AUG-CC-PVTZ-JKFIT
	 Reference Energy          =   -1135.8102435346233960 [Eh]
	 Singles Energy            =      -0.0000000000000000 [Eh]
	 Same-Spin Energy          =      -0.8174658507005120 [Eh]
	 Opposite-Spin Energy      =      -2.4234464520890397 [Eh]
	 Correlation Energy        =      -3.2409123027895519 [Eh]
	 Total Energy              =   -1139.0511558374130345 [Eh]

	 ================> DF-SCS-MP2 Energies <==================
	-----------------------------------------------------------
	 SCS Same-Spin Scale       =       0.3333333333333333 [-]
	 SCS Opposite-Spin Scale   =       1.2000000000000000 [-]
	 SCS Same-Spin Energy      =      -0.2724886169001707 [Eh]
	 SCS Opposite-Spin Energy  =      -2.9081357425068477 [Eh]
	 SCS Correlation Energy    =      -3.1806243594070183 [Eh]
	 SCS Total Energy          =   -1138.9908678940303162 [Eh]
	-----------------------------------------------------------

  Dipole Moment: [D]
     X:    -3.7398      Y:     2.2875      Z:     4.0430     Total:     5.9636

*** Psi4 exiting successfully. Buy a developer a beer!
