                               Psi4 1.4a3.dev225

  ==> Input File <==

--------------------------------------------------------------------------
#psi4
#
memory 32 gb

molecule  {
0 1
  P        2.6113660     0.0433910    -0.1897900
  O       -0.7416560    -0.5164190    -0.8762010
  O       -3.1473860     1.7523070     0.1855430
  O       -3.5574330    -0.5529450    -0.9556820
  O       -0.9255690    -1.6972900     1.1506350
  O        1.5012550     1.2233910    -0.3202530
  O        1.7411940    -1.2993510    -0.3564950
  O        2.9591660    -0.0655390     1.3909200
  O        3.7751240     0.2843830    -1.0656400
  C       -2.1787050     0.7693270     0.5422590
  C       -0.8949630     0.8136090    -0.3166340
  C       -2.8022478    -0.6509157     0.2129398
  C       -1.5366410    -1.4089160    -0.0835620
  C        0.3224410     1.1924200     0.5080110
  H       -1.9377070     0.8289040     1.6116220
  H       -1.0168440     1.4957790    -1.1629650
  H       -3.3408870    -1.0228010     1.0710960
  H       -1.7074320    -2.2947510    -0.7027390
  H        0.4414920     0.4968360     1.3431340
  H        0.1974400     2.2044510     0.9094280
  H       -2.8916000     2.6047160     0.5754970
  H       -4.0429610     0.2932130    -0.9254450
  H       -0.0410590    -2.0731950     0.9726900
  H        0.9073710    -1.0816890    -0.8535130
  H        3.8468470     0.3075270     1.5450430
units angstrom
no_reorient  #important for SAPT in psi4, default
symmetry c1  #important for SAPT in psi4, default
}

set PROPERTIES_ORIGIN ["COM"]
properties('MP2/aug-cc-pvtz', properties = ['dipole'])
--------------------------------------------------------------------------

    Molecular point group: c1
  Charge       = 0
  Multiplicity = 1
  Basis Set: AUG-CC-PVTZ
    Blend: AUG-CC-PVTZ
  Basis Set: (AUG-CC-PVTZ AUX)
    Blend: AUG-CC-PVTZ-JKFIT

    Orbital Energies [Eh]
    ---------------------

    Doubly Occupied:

       1A    -80.114697     2A    -20.610973     3A    -20.605267
       4A    -20.604680     5A    -20.603642     6A    -20.598270
       7A    -20.594942     8A    -20.575988     9A    -20.514384
      10A    -11.361809    11A    -11.323169    12A    -11.320648
      13A    -11.317399    14A    -11.308221    15A     -7.629648
      16A     -5.528067    17A     -5.527987    18A     -5.526486
      19A     -1.462741    20A     -1.447950    21A     -1.410726
      22A     -1.390410    23A     -1.378205    24A     -1.377357
      25A     -1.369524    26A     -1.295720    27A     -1.079689
      28A     -1.045100    29A     -0.945835    30A     -0.855677
      31A     -0.843384    32A     -0.829669    33A     -0.771105
      34A     -0.761601    35A     -0.746426    36A     -0.732521
      37A     -0.716365    38A     -0.692671    39A     -0.686478
      40A     -0.669436    41A     -0.653148    42A     -0.647666
      43A     -0.634579    44A     -0.613647    45A     -0.600249
      46A     -0.598156    47A     -0.582196    48A     -0.577856
      49A     -0.568978    50A     -0.561181    51A     -0.543274
      52A     -0.531939    53A     -0.527374    54A     -0.509499
      55A     -0.487643    56A     -0.485639    57A     -0.475034
      58A     -0.470003    59A     -0.465567    60A     -0.446413

  @DF-RHF Final Energy: -1135.82108179758416

   => Energetics <=

    Nuclear Repulsion Energy =           1215.2779715939791458
    One-Electron Energy =               -3983.8882949702369842
    Two-Electron Energy =                1632.7892415786736819
    Total Energy =                      -1135.8210817975841564
  Basis Set: (AUG-CC-PVTZ AUX)
    Blend: AUG-CC-PVTZ-RI
    Molecular point group: c1

    Geometry (in Angstrom), charge = 0, multiplicity = 1:

       Center              X                  Y                   Z               Mass
    ------------   -----------------  -----------------  -----------------  -----------------
         P            2.560026565546     0.053111703589    -0.169554064629    30.973761998420
         O           -0.792995434454    -0.506698296411    -0.855965064629    15.994914619570
         O           -3.198725434454     1.762027703589     0.205778935371    15.994914619570
         O           -3.608772434454    -0.543224296411    -0.935446064629    15.994914619570
         O           -0.976908434454    -1.687569296411     1.170870935371    15.994914619570
         O            1.449915565546     1.233111703589    -0.300017064629    15.994914619570
         O            1.689854565546    -1.289630296411    -0.336259064629    15.994914619570
         O            2.907826565546    -0.055818296411     1.411155935371    15.994914619570
         O            3.723784565546     0.294103703589    -1.045404064629    15.994914619570
         C           -2.230044434454     0.779047703589     0.562494935371    12.000000000000
         C           -0.946302434454     0.823329703589    -0.296398064629    12.000000000000
         C           -2.853587234454    -0.641194996411     0.233175735371    12.000000000000
         C           -1.587980434454    -1.399195296411    -0.063326064629    12.000000000000
         C            0.271101565546     1.202140703589     0.528246935371    12.000000000000
         H           -1.989046434454     0.838624703589     1.631857935371     1.007825032230
         H           -1.068183434454     1.505499703589    -1.142729064629     1.007825032230
         H           -3.392226434454    -1.013080296411     1.091331935371     1.007825032230
         H           -1.758771434454    -2.285030296411    -0.682503064629     1.007825032230
         H            0.390152565546     0.506556703589     1.363369935371     1.007825032230
         H            0.146100565546     2.214171703589     0.929663935371     1.007825032230
         H           -2.942939434454     2.614436703589     0.595732935371     1.007825032230
         H           -4.094300434454     0.302933703589    -0.905209064629     1.007825032230
         H           -0.092398434454    -2.063474296411     0.992925935371     1.007825032230
         H            0.856031565546    -1.071968296411    -0.833277064629     1.007825032230
         H            3.795507565546     0.317247703589     1.565278935371     1.007825032230

  Basis Set: AUG-CC-PVTZ
    Blend: AUG-CC-PVTZ
  Basis Set: (AUG-CC-PVTZ AUX)
    Blend: AUG-CC-PVTZ-JKFIT
	 Reference Energy          =   -1135.8210817975841564 [Eh]
	 Singles Energy            =      -0.0000000000000000 [Eh]
	 Same-Spin Energy          =      -0.8161797534062237 [Eh]
	 Opposite-Spin Energy      =      -2.4215419549474064 [Eh]
	 Correlation Energy        =      -3.2377217083536300 [Eh]
	 Total Energy              =   -1139.0588035059377034 [Eh]

	 ================> DF-SCS-MP2 Energies <==================
	-----------------------------------------------------------
	 SCS Same-Spin Scale       =       0.3333333333333333 [-]
	 SCS Opposite-Spin Scale   =       1.2000000000000000 [-]
	 SCS Same-Spin Energy      =      -0.2720599178020746 [Eh]
	 SCS Opposite-Spin Energy  =      -2.9058503459368876 [Eh]
	 SCS Correlation Energy    =      -3.1779102637389620 [Eh]
	 SCS Total Energy          =   -1138.9989920613231789 [Eh]
	-----------------------------------------------------------

  Dipole Moment: [D]
     X:    -3.5645      Y:     2.2622      Z:     4.0137     Total:     5.8252

*** Psi4 exiting successfully. Buy a developer a beer!
