                               Psi4 1.3.2 release

  ==> Input File <==

--------------------------------------------------------------------------
#psi4
#
memory 32 gb

molecule  {
0 1
  P        2.6114510     0.0433530    -0.1897960
  O       -0.7455923    -0.4221801    -0.7593497
  O       -3.1471200     1.7525200     0.1857420
  O       -3.5574290    -0.5524670    -0.9560380
  O       -0.9262260    -1.6975490     1.1507850
  O        1.5012860     1.2233130    -0.3203930
  O        1.7414800    -1.2994450    -0.3567160
  O        2.9590140    -0.0653000     1.3909990
  O        3.7753660     0.2843820    -1.0654240
  C       -2.1786680     0.7692630     0.5423480
  C       -0.8949230     0.8134730    -0.3165700
  C       -2.7827930    -0.6059770     0.2231310
  C       -1.5369320    -1.4089660    -0.0835960
  C        0.3225300     1.1924080     0.5079200
  H       -1.9376650     0.8286140     1.6117160
  H       -1.0169450     1.4955040    -1.1629930
  H       -3.3413290    -1.0227480     1.0706890
  H       -1.7077950    -2.2947630    -0.7028010
  H        0.4416350     0.4968690     1.3430810
  H        0.1975530     2.2044650     0.9092850
  H       -2.8909940     2.6048820     0.5755830
  H       -4.0423210     0.2940670    -0.9260900
  H       -0.0419210    -2.0739930     0.9730340
  H        0.9072950    -1.0817680    -0.8531670
  H        3.8470510     0.3069850     1.5449930
units angstrom
no_reorient  #important for SAPT in psi4, default
symmetry c1  #important for SAPT in psi4, default
}

set PROPERTIES_ORIGIN ["COM"]
properties('MP2/aug-cc-pvtz', properties = ['dipole'])
--------------------------------------------------------------------------

    Molecular point group: c1
  Charge       = 0
  Multiplicity = 1
  Basis Set: AUG-CC-PVTZ
    Blend: AUG-CC-PVTZ
  Basis Set: (AUG-CC-PVTZ AUX)
    Blend: AUG-CC-PVTZ-JKFIT

    Orbital Energies [Eh]
    ---------------------

    Doubly Occupied:

       1A    -80.114911     2A    -20.610872     3A    -20.602856
       4A    -20.601810     5A    -20.601339     6A    -20.596143
       7A    -20.595041     8A    -20.575448     9A    -20.514555
      10A    -11.369164    11A    -11.316801    12A    -11.312340
      13A    -11.306661    14A    -11.305873    15A     -7.629866
      16A     -5.528260    17A     -5.528228    18A     -5.526704
      19A     -1.487422    20A     -1.451970    21A     -1.408938
      22A     -1.391506    23A     -1.382765    24A     -1.378922
      25A     -1.372257    26A     -1.295890    27A     -1.073230
      28A     -1.056395    29A     -0.950835    30A     -0.857717
      31A     -0.848457    32A     -0.829037    33A     -0.775478
      34A     -0.761016    35A     -0.756068    36A     -0.732167
      37A     -0.716611    38A     -0.692743    39A     -0.687983
      40A     -0.673525    41A     -0.662432    42A     -0.651923
      43A     -0.633205    44A     -0.615459    45A     -0.602732
      46A     -0.595385    47A     -0.581881    48A     -0.576959
      49A     -0.568114    50A     -0.563128    51A     -0.543849
      52A     -0.534200    53A     -0.528107    54A     -0.510154
      55A     -0.494330    56A     -0.477653    57A     -0.471954
      58A     -0.468217    59A     -0.461095    60A     -0.441874

  @DF-RHF Final Energy: -1135.81381201386102

   => Energetics <=

    Nuclear Repulsion Energy =           1220.3647644428322110
    One-Electron Energy =               -3993.9562448894289446
    Two-Electron Energy =                1637.7776684327354815
    Total Energy =                      -1135.8138120138610248
  Basis Set: (AUG-CC-PVTZ AUX)
    Blend: AUG-CC-PVTZ-RI
    Molecular point group: c1

    Geometry (in Angstrom), charge = 0, multiplicity = 1:

       Center              X                  Y                   Z               Mass
    ------------   -----------------  -----------------  -----------------  -----------------
         P            2.559364441964     0.044164144838    -0.178210567879    30.973761998420
         O           -0.797678858036    -0.421368955162    -0.747764267879    15.994914619570
         O           -3.199206558036     1.753331144838     0.197327432121    15.994914619570
         O           -3.609515558036    -0.551655855162    -0.944452567879    15.994914619570
         O           -0.978312558036    -1.696737855162     1.162370432121    15.994914619570
         O            1.449199441964     1.224124144838    -0.308807567879    15.994914619570
         O            1.689393441964    -1.298633855162    -0.345130567879    15.994914619570
         O            2.906927441964    -0.064488855162     1.402584432121    15.994914619570
         O            3.723279441964     0.285193144838    -1.053838567879    15.994914619570
         C           -2.230754558036     0.770074144838     0.553933432121    12.000000000000
         C           -0.947009558036     0.814284144838    -0.304984567879    12.000000000000
         C           -2.834879558036    -0.605165855162     0.234716432121    12.000000000000
         C           -1.589018558036    -1.408154855162    -0.072010567879    12.000000000000
         C            0.270443441964     1.193219144838     0.519505432121    12.000000000000
         H           -1.989751558036     0.829425144838     1.623301432121     1.007825032230
         H           -1.069031558036     1.496315144838    -1.151407567879     1.007825032230
         H           -3.393415558036    -1.021936855162     1.082274432121     1.007825032230
         H           -1.759881558036    -2.293951855162    -0.691215567879     1.007825032230
         H            0.389548441964     0.497680144838     1.354666432121     1.007825032230
         H            0.145466441964     2.205276144838     0.920870432121     1.007825032230
         H           -2.943080558036     2.605693144838     0.587168432121     1.007825032230
         H           -4.094407558036     0.294878144838    -0.914504567879     1.007825032230
         H           -0.094007558036    -2.073181855162     0.984619432121     1.007825032230
         H            0.855208441964    -1.080956855162    -0.841581567879     1.007825032230
         H            3.794964441964     0.307796144838     1.556578432121     1.007825032230

  Basis Set: AUG-CC-PVTZ
    Blend: AUG-CC-PVTZ
  Basis Set: (AUG-CC-PVTZ AUX)
    Blend: AUG-CC-PVTZ-JKFIT
	 Reference Energy          =   -1135.8138120138610248 [Eh]
	 Singles Energy            =      -0.0000000000000000 [Eh]
	 Same-Spin Energy          =      -0.8156811982921297 [Eh]
	 Opposite-Spin Energy      =      -2.4184576169031886 [Eh]
	 Correlation Energy        =      -3.2341388151953181 [Eh]
	 Total Energy              =   -1139.0479508290563899 [Eh]

	 ================> DF-SCS-MP2 Energies <==================
	-----------------------------------------------------------
	 SCS Same-Spin Scale       =       0.3333333333333333 [-]
	 SCS Opposite-Spin Scale   =       1.2000000000000000 [-]
	 SCS Same-Spin Energy      =      -0.2718937327640432 [Eh]
	 SCS Opposite-Spin Energy  =      -2.9021491402838264 [Eh]
	 SCS Correlation Energy    =      -3.1740428730478696 [Eh]
	 SCS Total Energy          =   -1138.9878548869089627 [Eh]
	-----------------------------------------------------------

  Dipole Moment: [D]
     X:    -3.4741      Y:     1.8536      Z:     3.7835     Total:     5.4608

*** Psi4 exiting successfully. Buy a developer a beer!
