                               Psi4 1.4a3.dev225

  ==> Input File <==

--------------------------------------------------------------------------
#psi4
#
memory 32 gb

molecule  {
0 1
  P        2.6113660     0.0433910    -0.1897900
  O       -0.7416560    -0.5164190    -0.8762010
  O       -3.1473860     1.7523070     0.1855430
  O       -3.5574330    -0.5529450    -0.9556820
  O       -0.9255690    -1.6972900     1.1506350
  O        1.5012550     1.2233910    -0.3202530
  O        1.7411940    -1.2993510    -0.3564950
  O        2.9591660    -0.0655390     1.3909200
  O        3.7751240     0.2843830    -1.0656400
  C       -2.1787050     0.7693270     0.5422590
  C       -0.8949630     0.8136090    -0.3166340
  C       -2.7716095    -0.6068854     0.2400258
  C       -1.5366410    -1.4089160    -0.0835620
  C        0.3224410     1.1924200     0.5080110
  H       -1.9377070     0.8289040     1.6116220
  H       -1.0168440     1.4957790    -1.1629650
  H       -3.3408870    -1.0228010     1.0710960
  H       -1.7074320    -2.2947510    -0.7027390
  H        0.4414920     0.4968360     1.3431340
  H        0.1974400     2.2044510     0.9094280
  H       -2.8916000     2.6047160     0.5754970
  H       -4.0429610     0.2932130    -0.9254450
  H       -0.0410590    -2.0731950     0.9726900
  H        0.9073710    -1.0816890    -0.8535130
  H        3.8468470     0.3075270     1.5450430
units angstrom
no_reorient  #important for SAPT in psi4, default
symmetry c1  #important for SAPT in psi4, default
}

set PROPERTIES_ORIGIN ["COM"]
properties('MP2/aug-cc-pvtz', properties = ['dipole'])
--------------------------------------------------------------------------

    Molecular point group: c1
  Charge       = 0
  Multiplicity = 1
  Basis Set: AUG-CC-PVTZ
    Blend: AUG-CC-PVTZ
  Basis Set: (AUG-CC-PVTZ AUX)
    Blend: AUG-CC-PVTZ-JKFIT

    Orbital Energies [Eh]
    ---------------------

    Doubly Occupied:

       1A    -80.115140     2A    -20.611372     3A    -20.606478
       4A    -20.605320     5A    -20.603910     6A    -20.598694
       7A    -20.594950     8A    -20.572800     9A    -20.514765
      10A    -11.362748    11A    -11.323811    12A    -11.321528
      13A    -11.318634    14A    -11.306998    15A     -7.630091
      16A     -5.528511    17A     -5.528429    18A     -5.526927
      19A     -1.463442    20A     -1.448443    21A     -1.410670
      22A     -1.390874    23A     -1.378397    24A     -1.371719
      25A     -1.364245    26A     -1.296100    27A     -1.085532
      28A     -1.048781    29A     -0.947345    30A     -0.858533
      31A     -0.842066    32A     -0.829729    33A     -0.772171
      34A     -0.758059    35A     -0.748253    36A     -0.734600
      37A     -0.716995    38A     -0.693083    39A     -0.683712
      40A     -0.665368    41A     -0.653159    42A     -0.647706
      43A     -0.632908    44A     -0.613361    45A     -0.601116
      46A     -0.594305    47A     -0.581725    48A     -0.577329
      49A     -0.569367    50A     -0.558778    51A     -0.543436
      52A     -0.532345    53A     -0.526939    54A     -0.512164
      55A     -0.491795    56A     -0.488563    57A     -0.475552
      58A     -0.470126    59A     -0.466591    60A     -0.451601

  @DF-RHF Final Energy: -1135.82192849224225

   => Energetics <=

    Nuclear Repulsion Energy =           1215.9674922047950076
    One-Electron Energy =               -3985.2426599707951027
    Two-Electron Energy =                1633.4532392737576174
    Total Energy =                      -1135.8219284922422503
  Basis Set: (AUG-CC-PVTZ AUX)
    Blend: AUG-CC-PVTZ-RI
    Molecular point group: c1

    Geometry (in Angstrom), charge = 0, multiplicity = 1:

       Center              X                  Y                   Z               Mass
    ------------   -----------------  -----------------  -----------------  -----------------
         P            2.558428178659     0.050814661842    -0.170967129558    30.973761998420
         O           -0.794593821341    -0.508995338158    -0.857378129558    15.994914619570
         O           -3.200323821341     1.759730661842     0.204365870442    15.994914619570
         O           -3.610370821341    -0.545521338158    -0.936859129558    15.994914619570
         O           -0.978506821341    -1.689866338158     1.169457870442    15.994914619570
         O            1.448317178659     1.230814661842    -0.301430129558    15.994914619570
         O            1.688256178659    -1.291927338158    -0.337672129558    15.994914619570
         O            2.906228178659    -0.058115338158     1.409742870442    15.994914619570
         O            3.722186178659     0.291806661842    -1.046817129558    15.994914619570
         C           -2.231642821341     0.776750661842     0.561081870442    12.000000000000
         C           -0.947900821341     0.821032661842    -0.297811129558    12.000000000000
         C           -2.824547321341    -0.599461738158     0.258848670442    12.000000000000
         C           -1.589578821341    -1.401492338158    -0.064739129558    12.000000000000
         C            0.269503178659     1.199843661842     0.526833870442    12.000000000000
         H           -1.990644821341     0.836327661842     1.630444870442     1.007825032230
         H           -1.069781821341     1.503202661842    -1.144142129558     1.007825032230
         H           -3.393824821341    -1.015377338158     1.089918870442     1.007825032230
         H           -1.760369821341    -2.287327338158    -0.683916129558     1.007825032230
         H            0.388554178659     0.504259661842     1.361956870442     1.007825032230
         H            0.144502178659     2.211874661842     0.928250870442     1.007825032230
         H           -2.944537821341     2.612139661842     0.594319870442     1.007825032230
         H           -4.095898821341     0.300636661842    -0.906622129558     1.007825032230
         H           -0.093996821341    -2.065771338158     0.991512870442     1.007825032230
         H            0.854433178659    -1.074265338158    -0.834690129558     1.007825032230
         H            3.793909178659     0.314950661842     1.563865870442     1.007825032230

  Basis Set: AUG-CC-PVTZ
    Blend: AUG-CC-PVTZ
  Basis Set: (AUG-CC-PVTZ AUX)
    Blend: AUG-CC-PVTZ-JKFIT
	 Reference Energy          =   -1135.8219284922422503 [Eh]
	 Singles Energy            =      -0.0000000000000000 [Eh]
	 Same-Spin Energy          =      -0.8163159830909155 [Eh]
	 Opposite-Spin Energy      =      -2.4221586532413268 [Eh]
	 Correlation Energy        =      -3.2384746363322421 [Eh]
	 Total Energy              =   -1139.0604031285745350 [Eh]

	 ================> DF-SCS-MP2 Energies <==================
	-----------------------------------------------------------
	 SCS Same-Spin Scale       =       0.3333333333333333 [-]
	 SCS Opposite-Spin Scale   =       1.2000000000000000 [-]
	 SCS Same-Spin Energy      =      -0.2721053276969718 [Eh]
	 SCS Opposite-Spin Energy  =      -2.9065903838895921 [Eh]
	 SCS Correlation Energy    =      -3.1786957115865637 [Eh]
	 SCS Total Energy          =   -1139.0006242038289201 [Eh]
	-----------------------------------------------------------

  Dipole Moment: [D]
     X:    -3.4358      Y:     2.2933      Z:     4.0820     Total:     5.8074

*** Psi4 exiting successfully. Buy a developer a beer!
