                               Psi4 1.3.2 release

  ==> Input File <==

--------------------------------------------------------------------------
#psi4
#
memory 32 gb

molecule  {
0 1
  P        2.6114510     0.0433530    -0.1897960
  O       -0.7415730    -0.5166550    -0.8759300
  O       -3.1471200     1.7525200     0.1857420
  O       -3.5574290    -0.5524670    -0.9560380
  O       -0.9262260    -1.6975490     1.1507850
  O        1.4545659     1.2910398    -0.3782457
  O        1.7414800    -1.2994450    -0.3567160
  O        2.9590140    -0.0653000     1.3909990
  O        3.7753660     0.2843820    -1.0654240
  C       -2.1786680     0.7692630     0.5423480
  C       -0.8949230     0.8134730    -0.3165700
  C       -2.7827930    -0.6059770     0.2231310
  C       -1.5369320    -1.4089660    -0.0835960
  C        0.3225300     1.1924080     0.5079200
  H       -1.9376650     0.8286140     1.6117160
  H       -1.0169450     1.4955040    -1.1629930
  H       -3.3413290    -1.0227480     1.0706890
  H       -1.7077950    -2.2947630    -0.7028010
  H        0.4416350     0.4968690     1.3430810
  H        0.1975530     2.2044650     0.9092850
  H       -2.8909940     2.6048820     0.5755830
  H       -4.0423210     0.2940670    -0.9260900
  H       -0.0419210    -2.0739930     0.9730340
  H        0.9072950    -1.0817680    -0.8531670
  H        3.8470510     0.3069850     1.5449930
units angstrom
no_reorient  #important for SAPT in psi4, default
symmetry c1  #important for SAPT in psi4, default
}

set PROPERTIES_ORIGIN ["COM"]
properties('MP2/aug-cc-pvtz', properties = ['dipole'])
--------------------------------------------------------------------------

    Molecular point group: c1
  Charge       = 0
  Multiplicity = 1
  Basis Set: AUG-CC-PVTZ
    Blend: AUG-CC-PVTZ
  Basis Set: (AUG-CC-PVTZ AUX)
    Blend: AUG-CC-PVTZ-JKFIT

    Orbital Energies [Eh]
    ---------------------

    Doubly Occupied:

       1A    -80.124485     2A    -20.619746     3A    -20.605359
       4A    -20.605075     5A    -20.604052     6A    -20.602038
       7A    -20.594706     8A    -20.573440     9A    -20.519523
      10A    -11.361244    11A    -11.320376    12A    -11.314805
      13A    -11.313976    14A    -11.305565    15A     -7.638354
      16A     -5.536714    17A     -5.536415    18A     -5.535229
      19A     -1.460309    20A     -1.445503    21A     -1.409542
      22A     -1.389761    23A     -1.377528    24A     -1.371991
      25A     -1.366471    26A     -1.300185    27A     -1.079796
      28A     -1.042857    29A     -0.938765    30A     -0.857220
      31A     -0.842015    32A     -0.828946    33A     -0.769184
      34A     -0.756393    35A     -0.746686    36A     -0.732665
      37A     -0.718119    38A     -0.688462    39A     -0.680710
      40A     -0.667044    41A     -0.652474    42A     -0.646539
      43A     -0.628068    44A     -0.613028    45A     -0.600268
      46A     -0.595204    47A     -0.585103    48A     -0.578487
      49A     -0.567926    50A     -0.560780    51A     -0.548147
      52A     -0.529353    53A     -0.523166    54A     -0.510141
      55A     -0.488312    56A     -0.486258    57A     -0.477327
      58A     -0.470733    59A     -0.466233    60A     -0.446700

  @DF-RHF Final Energy: -1135.81080185747942

   => Energetics <=

    Nuclear Repulsion Energy =           1213.0066227673926278
    One-Electron Energy =               -3979.3238473264841559
    Two-Electron Energy =                1630.5064227016118821
    Total Energy =                      -1135.8108018574794187
  Basis Set: (AUG-CC-PVTZ AUX)
    Blend: AUG-CC-PVTZ-RI
    Molecular point group: c1

    Geometry (in Angstrom), charge = 0, multiplicity = 1:

       Center              X                  Y                   Z               Mass
    ------------   -----------------  -----------------  -----------------  -----------------
         P            2.562333740988     0.046024135920    -0.166080965237    30.973761998420
         O           -0.790690259012    -0.513983864080    -0.852214965237    15.994914619570
         O           -3.196237259012     1.755191135920     0.209457034763    15.994914619570
         O           -3.606546259012    -0.549795864080    -0.932322965237    15.994914619570
         O           -0.975343259012    -1.694877864080     1.174500034763    15.994914619570
         O            1.405448640988     1.293710935920    -0.354530665237    15.994914619570
         O            1.692362740988    -1.296773864080    -0.333000965237    15.994914619570
         O            2.909896740988    -0.062628864080     1.414714034763    15.994914619570
         O            3.726248740988     0.287053135920    -1.041708965237    15.994914619570
         C           -2.227785259012     0.771934135920     0.566063034763    12.000000000000
         C           -0.944040259012     0.816144135920    -0.292854965237    12.000000000000
         C           -2.831910259012    -0.603305864080     0.246846034763    12.000000000000
         C           -1.586049259012    -1.406294864080    -0.059880965237    12.000000000000
         C            0.273412740988     1.195079135920     0.531635034763    12.000000000000
         H           -1.986782259012     0.831285135920     1.635431034763     1.007825032230
         H           -1.066062259012     1.498175135920    -1.139277965237     1.007825032230
         H           -3.390446259012    -1.020076864080     1.094404034763     1.007825032230
         H           -1.756912259012    -2.292091864080    -0.679085965237     1.007825032230
         H            0.392517740988     0.499540135920     1.366796034763     1.007825032230
         H            0.148435740988     2.207136135920     0.933000034763     1.007825032230
         H           -2.940111259012     2.607553135920     0.599298034763     1.007825032230
         H           -4.091438259012     0.296738135920    -0.902374965237     1.007825032230
         H           -0.091038259012    -2.071321864080     0.996749034763     1.007825032230
         H            0.858177740988    -1.079096864080    -0.829451965237     1.007825032230
         H            3.797933740988     0.309656135920     1.568708034763     1.007825032230

  Basis Set: AUG-CC-PVTZ
    Blend: AUG-CC-PVTZ
  Basis Set: (AUG-CC-PVTZ AUX)
    Blend: AUG-CC-PVTZ-JKFIT
	 Reference Energy          =   -1135.8108018574794187 [Eh]
	 Singles Energy            =      -0.0000000000000000 [Eh]
	 Same-Spin Energy          =      -0.8176386332908275 [Eh]
	 Opposite-Spin Energy      =      -2.4255816121289473 [Eh]
	 Correlation Energy        =      -3.2432202454197747 [Eh]
	 Total Energy              =   -1139.0540221028991255 [Eh]

	 ================> DF-SCS-MP2 Energies <==================
	-----------------------------------------------------------
	 SCS Same-Spin Scale       =       0.3333333333333333 [-]
	 SCS Opposite-Spin Scale   =       1.2000000000000000 [-]
	 SCS Same-Spin Energy      =      -0.2725462110969425 [Eh]
	 SCS Opposite-Spin Energy  =      -2.9106979345547366 [Eh]
	 SCS Correlation Energy    =      -3.1832441456516789 [Eh]
	 SCS Total Energy          =   -1138.9940460031311886 [Eh]
	-----------------------------------------------------------

  Dipole Moment: [D]
     X:    -3.0825      Y:     2.0107      Z:     4.1219     Total:     5.5259

*** Psi4 exiting successfully. Buy a developer a beer!
