                               Psi4 1.4a3.dev225

  ==> Input File <==

--------------------------------------------------------------------------
#psi4
#
memory 32 gb

molecule  {
0 1
  P        2.6113660     0.0433910    -0.1897900
  O       -0.7416560    -0.5164190    -0.8762010
  O       -3.1473860     1.7523070     0.1855430
  O       -3.5574330    -0.5529450    -0.9556820
  O       -0.9255690    -1.6972900     1.1506350
  O        1.5012550     1.2233910    -0.3202530
  O        1.7411940    -1.2993510    -0.3564950
  O        2.9591660    -0.0655390     1.3909200
  O        3.7751240     0.2843830    -1.0656400
  C       -2.1787050     0.7693270     0.5422590
  C       -0.8949630     0.8136090    -0.3166340
  C       -2.7825860    -0.6061320     0.2233240
  C       -1.5366410    -1.4089160    -0.0835620
  C        0.3224410     1.1924200     0.5080110
  H       -1.9377070     0.8289040     1.6116220
  H       -1.0168440     1.4957790    -1.1629650
  H       -3.3408870    -1.0228010     1.0710960
  H       -1.7152364    -2.3352300    -0.7310328
  H        0.4414920     0.4968360     1.3431340
  H        0.1974400     2.2044510     0.9094280
  H       -2.8916000     2.6047160     0.5754970
  H       -4.0429610     0.2932130    -0.9254450
  H       -0.0410590    -2.0731950     0.9726900
  H        0.9073710    -1.0816890    -0.8535130
  H        3.8468470     0.3075270     1.5450430
units angstrom
no_reorient  #important for SAPT in psi4, default
symmetry c1  #important for SAPT in psi4, default
}

set PROPERTIES_ORIGIN ["COM"]
properties('MP2/aug-cc-pvtz', properties = ['dipole'])
--------------------------------------------------------------------------

    Molecular point group: c1
  Charge       = 0
  Multiplicity = 1
  Basis Set: AUG-CC-PVTZ
    Blend: AUG-CC-PVTZ
  Basis Set: (AUG-CC-PVTZ AUX)
    Blend: AUG-CC-PVTZ-JKFIT

    Orbital Energies [Eh]
    ---------------------

    Doubly Occupied:

       1A    -80.115043     2A    -20.611297     3A    -20.606397
       4A    -20.605233     5A    -20.603972     6A    -20.598549
       7A    -20.595526     8A    -20.574775     9A    -20.514684
      10A    -11.367627    11A    -11.323580    12A    -11.321458
      13A    -11.318472    14A    -11.307617    15A     -7.629994
      16A     -5.528414    17A     -5.528332    18A     -5.526831
      19A     -1.463293    20A     -1.448374    21A     -1.411582
      22A     -1.390812    23A     -1.378280    24A     -1.373790
      25A     -1.368914    26A     -1.296019    27A     -1.084376
      28A     -1.046283    29A     -0.944894    30A     -0.857583
      31A     -0.841782    32A     -0.827036    33A     -0.771383
      34A     -0.759001    35A     -0.745653    36A     -0.734018
      37A     -0.716760    38A     -0.692878    39A     -0.684508
      40A     -0.665259    41A     -0.652565    42A     -0.647519
      43A     -0.632652    44A     -0.613746    45A     -0.600845
      46A     -0.596246    47A     -0.582085    48A     -0.577566
      49A     -0.569880    50A     -0.560150    51A     -0.543379
      52A     -0.531415    53A     -0.526983    54A     -0.512053
      55A     -0.488503    56A     -0.487172    57A     -0.475151
      58A     -0.469183    59A     -0.465869    60A     -0.450619

  @DF-RHF Final Energy: -1135.82019931024411

   => Energetics <=

    Nuclear Repulsion Energy =           1215.6135706129846312
    One-Electron Energy =               -3984.5398203107042718
    Two-Electron Energy =                1633.1060503874757615
    Total Energy =                      -1135.8201993102441065
  Basis Set: (AUG-CC-PVTZ AUX)
    Blend: AUG-CC-PVTZ-RI
    Molecular point group: c1

    Geometry (in Angstrom), charge = 0, multiplicity = 1:

       Center              X                  Y                   Z               Mass
    ------------   -----------------  -----------------  -----------------  -----------------
         P            2.559035012773     0.050952715343    -0.169971835055    30.973761998420
         O           -0.793986987227    -0.508857284657    -0.856382835055    15.994914619570
         O           -3.199716987227     1.759868715343     0.205361164945    15.994914619570
         O           -3.609763987227    -0.545383284657    -0.935863835055    15.994914619570
         O           -0.977899987227    -1.689728284657     1.170453164945    15.994914619570
         O            1.448924012773     1.230952715343    -0.300434835055    15.994914619570
         O            1.688863012773    -1.291789284657    -0.336676835055    15.994914619570
         O            2.906835012773    -0.057977284657     1.410738164945    15.994914619570
         O            3.722793012773     0.291944715343    -1.045821835055    15.994914619570
         C           -2.231035987227     0.776888715343     0.562077164945    12.000000000000
         C           -0.947293987227     0.821170715343    -0.296815835055    12.000000000000
         C           -2.834916987227    -0.598570284657     0.243142164945    12.000000000000
         C           -1.588971987227    -1.401354284657    -0.063743835055    12.000000000000
         C            0.270110012773     1.199981715343     0.527829164945    12.000000000000
         H           -1.990037987227     0.836465715343     1.631440164945     1.007825032230
         H           -1.069174987227     1.503340715343    -1.143146835055     1.007825032230
         H           -3.393217987227    -1.015239284657     1.090914164945     1.007825032230
         H           -1.767567387227    -2.327668284657    -0.711214635055     1.007825032230
         H            0.389161012773     0.504397715343     1.362952164945     1.007825032230
         H            0.145109012773     2.212012715343     0.929246164945     1.007825032230
         H           -2.943930987227     2.612277715343     0.595315164945     1.007825032230
         H           -4.095291987227     0.300774715343    -0.905626835055     1.007825032230
         H           -0.093389987227    -2.065633284657     0.992508164945     1.007825032230
         H            0.855040012773    -1.074127284657    -0.833694835055     1.007825032230
         H            3.794516012773     0.315088715343     1.564861164945     1.007825032230

  Basis Set: AUG-CC-PVTZ
    Blend: AUG-CC-PVTZ
  Basis Set: (AUG-CC-PVTZ AUX)
    Blend: AUG-CC-PVTZ-JKFIT
	 Reference Energy          =   -1135.8201993102441065 [Eh]
	 Singles Energy            =      -0.0000000000000000 [Eh]
	 Same-Spin Energy          =      -0.8164196979776299 [Eh]
	 Opposite-Spin Energy      =      -2.4223330260866320 [Eh]
	 Correlation Energy        =      -3.2387527240642617 [Eh]
	 Total Energy              =   -1139.0589520343082768 [Eh]

	 ================> DF-SCS-MP2 Energies <==================
	-----------------------------------------------------------
	 SCS Same-Spin Scale       =       0.3333333333333333 [-]
	 SCS Opposite-Spin Scale   =       1.2000000000000000 [-]
	 SCS Same-Spin Energy      =      -0.2721398993258766 [Eh]
	 SCS Opposite-Spin Energy  =      -2.9067996313039584 [Eh]
	 SCS Correlation Energy    =      -3.1789395306298349 [Eh]
	 SCS Total Energy          =   -1138.9991388408739112 [Eh]
	-----------------------------------------------------------

  Dipole Moment: [D]
     X:    -3.4728      Y:     2.3150      Z:     4.0456     Total:     5.8126

*** Psi4 exiting successfully. Buy a developer a beer!
