                               Psi4 1.3.2 release

  ==> Input File <==

--------------------------------------------------------------------------
#psi4
#
memory 32 gb

molecule  {
0 1
  P        2.6114510     0.0433530    -0.1897960
  O       -0.7415730    -0.5166550    -0.8759300
  O       -3.1471200     1.7525200     0.1857420
  O       -3.5574290    -0.5524670    -0.9560380
  O       -0.9262260    -1.6975490     1.1507850
  O        1.5012860     1.2233130    -0.3203930
  O        1.7414800    -1.2994450    -0.3567160
  O        2.9590140    -0.0653000     1.3909990
  O        3.7753660     0.2843820    -1.0654240
  C       -2.1786680     0.7692630     0.5423480
  C       -0.8949230     0.8134730    -0.3165700
  C       -2.7827930    -0.6059770     0.2231310
  C       -1.3723118    -1.5150679    -0.1241250
  C        0.3225300     1.1924080     0.5079200
  H       -1.9376650     0.8286140     1.6117160
  H       -1.0169450     1.4955040    -1.1629930
  H       -3.3413290    -1.0227480     1.0706890
  H       -1.7077950    -2.2947630    -0.7028010
  H        0.4416350     0.4968690     1.3430810
  H        0.1975530     2.2044650     0.9092850
  H       -2.8909940     2.6048820     0.5755830
  H       -4.0423210     0.2940670    -0.9260900
  H       -0.0419210    -2.0739930     0.9730340
  H        0.9072950    -1.0817680    -0.8531670
  H        3.8470510     0.3069850     1.5449930
units angstrom
no_reorient  #important for SAPT in psi4, default
symmetry c1  #important for SAPT in psi4, default
}

set PROPERTIES_ORIGIN ["COM"]
properties('MP2/aug-cc-pvtz', properties = ['dipole'])
--------------------------------------------------------------------------

    Molecular point group: c1
  Charge       = 0
  Multiplicity = 1
  Basis Set: AUG-CC-PVTZ
    Blend: AUG-CC-PVTZ
  Basis Set: (AUG-CC-PVTZ AUX)
    Blend: AUG-CC-PVTZ-JKFIT

    Orbital Energies [Eh]
    ---------------------

    Doubly Occupied:

       1A    -80.117076     2A    -20.612984     3A    -20.607502
       4A    -20.606504     5A    -20.605398     6A    -20.602635
       7A    -20.602020     8A    -20.566481     9A    -20.516365
      10A    -11.363000    11A    -11.322753    12A    -11.320670
      13A    -11.317914    14A    -11.301527    15A     -7.632020
      16A     -5.530427    17A     -5.530371    18A     -5.528854
      19A     -1.472578    20A     -1.453661    21A     -1.410209
      22A     -1.395061    23A     -1.385565    24A     -1.380932
      25A     -1.362422    26A     -1.297700    27A     -1.084211
      28A     -1.019698    29A     -0.945533    30A     -0.858566
      31A     -0.838295    32A     -0.832777    33A     -0.773477
      34A     -0.760231    35A     -0.747518    36A     -0.727717
      37A     -0.718731    38A     -0.699115    39A     -0.688073
      40A     -0.675743    41A     -0.659547    42A     -0.651742
      43A     -0.635724    44A     -0.626408    45A     -0.600249
      46A     -0.592933    47A     -0.582873    48A     -0.576672
      49A     -0.568082    50A     -0.550638    51A     -0.546637
      52A     -0.540568    53A     -0.528918    54A     -0.512175
      55A     -0.491153    56A     -0.485122    57A     -0.473963
      58A     -0.468254    59A     -0.445891    60A     -0.421485

  @DF-RHF Final Energy: -1135.78539295868018

   => Energetics <=

    Nuclear Repulsion Energy =           1214.8406992795744372
    One-Electron Energy =               -3982.9094921726514258
    Two-Electron Energy =                1632.2833999343968117
    Total Energy =                      -1135.7853929586801769
  Basis Set: (AUG-CC-PVTZ AUX)
    Blend: AUG-CC-PVTZ-RI
    Molecular point group: c1

    Geometry (in Angstrom), charge = 0, multiplicity = 1:

       Center              X                  Y                   Z               Mass
    ------------   -----------------  -----------------  -----------------  -----------------
         P            2.550496785849     0.056268966141    -0.167989506281    30.973761998420
         O           -0.802527214151    -0.503739033859    -0.854123506281    15.994914619570
         O           -3.208074214151     1.765435966141     0.207548493719    15.994914619570
         O           -3.618383214151    -0.539551033859    -0.934231506281    15.994914619570
         O           -0.987180214151    -1.684633033859     1.172591493719    15.994914619570
         O            1.440331785849     1.236228966141    -0.298586506281    15.994914619570
         O            1.680525785849    -1.286529033859    -0.334909506281    15.994914619570
         O            2.898059785849    -0.052384033859     1.412805493719    15.994914619570
         O            3.714411785849     0.297297966141    -1.043617506281    15.994914619570
         C           -2.239622214151     0.782178966141     0.564154493719    12.000000000000
         C           -0.955877214151     0.826388966141    -0.294763506281    12.000000000000
         C           -2.843747214151    -0.593061033859     0.244937493719    12.000000000000
         C           -1.433266014151    -1.502151933859    -0.102318506281    12.000000000000
         C            0.261575785849     1.205323966141     0.529726493719    12.000000000000
         H           -1.998619214151     0.841529966141     1.633522493719     1.007825032230
         H           -1.077899214151     1.508419966141    -1.141186506281     1.007825032230
         H           -3.402283214151    -1.009832033859     1.092495493719     1.007825032230
         H           -1.768749214151    -2.281847033859    -0.680994506281     1.007825032230
         H            0.380680785849     0.509784966141     1.364887493719     1.007825032230
         H            0.136598785849     2.217380966141     0.931091493719     1.007825032230
         H           -2.951948214151     2.617797966141     0.597389493719     1.007825032230
         H           -4.103275214151     0.306982966141    -0.904283506281     1.007825032230
         H           -0.102875214151    -2.061077033859     0.994840493719     1.007825032230
         H            0.846340785849    -1.068852033859    -0.831360506281     1.007825032230
         H            3.786096785849     0.319900966141     1.566799493719     1.007825032230

  Basis Set: AUG-CC-PVTZ
    Blend: AUG-CC-PVTZ
  Basis Set: (AUG-CC-PVTZ AUX)
    Blend: AUG-CC-PVTZ-JKFIT
	 Reference Energy          =   -1135.7853929586801769 [Eh]
	 Singles Energy            =      -0.0000000000000000 [Eh]
	 Same-Spin Energy          =      -0.8174818252744253 [Eh]
	 Opposite-Spin Energy      =      -2.4242225182751742 [Eh]
	 Correlation Energy        =      -3.2417043435495994 [Eh]
	 Total Energy              =   -1139.0270973022297767 [Eh]

	 ================> DF-SCS-MP2 Energies <==================
	-----------------------------------------------------------
	 SCS Same-Spin Scale       =       0.3333333333333333 [-]
	 SCS Opposite-Spin Scale   =       1.2000000000000000 [-]
	 SCS Same-Spin Energy      =      -0.2724939417581417 [Eh]
	 SCS Opposite-Spin Energy  =      -2.9090670219302091 [Eh]
	 SCS Correlation Energy    =      -3.1815609636883506 [Eh]
	 SCS Total Energy          =   -1138.9669539223684751 [Eh]
	-----------------------------------------------------------

  Dipole Moment: [D]
     X:    -3.0048      Y:     2.1055      Z:     4.0598     Total:     5.4721

*** Psi4 exiting successfully. Buy a developer a beer!
