                               Psi4 1.4a3.dev225

  ==> Input File <==

--------------------------------------------------------------------------
#psi4
#
memory 32 gb

molecule  {
0 1
  P        2.6113660     0.0433910    -0.1897900
  O       -0.7416560    -0.5164190    -0.8762010
  O       -3.1473860     1.7523070     0.1855430
  O       -3.5574330    -0.5529450    -0.9556820
  O       -0.9255690    -1.6972900     1.1506350
  O        1.5012550     1.2233910    -0.3202530
  O        1.7411940    -1.2993510    -0.3564950
  O        2.9591660    -0.0655390     1.3909200
  O        3.7751240     0.2843830    -1.0656400
  C       -2.1787050     0.7693270     0.5422590
  C       -0.8949630     0.8136090    -0.3166340
  C       -2.8100272    -0.6042484     0.1815696
  C       -1.5366410    -1.4089160    -0.0835620
  C        0.3224410     1.1924200     0.5080110
  H       -1.9377070     0.8289040     1.6116220
  H       -1.0168440     1.4957790    -1.1629650
  H       -3.3408870    -1.0228010     1.0710960
  H       -1.7074320    -2.2947510    -0.7027390
  H        0.4414920     0.4968360     1.3431340
  H        0.1974400     2.2044510     0.9094280
  H       -2.8916000     2.6047160     0.5754970
  H       -4.0429610     0.2932130    -0.9254450
  H       -0.0410590    -2.0731950     0.9726900
  H        0.9073710    -1.0816890    -0.8535130
  H        3.8468470     0.3075270     1.5450430
units angstrom
no_reorient  #important for SAPT in psi4, default
symmetry c1  #important for SAPT in psi4, default
}

set PROPERTIES_ORIGIN ["COM"]
properties('MP2/aug-cc-pvtz', properties = ['dipole'])
--------------------------------------------------------------------------

    Molecular point group: c1
  Charge       = 0
  Multiplicity = 1
  Basis Set: AUG-CC-PVTZ
    Blend: AUG-CC-PVTZ
  Basis Set: (AUG-CC-PVTZ AUX)
    Blend: AUG-CC-PVTZ-JKFIT

    Orbital Energies [Eh]
    ---------------------

    Doubly Occupied:

       1A    -80.114549     2A    -20.610845     3A    -20.605596
       4A    -20.604573     5A    -20.602369     6A    -20.597988
       7A    -20.594441     8A    -20.580014     9A    -20.514267
      10A    -11.360826    11A    -11.321998    12A    -11.320603
      13A    -11.317106    14A    -11.308441    15A     -7.629500
      16A     -5.527920    17A     -5.527838    18A     -5.526339
      19A     -1.462760    20A     -1.448318    21A     -1.415843
      22A     -1.390593    23A     -1.387374    24A     -1.377661
      25A     -1.369094    26A     -1.295603    27A     -1.081154
      28A     -1.041903    29A     -0.945225    30A     -0.856309
      31A     -0.841894    32A     -0.828388    33A     -0.771288
      34A     -0.763883    35A     -0.746187    36A     -0.733217
      37A     -0.716329    38A     -0.692185    39A     -0.686625
      40A     -0.671589    41A     -0.653139    42A     -0.647674
      43A     -0.633491    44A     -0.616727    45A     -0.602302
      46A     -0.599012    47A     -0.582692    48A     -0.578156
      49A     -0.570412    50A     -0.562928    51A     -0.543201
      52A     -0.531771    53A     -0.527292    54A     -0.510741
      55A     -0.488528    56A     -0.484409    57A     -0.473965
      58A     -0.467553    59A     -0.461928    60A     -0.446742

  @DF-RHF Final Energy: -1135.82092485411613

   => Energetics <=

    Nuclear Repulsion Energy =           1215.8854120007506481
    One-Electron Energy =               -3985.0700763675345115
    Two-Electron Energy =                1633.3637395126679621
    Total Energy =                      -1135.8209248541161287
  Basis Set: (AUG-CC-PVTZ AUX)
    Blend: AUG-CC-PVTZ-RI
    Molecular point group: c1

    Geometry (in Angstrom), charge = 0, multiplicity = 1:

       Center              X                  Y                   Z               Mass
    ------------   -----------------  -----------------  -----------------  -----------------
         P            2.560432413487     0.050677090690    -0.167917494835    30.973761998420
         O           -0.792589586513    -0.509132909310    -0.854328494835    15.994914619570
         O           -3.198319586513     1.759593090690     0.207415505165    15.994914619570
         O           -3.608366586513    -0.545658909310    -0.933809494835    15.994914619570
         O           -0.976502586513    -1.690003909310     1.172507505165    15.994914619570
         O            1.450321413487     1.230677090690    -0.298380494835    15.994914619570
         O            1.690260413487    -1.292064909310    -0.334622494835    15.994914619570
         O            2.908232413487    -0.058252909310     1.412792505165    15.994914619570
         O            3.724190413487     0.291669090690    -1.043767494835    15.994914619570
         C           -2.229638586513     0.776613090690     0.564131505165    12.000000000000
         C           -0.945896586513     0.820895090690    -0.294761494835    12.000000000000
         C           -2.860960786513    -0.596962309310     0.203442105165    12.000000000000
         C           -1.587574586513    -1.401629909310    -0.061689494835    12.000000000000
         C            0.271507413487     1.199706090690     0.529883505165    12.000000000000
         H           -1.988640586513     0.836190090690     1.633494505165     1.007825032230
         H           -1.067777586513     1.503065090690    -1.141092494835     1.007825032230
         H           -3.391820586513    -1.015514909310     1.092968505165     1.007825032230
         H           -1.758365586513    -2.287464909310    -0.680866494835     1.007825032230
         H            0.390558413487     0.504122090690     1.365006505165     1.007825032230
         H            0.146506413487     2.211737090690     0.931300505165     1.007825032230
         H           -2.942533586513     2.612002090690     0.597369505165     1.007825032230
         H           -4.093894586513     0.300499090690    -0.903572494835     1.007825032230
         H           -0.091992586513    -2.065908909310     0.994562505165     1.007825032230
         H            0.856437413487    -1.074402909310    -0.831640494835     1.007825032230
         H            3.795913413487     0.314813090690     1.566915505165     1.007825032230

  Basis Set: AUG-CC-PVTZ
    Blend: AUG-CC-PVTZ
  Basis Set: (AUG-CC-PVTZ AUX)
    Blend: AUG-CC-PVTZ-JKFIT
	 Reference Energy          =   -1135.8209248541161287 [Eh]
	 Singles Energy            =      -0.0000000000000000 [Eh]
	 Same-Spin Energy          =      -0.8162884943357416 [Eh]
	 Opposite-Spin Energy      =      -2.4212628987868490 [Eh]
	 Correlation Energy        =      -3.2375513931225903 [Eh]
	 Total Energy              =   -1139.0584762472387865 [Eh]

	 ================> DF-SCS-MP2 Energies <==================
	-----------------------------------------------------------
	 SCS Same-Spin Scale       =       0.3333333333333333 [-]
	 SCS Opposite-Spin Scale   =       1.2000000000000000 [-]
	 SCS Same-Spin Energy      =      -0.2720961647785805 [Eh]
	 SCS Opposite-Spin Energy  =      -2.9055154785442188 [Eh]
	 SCS Correlation Energy    =      -3.1776116433227992 [Eh]
	 SCS Total Energy          =   -1138.9985364974388631 [Eh]
	-----------------------------------------------------------

  Dipole Moment: [D]
     X:    -3.6045      Y:     2.3152      Z:     3.9008     Total:     5.7938

*** Psi4 exiting successfully. Buy a developer a beer!
