                               Psi4 1.3.2 release

  ==> Input File <==

--------------------------------------------------------------------------
#psi4
#
memory 32 gb

molecule  {
0 1
  P        2.6114510     0.0433530    -0.1897960
  O       -0.7415730    -0.5166550    -0.8759300
  O       -3.1471200     1.7525200     0.1857420
  O       -3.5574290    -0.5524670    -0.9560380
  O       -0.9262260    -1.6975490     1.1507850
  O        1.5012860     1.2233130    -0.3203930
  O        1.7414800    -1.2994450    -0.3567160
  O        2.9590140    -0.0653000     1.3909990
  O        3.7753660     0.2843820    -1.0654240
  C       -2.1786680     0.7692630     0.5423480
  C       -0.9104551     0.8040261    -0.2989374
  C       -2.7827930    -0.6059770     0.2231310
  C       -1.5369320    -1.4089660    -0.0835960
  C        0.3225300     1.1924080     0.5079200
  H       -1.9376650     0.8286140     1.6117160
  H       -1.0169450     1.4955040    -1.1629930
  H       -3.3413290    -1.0227480     1.0706890
  H       -1.7077950    -2.2947630    -0.7028010
  H        0.4416350     0.4968690     1.3430810
  H        0.1975530     2.2044650     0.9092850
  H       -2.8909940     2.6048820     0.5755830
  H       -4.0423210     0.2940670    -0.9260900
  H       -0.0419210    -2.0739930     0.9730340
  H        0.9072950    -1.0817680    -0.8531670
  H        3.8470510     0.3069850     1.5449930
units angstrom
no_reorient  #important for SAPT in psi4, default
symmetry c1  #important for SAPT in psi4, default
}

set PROPERTIES_ORIGIN ["COM"]
properties('MP2/aug-cc-pvtz', properties = ['dipole'])
--------------------------------------------------------------------------

    Molecular point group: c1
  Charge       = 0
  Multiplicity = 1
  Basis Set: AUG-CC-PVTZ
    Blend: AUG-CC-PVTZ
  Basis Set: (AUG-CC-PVTZ AUX)
    Blend: AUG-CC-PVTZ-JKFIT

    Orbital Energies [Eh]
    ---------------------

    Doubly Occupied:

       1A    -80.115119     2A    -20.611214     3A    -20.606686
       4A    -20.605640     5A    -20.604173     6A    -20.598610
       7A    -20.595068     8A    -20.575176     9A    -20.514744
      10A    -11.362189    11A    -11.322748    12A    -11.321416
      13A    -11.318714    14A    -11.307658    15A     -7.630065
      16A     -5.528486    17A     -5.528404    18A     -5.526900
      19A     -1.463743    20A     -1.448757    21A     -1.411992
      22A     -1.390645    23A     -1.378289    24A     -1.374017
      25A     -1.369110    26A     -1.296052    27A     -1.087195
      28A     -1.046408    29A     -0.947421    30A     -0.857519
      31A     -0.841084    32A     -0.830244    33A     -0.772211
      34A     -0.760221    35A     -0.748226    36A     -0.734803
      37A     -0.716997    38A     -0.692144    39A     -0.684042
      40A     -0.667090    41A     -0.653134    42A     -0.647574
      43A     -0.633362    44A     -0.613774    45A     -0.601179
      46A     -0.595724    47A     -0.582024    48A     -0.578336
      49A     -0.569199    50A     -0.559872    51A     -0.543534
      52A     -0.531957    53A     -0.527148    54A     -0.512198
      55A     -0.491020    56A     -0.489644    57A     -0.474353
      58A     -0.468928    59A     -0.465577    60A     -0.451648

  @DF-RHF Final Energy: -1135.82160031633089

   => Energetics <=

    Nuclear Repulsion Energy =           1216.1606163607439157
    One-Electron Energy =               -3985.6016212088497923
    Two-Electron Energy =                1633.6194045317749897
    Total Energy =                      -1135.8216003163308869
  Basis Set: (AUG-CC-PVTZ AUX)
    Blend: AUG-CC-PVTZ-RI
    Molecular point group: c1

    Geometry (in Angstrom), charge = 0, multiplicity = 1:

       Center              X                  Y                   Z               Mass
    ------------   -----------------  -----------------  -----------------  -----------------
         P            2.559895253583     0.051226516509    -0.171023771850    30.973761998420
         O           -0.793128746417    -0.508781483491    -0.857157771850    15.994914619570
         O           -3.198675746417     1.760393516509     0.204514228150    15.994914619570
         O           -3.608984746417    -0.544593483491    -0.937265771850    15.994914619570
         O           -0.977781746417    -1.689675483491     1.169557228150    15.994914619570
         O            1.449730253583     1.231186516509    -0.301620771850    15.994914619570
         O            1.689924253583    -1.291571483491    -0.337943771850    15.994914619570
         O            2.907458253583    -0.057426483491     1.409771228150    15.994914619570
         O            3.723810253583     0.292255516509    -1.046651771850    15.994914619570
         C           -2.230223746417     0.777136516509     0.561120228150    12.000000000000
         C           -0.962010846417     0.811899616509    -0.280165171850    12.000000000000
         C           -2.834348746417    -0.598103483491     0.241903228150    12.000000000000
         C           -1.588487746417    -1.401092483491    -0.064823771850    12.000000000000
         C            0.270974253583     1.200281516509     0.526692228150    12.000000000000
         H           -1.989220746417     0.836487516509     1.630488228150     1.007825032230
         H           -1.068500746417     1.503377516509    -1.144220771850     1.007825032230
         H           -3.392884746417    -1.014874483491     1.089461228150     1.007825032230
         H           -1.759350746417    -2.286889483491    -0.684028771850     1.007825032230
         H            0.390079253583     0.504742516509     1.361853228150     1.007825032230
         H            0.145997253583     2.212338516509     0.928057228150     1.007825032230
         H           -2.942549746417     2.612755516509     0.594355228150     1.007825032230
         H           -4.093876746417     0.301940516509    -0.907317771850     1.007825032230
         H           -0.093476746417    -2.066119483491     0.991806228150     1.007825032230
         H            0.855739253583    -1.073894483491    -0.834394771850     1.007825032230
         H            3.795495253583     0.314858516509     1.563765228150     1.007825032230

  Basis Set: AUG-CC-PVTZ
    Blend: AUG-CC-PVTZ
  Basis Set: (AUG-CC-PVTZ AUX)
    Blend: AUG-CC-PVTZ-JKFIT
	 Reference Energy          =   -1135.8216003163308869 [Eh]
	 Singles Energy            =      -0.0000000000000000 [Eh]
	 Same-Spin Energy          =      -0.8164755666121033 [Eh]
	 Opposite-Spin Energy      =      -2.4221251277253910 [Eh]
	 Correlation Energy        =      -3.2386006943374941 [Eh]
	 Total Energy              =   -1139.0602010106683792 [Eh]

	 ================> DF-SCS-MP2 Energies <==================
	-----------------------------------------------------------
	 SCS Same-Spin Scale       =       0.3333333333333333 [-]
	 SCS Opposite-Spin Scale   =       1.2000000000000000 [-]
	 SCS Same-Spin Energy      =      -0.2721585222040344 [Eh]
	 SCS Opposite-Spin Energy  =      -2.9065501532704690 [Eh]
	 SCS Correlation Energy    =      -3.1787086754745033 [Eh]
	 SCS Total Energy          =   -1139.0003089918054684 [Eh]
	-----------------------------------------------------------

  Dipole Moment: [D]
     X:    -3.4860      Y:     2.2749      Z:     4.0366     Total:     5.7984

*** Psi4 exiting successfully. Buy a developer a beer!
