                               Psi4 1.3.2 release

  ==> Input File <==

--------------------------------------------------------------------------
#psi4
#
memory 32 gb

molecule  {
0 1
  P        2.6114510     0.0433530    -0.1897960
  O       -0.7238889    -0.5342851    -0.8776377
  O       -3.1471200     1.7525200     0.1857420
  O       -3.5574290    -0.5524670    -0.9560380
  O       -0.9262260    -1.6975490     1.1507850
  O        1.5012860     1.2233130    -0.3203930
  O        1.7414800    -1.2994450    -0.3567160
  O        2.9590140    -0.0653000     1.3909990
  O        3.7753660     0.2843820    -1.0654240
  C       -2.1786680     0.7692630     0.5423480
  C       -0.8949230     0.8134730    -0.3165700
  C       -2.7827930    -0.6059770     0.2231310
  C       -1.5369320    -1.4089660    -0.0835960
  C        0.3225300     1.1924080     0.5079200
  H       -1.9376650     0.8286140     1.6117160
  H       -1.0169450     1.4955040    -1.1629930
  H       -3.3413290    -1.0227480     1.0706890
  H       -1.7077950    -2.2947630    -0.7028010
  H        0.4416350     0.4968690     1.3430810
  H        0.1975530     2.2044650     0.9092850
  H       -2.8909940     2.6048820     0.5755830
  H       -4.0423210     0.2940670    -0.9260900
  H       -0.0419210    -2.0739930     0.9730340
  H        0.9072950    -1.0817680    -0.8531670
  H        3.8470510     0.3069850     1.5449930
units angstrom
no_reorient  #important for SAPT in psi4, default
symmetry c1  #important for SAPT in psi4, default
}

set PROPERTIES_ORIGIN ["COM"]
properties('MP2/aug-cc-pvtz', properties = ['dipole'])
--------------------------------------------------------------------------

    Molecular point group: c1
  Charge       = 0
  Multiplicity = 1
  Basis Set: AUG-CC-PVTZ
    Blend: AUG-CC-PVTZ
  Basis Set: (AUG-CC-PVTZ AUX)
    Blend: AUG-CC-PVTZ-JKFIT

    Orbital Energies [Eh]
    ---------------------

    Doubly Occupied:

       1A    -80.114404     2A    -20.610807     3A    -20.607282
       4A    -20.605051     5A    -20.604304     6A    -20.596753
       7A    -20.593936     8A    -20.575437     9A    -20.514167
      10A    -11.361736    11A    -11.324692    12A    -11.322018
      13A    -11.320352    14A    -11.308059    15A     -7.629352
      16A     -5.527780    17A     -5.527682    18A     -5.526191
      19A     -1.461693    20A     -1.446958    21A     -1.412264
      22A     -1.390403    23A     -1.377265    24A     -1.373708
      25A     -1.366384    26A     -1.295502    27A     -1.086042
      28A     -1.046361    29A     -0.945857    30A     -0.858479
      31A     -0.841266    32A     -0.829357    33A     -0.771922
      34A     -0.759302    35A     -0.747037    36A     -0.734193
      37A     -0.716352    38A     -0.692324    39A     -0.684390
      40A     -0.666841    41A     -0.652795    42A     -0.646122
      43A     -0.633536    44A     -0.612699    45A     -0.602060
      46A     -0.595071    47A     -0.581621    48A     -0.577543
      49A     -0.569908    50A     -0.560045    51A     -0.542714
      52A     -0.531762    53A     -0.526384    54A     -0.512521
      55A     -0.490068    56A     -0.489056    57A     -0.475427
      58A     -0.469129    59A     -0.465652    60A     -0.451659

  @DF-RHF Final Energy: -1135.82159136743508

   => Energetics <=

    Nuclear Repulsion Energy =           1215.6344300380612822
    One-Electron Energy =               -3984.5926907482903516
    Two-Electron Energy =                1633.1366693427942209
    Total Energy =                      -1135.8215913674350759
  Basis Set: (AUG-CC-PVTZ AUX)
    Blend: AUG-CC-PVTZ-RI
    Molecular point group: c1

    Geometry (in Angstrom), charge = 0, multiplicity = 1:

       Center              X                  Y                   Z               Mass
    ------------   -----------------  -----------------  -----------------  -----------------
         P            2.557855245780     0.051959625648    -0.169985137844    30.973761998420
         O           -0.777484654220    -0.525678474352    -0.857826837844    15.994914619570
         O           -3.200715754220     1.761126625648     0.205552862156    15.994914619570
         O           -3.611024754220    -0.543860374352    -0.936227137844    15.994914619570
         O           -0.979821754220    -1.688942374352     1.170595862156    15.994914619570
         O            1.447690245780     1.231919625648    -0.300582137844    15.994914619570
         O            1.687884245780    -1.290838374352    -0.336905137844    15.994914619570
         O            2.905418245780    -0.056693374352     1.410809862156    15.994914619570
         O            3.721770245780     0.292988625648    -1.045613137844    15.994914619570
         C           -2.232263754220     0.777869625648     0.562158862156    12.000000000000
         C           -0.948518754220     0.822079625648    -0.296759137844    12.000000000000
         C           -2.836388754220    -0.597370374352     0.242941862156    12.000000000000
         C           -1.590527754220    -1.400359374352    -0.063785137844    12.000000000000
         C            0.268934245780     1.201014625648     0.527730862156    12.000000000000
         H           -1.991260754220     0.837220625648     1.631526862156     1.007825032230
         H           -1.070540754220     1.504110625648    -1.143182137844     1.007825032230
         H           -3.394924754220    -1.014141374352     1.090499862156     1.007825032230
         H           -1.761390754220    -2.286156374352    -0.682990137844     1.007825032230
         H            0.388039245780     0.505475625648     1.362891862156     1.007825032230
         H            0.143957245780     2.213071625648     0.929095862156     1.007825032230
         H           -2.944589754220     2.613488625648     0.595393862156     1.007825032230
         H           -4.095916754220     0.302673625648    -0.906279137844     1.007825032230
         H           -0.095516754220    -2.065386374352     0.992844862156     1.007825032230
         H            0.853699245780    -1.073161374352    -0.833356137844     1.007825032230
         H            3.793455245780     0.315591625648     1.564803862156     1.007825032230

  Basis Set: AUG-CC-PVTZ
    Blend: AUG-CC-PVTZ
  Basis Set: (AUG-CC-PVTZ AUX)
    Blend: AUG-CC-PVTZ-JKFIT
	 Reference Energy          =   -1135.8215913674350759 [Eh]
	 Singles Energy            =      -0.0000000000000000 [Eh]
	 Same-Spin Energy          =      -0.8164184351738126 [Eh]
	 Opposite-Spin Energy      =      -2.4223708056600999 [Eh]
	 Correlation Energy        =      -3.2387892408339125 [Eh]
	 Total Energy              =   -1139.0603806082690426 [Eh]

	 ================> DF-SCS-MP2 Energies <==================
	-----------------------------------------------------------
	 SCS Same-Spin Scale       =       0.3333333333333333 [-]
	 SCS Opposite-Spin Scale   =       1.2000000000000000 [-]
	 SCS Same-Spin Energy      =      -0.2721394783912708 [Eh]
	 SCS Opposite-Spin Energy  =      -2.9068449667921197 [Eh]
	 SCS Correlation Energy    =      -3.1789844451833904 [Eh]
	 SCS Total Energy          =   -1139.0005758126185356 [Eh]
	-----------------------------------------------------------

  Dipole Moment: [D]
     X:    -3.5562      Y:     2.3639      Z:     4.0448     Total:     5.8817

*** Psi4 exiting successfully. Buy a developer a beer!
