                               Psi4 1.3.2 release

  ==> Input File <==

--------------------------------------------------------------------------
#psi4
#
memory 32 gb

molecule  {
0 1
  P        2.6114510     0.0433530    -0.1897960
  O       -0.7415730    -0.5166550    -0.8759300
  O       -3.1471200     1.7525200     0.1857420
  O       -3.5742992    -0.5390571    -0.9440894
  O       -0.9262260    -1.6975490     1.1507850
  O        1.5012860     1.2233130    -0.3203930
  O        1.7414800    -1.2994450    -0.3567160
  O        2.9590140    -0.0653000     1.3909990
  O        3.7753660     0.2843820    -1.0654240
  C       -2.1786680     0.7692630     0.5423480
  C       -0.8949230     0.8134730    -0.3165700
  C       -2.7827930    -0.6059770     0.2231310
  C       -1.5369320    -1.4089660    -0.0835960
  C        0.3225300     1.1924080     0.5079200
  H       -1.9376650     0.8286140     1.6117160
  H       -1.0169450     1.4955040    -1.1629930
  H       -3.3413290    -1.0227480     1.0706890
  H       -1.7077950    -2.2947630    -0.7028010
  H        0.4416350     0.4968690     1.3430810
  H        0.1975530     2.2044650     0.9092850
  H       -2.8909940     2.6048820     0.5755830
  H       -4.0423210     0.2940670    -0.9260900
  H       -0.0419210    -2.0739930     0.9730340
  H        0.9072950    -1.0817680    -0.8531670
  H        3.8470510     0.3069850     1.5449930
units angstrom
no_reorient  #important for SAPT in psi4, default
symmetry c1  #important for SAPT in psi4, default
}

set PROPERTIES_ORIGIN ["COM"]
properties('MP2/aug-cc-pvtz', properties = ['dipole'])
--------------------------------------------------------------------------

    Molecular point group: c1
  Charge       = 0
  Multiplicity = 1
  Basis Set: AUG-CC-PVTZ
    Blend: AUG-CC-PVTZ
  Basis Set: (AUG-CC-PVTZ AUX)
    Blend: AUG-CC-PVTZ-JKFIT

    Orbital Energies [Eh]
    ---------------------

    Doubly Occupied:

       1A    -80.115078     2A    -20.611306     3A    -20.605854
       4A    -20.605203     5A    -20.603868     6A    -20.598650
       7A    -20.595414     8A    -20.572491     9A    -20.514717
      10A    -11.362946    11A    -11.323173    12A    -11.321364
      13A    -11.318316    14A    -11.307690    15A     -7.630029
      16A     -5.528449    17A     -5.528367    18A     -5.526866
      19A     -1.463447    20A     -1.448534    21A     -1.411976
      22A     -1.390820    23A     -1.378372    24A     -1.375358
      25A     -1.369836    26A     -1.296054    27A     -1.084476
      28A     -1.048108    29A     -0.946932    30A     -0.857892
      31A     -0.842743    32A     -0.830098    33A     -0.772317
      34A     -0.761232    35A     -0.747681    36A     -0.734234
      37A     -0.716944    38A     -0.693011    39A     -0.684824
      40A     -0.669392    41A     -0.653409    42A     -0.648076
      43A     -0.632902    44A     -0.614236    45A     -0.600980
      46A     -0.596476    47A     -0.582190    48A     -0.577876
      49A     -0.569921    50A     -0.560542    51A     -0.543525
      52A     -0.532525    53A     -0.527419    54A     -0.511600
      55A     -0.490677    56A     -0.488133    57A     -0.475197
      58A     -0.469190    59A     -0.465732    60A     -0.450760

  @DF-RHF Final Energy: -1135.82379252250416

   => Energetics <=

    Nuclear Repulsion Energy =           1215.8377444246439154
    One-Electron Energy =               -3984.9522149762906338
    Two-Electron Energy =                1633.2906780291425548
    Total Energy =                      -1135.8237925225041636
  Basis Set: (AUG-CC-PVTZ AUX)
    Blend: AUG-CC-PVTZ-RI
    Molecular point group: c1

    Geometry (in Angstrom), charge = 0, multiplicity = 1:

       Center              X                  Y                   Z               Mass
    ------------   -----------------  -----------------  -----------------  -----------------
         P            2.560258059059     0.049801187360    -0.170934760292    30.973761998420
         O           -0.792765940941    -0.510206812640    -0.857068760292    15.994914619570
         O           -3.198312940941     1.758968187360     0.204603239708    15.994914619570
         O           -3.625492140941    -0.532608912640    -0.925228160292    15.994914619570
         O           -0.977418940941    -1.691100812640     1.169646239708    15.994914619570
         O            1.450093059059     1.229761187360    -0.301531760292    15.994914619570
         O            1.690287059059    -1.292996812640    -0.337854760292    15.994914619570
         O            2.907821059059    -0.058851812640     1.409860239708    15.994914619570
         O            3.724173059059     0.290830187360    -1.046562760292    15.994914619570
         C           -2.229860940941     0.775711187360     0.561209239708    12.000000000000
         C           -0.946115940941     0.819921187360    -0.297708760292    12.000000000000
         C           -2.833985940941    -0.599528812640     0.241992239708    12.000000000000
         C           -1.588124940941    -1.402517812640    -0.064734760292    12.000000000000
         C            0.271337059059     1.198856187360     0.526781239708    12.000000000000
         H           -1.988857940941     0.835062187360     1.630577239708     1.007825032230
         H           -1.068137940941     1.501952187360    -1.144131760292     1.007825032230
         H           -3.392521940941    -1.016299812640     1.089550239708     1.007825032230
         H           -1.758987940941    -2.288314812640    -0.683939760292     1.007825032230
         H            0.390442059059     0.503317187360     1.361942239708     1.007825032230
         H            0.146360059059     2.210913187360     0.928146239708     1.007825032230
         H           -2.942186940941     2.611330187360     0.594444239708     1.007825032230
         H           -4.093513940941     0.300515187360    -0.907228760292     1.007825032230
         H           -0.093113940941    -2.067544812640     0.991895239708     1.007825032230
         H            0.856102059059    -1.075319812640    -0.834305760292     1.007825032230
         H            3.795858059059     0.313433187360     1.563854239708     1.007825032230

  Basis Set: AUG-CC-PVTZ
    Blend: AUG-CC-PVTZ
  Basis Set: (AUG-CC-PVTZ AUX)
    Blend: AUG-CC-PVTZ-JKFIT
	 Reference Energy          =   -1135.8237925225041636 [Eh]
	 Singles Energy            =      -0.0000000000000000 [Eh]
	 Same-Spin Energy          =      -0.8159250197109292 [Eh]
	 Opposite-Spin Energy      =      -2.4210590205833298 [Eh]
	 Correlation Energy        =      -3.2369840402942591 [Eh]
	 Total Energy              =   -1139.0607765627983099 [Eh]

	 ================> DF-SCS-MP2 Energies <==================
	-----------------------------------------------------------
	 SCS Same-Spin Scale       =       0.3333333333333333 [-]
	 SCS Opposite-Spin Scale   =       1.2000000000000000 [-]
	 SCS Same-Spin Energy      =      -0.2719750065703097 [Eh]
	 SCS Opposite-Spin Energy  =      -2.9052708246999956 [Eh]
	 SCS Correlation Energy    =      -3.1772458312703051 [Eh]
	 SCS Total Energy          =   -1139.0010383537744474 [Eh]
	-----------------------------------------------------------

  Dipole Moment: [D]
     X:    -3.4410      Y:     2.2767      Z:     4.0219     Total:     5.7619

*** Psi4 exiting successfully. Buy a developer a beer!
