                               Psi4 1.3.2 release

  ==> Input File <==

--------------------------------------------------------------------------
#psi4
#
memory 32 gb

molecule  {
0 1
  P        2.6114510     0.0433530    -0.1897960
  O       -0.7589503    -0.5174949    -0.8939241
  O       -3.1471200     1.7525200     0.1857420
  O       -3.5574290    -0.5524670    -0.9560380
  O       -0.9262260    -1.6975490     1.1507850
  O        1.5012860     1.2233130    -0.3203930
  O        1.7414800    -1.2994450    -0.3567160
  O        2.9590140    -0.0653000     1.3909990
  O        3.7753660     0.2843820    -1.0654240
  C       -2.1786680     0.7692630     0.5423480
  C       -0.8949230     0.8134730    -0.3165700
  C       -2.7827930    -0.6059770     0.2231310
  C       -1.5369320    -1.4089660    -0.0835960
  C        0.3225300     1.1924080     0.5079200
  H       -1.9376650     0.8286140     1.6117160
  H       -1.0169450     1.4955040    -1.1629930
  H       -3.3413290    -1.0227480     1.0706890
  H       -1.7077950    -2.2947630    -0.7028010
  H        0.4416350     0.4968690     1.3430810
  H        0.1975530     2.2044650     0.9092850
  H       -2.8909940     2.6048820     0.5755830
  H       -4.0423210     0.2940670    -0.9260900
  H       -0.0419210    -2.0739930     0.9730340
  H        0.9072950    -1.0817680    -0.8531670
  H        3.8470510     0.3069850     1.5449930
units angstrom
no_reorient  #important for SAPT in psi4, default
symmetry c1  #important for SAPT in psi4, default
}

set PROPERTIES_ORIGIN ["COM"]
properties('MP2/aug-cc-pvtz', properties = ['dipole'])
--------------------------------------------------------------------------

    Molecular point group: c1
  Charge       = 0
  Multiplicity = 1
  Basis Set: AUG-CC-PVTZ
    Blend: AUG-CC-PVTZ
  Basis Set: (AUG-CC-PVTZ AUX)
    Blend: AUG-CC-PVTZ-JKFIT

    Orbital Energies [Eh]
    ---------------------

    Doubly Occupied:

       1A    -80.115528     2A    -20.611661     3A    -20.605970
       4A    -20.605570     5A    -20.603669     6A    -20.599693
       7A    -20.595675     8A    -20.574164     9A    -20.515073
      10A    -11.361601    11A    -11.323060    12A    -11.322099
      13A    -11.318433    14A    -11.306581    15A     -7.630481
      16A     -5.528898    17A     -5.528821    18A     -5.527317
      19A     -1.462432    20A     -1.448194    21A     -1.411037
      22A     -1.391093    23A     -1.378974    24A     -1.373537
      25A     -1.368152    26A     -1.296409    27A     -1.084338
      28A     -1.046268    29A     -0.946967    30A     -0.857604
      31A     -0.841521    32A     -0.828891    33A     -0.771678
      34A     -0.759513    35A     -0.747044    36A     -0.734370
      37A     -0.717365    38A     -0.693455    39A     -0.684194
      40A     -0.666489    41A     -0.653184    42A     -0.647497
      43A     -0.632150    44A     -0.614168    45A     -0.600885
      46A     -0.595914    47A     -0.582543    48A     -0.577751
      49A     -0.569465    50A     -0.559644    51A     -0.543959
      52A     -0.532483    53A     -0.527212    54A     -0.511604
      55A     -0.490616    56A     -0.488118    57A     -0.475501
      58A     -0.469364    59A     -0.466054    60A     -0.450386

  @DF-RHF Final Energy: -1135.82203435559495

   => Energetics <=

    Nuclear Repulsion Energy =           1215.4263731118614942
    One-Electron Energy =               -3984.1521850726539924
    Two-Electron Energy =                1632.9037776051973196
    Total Energy =                      -1135.8220343555949512
  Basis Set: (AUG-CC-PVTZ AUX)
    Blend: AUG-CC-PVTZ-RI
    Molecular point group: c1

    Geometry (in Angstrom), charge = 0, multiplicity = 1:

       Center              X                  Y                   Z               Mass
    ------------   -----------------  -----------------  -----------------  -----------------
         P            2.560293321432     0.050792080205    -0.168852625300    30.973761998420
         O           -0.810107978568    -0.510055819795    -0.872980725300    15.994914619570
         O           -3.198277678568     1.759959080205     0.206685374700    15.994914619570
         O           -3.608586678568    -0.545027919795    -0.935094625300    15.994914619570
         O           -0.977383678568    -1.690109919795     1.171728374700    15.994914619570
         O            1.450128321432     1.230752080205    -0.299449625300    15.994914619570
         O            1.690322321432    -1.292005919795    -0.335772625300    15.994914619570
         O            2.907856321432    -0.057860919795     1.411942374700    15.994914619570
         O            3.724208321432     0.291821080205    -1.044480625300    15.994914619570
         C           -2.229825678568     0.776702080205     0.563291374700    12.000000000000
         C           -0.946080678568     0.820912080205    -0.295626625300    12.000000000000
         C           -2.833950678568    -0.598537919795     0.244074374700    12.000000000000
         C           -1.588089678568    -1.401526919795    -0.062652625300    12.000000000000
         C            0.271372321432     1.199847080205     0.528863374700    12.000000000000
         H           -1.988822678568     0.836053080205     1.632659374700     1.007825032230
         H           -1.068102678568     1.502943080205    -1.142049625300     1.007825032230
         H           -3.392486678568    -1.015308919795     1.091632374700     1.007825032230
         H           -1.758952678568    -2.287323919795    -0.681857625300     1.007825032230
         H            0.390477321432     0.504308080205     1.364024374700     1.007825032230
         H            0.146395321432     2.211904080205     0.930228374700     1.007825032230
         H           -2.942151678568     2.612321080205     0.596526374700     1.007825032230
         H           -4.093478678568     0.301506080205    -0.905146625300     1.007825032230
         H           -0.093078678568    -2.066553919795     0.993977374700     1.007825032230
         H            0.856137321432    -1.074328919795    -0.832223625300     1.007825032230
         H            3.795893321432     0.314424080205     1.565936374700     1.007825032230

  Basis Set: AUG-CC-PVTZ
    Blend: AUG-CC-PVTZ
  Basis Set: (AUG-CC-PVTZ AUX)
    Blend: AUG-CC-PVTZ-JKFIT
	 Reference Energy          =   -1135.8220343555949512 [Eh]
	 Singles Energy            =      -0.0000000000000000 [Eh]
	 Same-Spin Energy          =      -0.8163436449625314 [Eh]
	 Opposite-Spin Energy      =      -2.4221299472182856 [Eh]
	 Correlation Energy        =      -3.2384735921808172 [Eh]
	 Total Energy              =   -1139.0605079477757045 [Eh]

	 ================> DF-SCS-MP2 Energies <==================
	-----------------------------------------------------------
	 SCS Same-Spin Scale       =       0.3333333333333333 [-]
	 SCS Opposite-Spin Scale   =       1.2000000000000000 [-]
	 SCS Same-Spin Energy      =      -0.2721145483208438 [Eh]
	 SCS Opposite-Spin Energy  =      -2.9065559366619427 [Eh]
	 SCS Correlation Energy    =      -3.1786704849827867 [Eh]
	 SCS Total Energy          =   -1139.0007048405777823 [Eh]
	-----------------------------------------------------------

  Dipole Moment: [D]
     X:    -3.4117      Y:     2.3055      Z:     4.0641     Total:     5.7855

*** Psi4 exiting successfully. Buy a developer a beer!
