                               Psi4 1.4a3.dev225

  ==> Input File <==

--------------------------------------------------------------------------
#psi4
#
memory 32 gb

molecule  {
0 1
  P        2.6113660     0.0433910    -0.1897900
  O       -0.7416560    -0.5164190    -0.8762010
  O       -3.1473860     1.7523070     0.1855430
  O       -3.5574330    -0.5529450    -0.9556820
  O       -0.9255690    -1.6972900     1.1506350
  O        1.5012550     1.2233910    -0.3202530
  O        1.7411940    -1.2993510    -0.3564950
  O        2.9591660    -0.0655390     1.3909200
  O        3.7751240     0.2843830    -1.0656400
  C       -2.1651135     0.7555349     0.5472640
  C       -0.8949630     0.8136090    -0.3166340
  C       -2.7825860    -0.6061320     0.2233240
  C       -1.5366410    -1.4089160    -0.0835620
  C        0.3224410     1.1924200     0.5080110
  H       -1.9377070     0.8289040     1.6116220
  H       -1.0168440     1.4957790    -1.1629650
  H       -3.3408870    -1.0228010     1.0710960
  H       -1.7074320    -2.2947510    -0.7027390
  H        0.4414920     0.4968360     1.3431340
  H        0.1974400     2.2044510     0.9094280
  H       -2.8916000     2.6047160     0.5754970
  H       -4.0429610     0.2932130    -0.9254450
  H       -0.0410590    -2.0731950     0.9726900
  H        0.9073710    -1.0816890    -0.8535130
  H        3.8468470     0.3075270     1.5450430
units angstrom
no_reorient  #important for SAPT in psi4, default
symmetry c1  #important for SAPT in psi4, default
}

set PROPERTIES_ORIGIN ["COM"]
properties('MP2/aug-cc-pvtz', properties = ['dipole'])
--------------------------------------------------------------------------

    Molecular point group: c1
  Charge       = 0
  Multiplicity = 1
  Basis Set: AUG-CC-PVTZ
    Blend: AUG-CC-PVTZ
  Basis Set: (AUG-CC-PVTZ AUX)
    Blend: AUG-CC-PVTZ-JKFIT

    Orbital Energies [Eh]
    ---------------------

    Doubly Occupied:

       1A    -80.115231     2A    -20.611461     3A    -20.605448
       4A    -20.603972     5A    -20.603783     6A    -20.598761
       7A    -20.595247     8A    -20.575206     9A    -20.514845
      10A    -11.362453    11A    -11.323247    12A    -11.321693
      13A    -11.318778    14A    -11.307584    15A     -7.630182
      16A     -5.528602    17A     -5.528520    18A     -5.527019
      19A     -1.463615    20A     -1.448580    21A     -1.405762
      22A     -1.391003    23A     -1.378459    24A     -1.372280
      25A     -1.368802    26A     -1.296181    27A     -1.086662
      28A     -1.048282    29A     -0.947127    30A     -0.857873
      31A     -0.842179    32A     -0.829842    33A     -0.771535
      34A     -0.759497    35A     -0.746705    36A     -0.734479
      37A     -0.716816    38A     -0.693193    39A     -0.683295
      40A     -0.666740    41A     -0.653370    42A     -0.647907
      43A     -0.632129    44A     -0.613519    45A     -0.600255
      46A     -0.595892    47A     -0.582237    48A     -0.577134
      49A     -0.567743    50A     -0.560061    51A     -0.543690
      52A     -0.532748    53A     -0.527325    54A     -0.513235
      55A     -0.491454    56A     -0.489492    57A     -0.475379
      58A     -0.469641    59A     -0.466499    60A     -0.451731

  @DF-RHF Final Energy: -1135.82185875373489

   => Energetics <=

    Nuclear Repulsion Energy =           1216.1071092295180733
    One-Electron Energy =               -3985.5131778422100979
    Two-Electron Energy =                1633.5842098589573652
    Total Energy =                      -1135.8218587537348867
  Basis Set: (AUG-CC-PVTZ AUX)
    Blend: AUG-CC-PVTZ-RI
    Molecular point group: c1

    Geometry (in Angstrom), charge = 0, multiplicity = 1:

       Center              X                  Y                   Z               Mass
    ------------   -----------------  -----------------  -----------------  -----------------
         P            2.558291755238     0.051494885193    -0.170356912550    30.973761998420
         O           -0.794730244762    -0.508315114807    -0.856767912550    15.994914619570
         O           -3.200460244762     1.760410885193     0.204976087450    15.994914619570
         O           -3.610507244762    -0.544841114807    -0.936248912550    15.994914619570
         O           -0.978643244762    -1.689186114807     1.170068087450    15.994914619570
         O            1.448180755238     1.231494885193    -0.300819912550    15.994914619570
         O            1.688119755238    -1.291247114807    -0.337061912550    15.994914619570
         O            2.906091755238    -0.057435114807     1.410353087450    15.994914619570
         O            3.722049755238     0.292486885193    -1.046206912550    15.994914619570
         C           -2.218187744762     0.763638785193     0.566697087450    12.000000000000
         C           -0.948037244762     0.821712885193    -0.297200912550    12.000000000000
         C           -2.835660244762    -0.598028114807     0.242757087450    12.000000000000
         C           -1.589715244762    -1.400812114807    -0.064128912550    12.000000000000
         C            0.269366755238     1.200523885193     0.527444087450    12.000000000000
         H           -1.990781244762     0.837007885193     1.631055087450     1.007825032230
         H           -1.069918244762     1.503882885193    -1.143531912550     1.007825032230
         H           -3.393961244762    -1.014697114807     1.090529087450     1.007825032230
         H           -1.760506244762    -2.286647114807    -0.683305912550     1.007825032230
         H            0.388417755238     0.504939885193     1.362567087450     1.007825032230
         H            0.144365755238     2.212554885193     0.928861087450     1.007825032230
         H           -2.944674244762     2.612819885193     0.594930087450     1.007825032230
         H           -4.096035244762     0.301316885193    -0.906011912550     1.007825032230
         H           -0.094133244762    -2.065091114807     0.992123087450     1.007825032230
         H            0.854296755238    -1.073585114807    -0.834079912550     1.007825032230
         H            3.793772755238     0.315630885193     1.564476087450     1.007825032230

  Basis Set: AUG-CC-PVTZ
    Blend: AUG-CC-PVTZ
  Basis Set: (AUG-CC-PVTZ AUX)
    Blend: AUG-CC-PVTZ-JKFIT
	 Reference Energy          =   -1135.8218587537348867 [Eh]
	 Singles Energy            =      -0.0000000000000000 [Eh]
	 Same-Spin Energy          =      -0.8163730360927702 [Eh]
	 Opposite-Spin Energy      =      -2.4221805582069389 [Eh]
	 Correlation Energy        =      -3.2385535942997090 [Eh]
	 Total Energy              =   -1139.0604123480345606 [Eh]

	 ================> DF-SCS-MP2 Energies <==================
	-----------------------------------------------------------
	 SCS Same-Spin Scale       =       0.3333333333333333 [-]
	 SCS Opposite-Spin Scale   =       1.2000000000000000 [-]
	 SCS Same-Spin Energy      =      -0.2721243453642567 [Eh]
	 SCS Opposite-Spin Energy  =      -2.9066166698483267 [Eh]
	 SCS Correlation Energy    =      -3.1787410152125832 [Eh]
	 SCS Total Energy          =   -1139.0005997689474952 [Eh]
	-----------------------------------------------------------

  Dipole Moment: [D]
     X:    -3.4274      Y:     2.2486      Z:     4.0392     Total:     5.7548

*** Psi4 exiting successfully. Buy a developer a beer!
