                               Psi4 1.3.2 release

  ==> Input File <==

--------------------------------------------------------------------------
#psi4
#
memory 32 gb

molecule  {
0 1
  P        2.6114510     0.0433530    -0.1897960
  O       -0.7415730    -0.5166550    -0.8759300
  O       -3.1471200     1.7525200     0.1857420
  O       -3.5520821    -0.5285106    -0.9582060
  O       -0.9262260    -1.6975490     1.1507850
  O        1.5012860     1.2233130    -0.3203930
  O        1.7414800    -1.2994450    -0.3567160
  O        2.9590140    -0.0653000     1.3909990
  O        3.7753660     0.2843820    -1.0654240
  C       -2.1786680     0.7692630     0.5423480
  C       -0.8949230     0.8134730    -0.3165700
  C       -2.7827930    -0.6059770     0.2231310
  C       -1.5369320    -1.4089660    -0.0835960
  C        0.3225300     1.1924080     0.5079200
  H       -1.9376650     0.8286140     1.6117160
  H       -1.0169450     1.4955040    -1.1629930
  H       -3.3413290    -1.0227480     1.0706890
  H       -1.7077950    -2.2947630    -0.7028010
  H        0.4416350     0.4968690     1.3430810
  H        0.1975530     2.2044650     0.9092850
  H       -2.8909940     2.6048820     0.5755830
  H       -4.0423210     0.2940670    -0.9260900
  H       -0.0419210    -2.0739930     0.9730340
  H        0.9072950    -1.0817680    -0.8531670
  H        3.8470510     0.3069850     1.5449930
units angstrom
no_reorient  #important for SAPT in psi4, default
symmetry c1  #important for SAPT in psi4, default
}

set PROPERTIES_ORIGIN ["COM"]
properties('MP2/aug-cc-pvtz', properties = ['dipole'])
--------------------------------------------------------------------------

    Molecular point group: c1
  Charge       = 0
  Multiplicity = 1
  Basis Set: AUG-CC-PVTZ
    Blend: AUG-CC-PVTZ
  Basis Set: (AUG-CC-PVTZ AUX)
    Blend: AUG-CC-PVTZ-JKFIT

    Orbital Energies [Eh]
    ---------------------

    Doubly Occupied:

       1A    -80.114901     2A    -20.611154     3A    -20.605493
       4A    -20.604979     5A    -20.603430     6A    -20.598449
       7A    -20.595191     8A    -20.572900     9A    -20.514558
      10A    -11.362721    11A    -11.322674    12A    -11.321089
      13A    -11.317943    14A    -11.307805    15A     -7.629852
      16A     -5.528271    17A     -5.528190    18A     -5.526690
      19A     -1.463243    20A     -1.448371    21A     -1.411765
      22A     -1.390627    23A     -1.378175    24A     -1.375137
      25A     -1.369402    26A     -1.295895    27A     -1.084094
      28A     -1.047819    29A     -0.946697    30A     -0.857701
      31A     -0.842311    32A     -0.829760    33A     -0.772142
      34A     -0.760941    35A     -0.747591    36A     -0.733942
      37A     -0.716747    38A     -0.692779    39A     -0.685194
      40A     -0.668832    41A     -0.653083    42A     -0.647616
      43A     -0.632603    44A     -0.614403    45A     -0.600747
      46A     -0.596512    47A     -0.581990    48A     -0.577381
      49A     -0.569665    50A     -0.560067    51A     -0.543382
      52A     -0.532215    53A     -0.526909    54A     -0.511477
      55A     -0.490190    56A     -0.488166    57A     -0.475091
      58A     -0.469520    59A     -0.465963    60A     -0.450247

  @DF-RHF Final Energy: -1135.82349976900355

   => Energetics <=

    Nuclear Repulsion Energy =           1216.2614504720934292
    One-Electron Energy =               -3985.8245350090774082
    Two-Electron Energy =                1633.7395847679806593
    Total Energy =                      -1135.8234997690035470
  Basis Set: (AUG-CC-PVTZ AUX)
    Blend: AUG-CC-PVTZ-RI
    Molecular point group: c1

    Geometry (in Angstrom), charge = 0, multiplicity = 1:

       Center              X                  Y                   Z               Mass
    ------------   -----------------  -----------------  -----------------  -----------------
         P            2.558713141555     0.049067812056    -0.169953129817    30.973761998420
         O           -0.794310858445    -0.510940187944    -0.856087129817    15.994914619570
         O           -3.199857858445     1.758234812056     0.205584870183    15.994914619570
         O           -3.604819958445    -0.522795787944    -0.938363129817    15.994914619570
         O           -0.978963858445    -1.691834187944     1.170627870183    15.994914619570
         O            1.448548141555     1.229027812056    -0.300550129817    15.994914619570
         O            1.688742141555    -1.293730187944    -0.336873129817    15.994914619570
         O            2.906276141555    -0.059585187944     1.410841870183    15.994914619570
         O            3.722628141555     0.290096812056    -1.045581129817    15.994914619570
         C           -2.231405858445     0.774977812056     0.562190870183    12.000000000000
         C           -0.947660858445     0.819187812056    -0.296727129817    12.000000000000
         C           -2.835530858445    -0.600262187944     0.242973870183    12.000000000000
         C           -1.589669858445    -1.403251187944    -0.063753129817    12.000000000000
         C            0.269792141555     1.198122812056     0.527762870183    12.000000000000
         H           -1.990402858445     0.834328812056     1.631558870183     1.007825032230
         H           -1.069682858445     1.501218812056    -1.143150129817     1.007825032230
         H           -3.394066858445    -1.017033187944     1.090531870183     1.007825032230
         H           -1.760532858445    -2.289048187944    -0.682958129817     1.007825032230
         H            0.388897141555     0.502583812056     1.362923870183     1.007825032230
         H            0.144815141555     2.210179812056     0.929127870183     1.007825032230
         H           -2.943731858445     2.610596812056     0.595425870183     1.007825032230
         H           -4.095058858445     0.299781812056    -0.906247129817     1.007825032230
         H           -0.094658858445    -2.068278187944     0.992876870183     1.007825032230
         H            0.854557141555    -1.076053187944    -0.833324129817     1.007825032230
         H            3.794313141555     0.312699812056     1.564835870183     1.007825032230

  Basis Set: AUG-CC-PVTZ
    Blend: AUG-CC-PVTZ
  Basis Set: (AUG-CC-PVTZ AUX)
    Blend: AUG-CC-PVTZ-JKFIT
	 Reference Energy          =   -1135.8234997690035470 [Eh]
	 Singles Energy            =      -0.0000000000000000 [Eh]
	 Same-Spin Energy          =      -0.8160276887921647 [Eh]
	 Opposite-Spin Energy      =      -2.4212220270059754 [Eh]
	 Correlation Energy        =      -3.2372497157981401 [Eh]
	 Total Energy              =   -1139.0607494848015904 [Eh]

	 ================> DF-SCS-MP2 Energies <==================
	-----------------------------------------------------------
	 SCS Same-Spin Scale       =       0.3333333333333333 [-]
	 SCS Opposite-Spin Scale   =       1.2000000000000000 [-]
	 SCS Same-Spin Energy      =      -0.2720092295973882 [Eh]
	 SCS Opposite-Spin Energy  =      -2.9054664324071706 [Eh]
	 SCS Correlation Energy    =      -3.1774756620045590 [Eh]
	 SCS Total Energy          =   -1139.0009754310081007 [Eh]
	-----------------------------------------------------------

  Dipole Moment: [D]
     X:    -3.5011      Y:     2.2471      Z:     4.0410     Total:     5.7997

*** Psi4 exiting successfully. Buy a developer a beer!
