                               Psi4 1.3.2 release

  ==> Input File <==

--------------------------------------------------------------------------
#psi4
#
memory 32 gb

molecule  {
0 1
  P        2.6114510     0.0433530    -0.1897960
  O       -0.7415730    -0.5166550    -0.8759300
  O       -3.1471200     1.7525200     0.1857420
  O       -3.5574290    -0.5524670    -0.9560380
  O       -0.9262260    -1.6975490     1.1507850
  O        1.5012860     1.2233130    -0.3203930
  O        1.7414800    -1.2994450    -0.3567160
  O        2.9590140    -0.0653000     1.3909990
  O        3.7753660     0.2843820    -1.0654240
  C       -2.1786680     0.7692630     0.5423480
  C       -0.8949230     0.8134730    -0.3165700
  C       -2.8925253    -0.5983970     0.0560940
  C       -1.5369320    -1.4089660    -0.0835960
  C        0.3225300     1.1924080     0.5079200
  H       -1.9376650     0.8286140     1.6117160
  H       -1.0169450     1.4955040    -1.1629930
  H       -3.3413290    -1.0227480     1.0706890
  H       -1.7077950    -2.2947630    -0.7028010
  H        0.4416350     0.4968690     1.3430810
  H        0.1975530     2.2044650     0.9092850
  H       -2.8909940     2.6048820     0.5755830
  H       -4.0423210     0.2940670    -0.9260900
  H       -0.0419210    -2.0739930     0.9730340
  H        0.9072950    -1.0817680    -0.8531670
  H        3.8470510     0.3069850     1.5449930
units angstrom
no_reorient  #important for SAPT in psi4, default
symmetry c1  #important for SAPT in psi4, default
}

set PROPERTIES_ORIGIN ["COM"]
properties('MP2/aug-cc-pvtz', properties = ['dipole'])
--------------------------------------------------------------------------

    Molecular point group: c1
  Charge       = 0
  Multiplicity = 1
  Basis Set: AUG-CC-PVTZ
    Blend: AUG-CC-PVTZ
  Basis Set: (AUG-CC-PVTZ AUX)
    Blend: AUG-CC-PVTZ-JKFIT

    Orbital Energies [Eh]
    ---------------------

    Doubly Occupied:

       1A    -80.113100     2A    -20.609532     3A    -20.604034
       4A    -20.602745     5A    -20.598942     6A    -20.598907
       7A    -20.596269     8A    -20.592946     9A    -20.513050
      10A    -11.356156    11A    -11.318358    12A    -11.317512
      13A    -11.317051    14A    -11.313642    15A     -7.628051
      16A     -5.526472    17A     -5.526388    18A     -5.524895
      19A     -1.498234    20A     -1.456391    21A     -1.437971
      22A     -1.401041    23A     -1.388352    24A     -1.375973
      25A     -1.366019    26A     -1.294389    27A     -1.073926
      28A     -1.024096    29A     -0.941455    30A     -0.856495
      31A     -0.850374    32A     -0.827828    33A     -0.779051
      34A     -0.768559    35A     -0.743635    36A     -0.732442
      37A     -0.715302    38A     -0.698665    39A     -0.690306
      40A     -0.684550    41A     -0.656322    42A     -0.652257
      43A     -0.644682    44A     -0.634332    45A     -0.603850
      46A     -0.597952    47A     -0.586249    48A     -0.579395
      49A     -0.570098    50A     -0.566223    51A     -0.541934
      52A     -0.529524    53A     -0.527147    54A     -0.506164
      55A     -0.484046    56A     -0.476051    57A     -0.469696
      58A     -0.463529    59A     -0.437503    60A     -0.423100

  @DF-RHF Final Energy: -1135.77406126378878

   => Energetics <=

    Nuclear Repulsion Energy =           1215.8784226769528232
    One-Electron Energy =               -3984.8786501934828266
    Two-Electron Energy =                1633.2261662527409953
    Total Energy =                      -1135.7740612637887807
  Basis Set: (AUG-CC-PVTZ AUX)
    Blend: AUG-CC-PVTZ-RI
    Molecular point group: c1

    Geometry (in Angstrom), charge = 0, multiplicity = 1:

       Center              X                  Y                   Z               Mass
    ------------   -----------------  -----------------  -----------------  -----------------
         P            2.564809637359     0.050338230485    -0.161389638524    30.973761998420
         O           -0.788214362641    -0.509669769515    -0.847523638524    15.994914619570
         O           -3.193761362641     1.759505230485     0.214148361476    15.994914619570
         O           -3.604070362641    -0.545481769515    -0.927631638524    15.994914619570
         O           -0.972867362641    -1.690563769515     1.179191361476    15.994914619570
         O            1.454644637359     1.230298230485    -0.291986638524    15.994914619570
         O            1.694838637359    -1.292459769515    -0.328309638524    15.994914619570
         O            2.912372637359    -0.058314769515     1.419405361476    15.994914619570
         O            3.728724637359     0.291367230485    -1.037017638524    15.994914619570
         C           -2.225309362641     0.776248230485     0.570754361476    12.000000000000
         C           -0.941564362641     0.820458230485    -0.288163638524    12.000000000000
         C           -2.939166662641    -0.591411769515     0.084500361476    12.000000000000
         C           -1.583573362641    -1.401980769515    -0.055189638524    12.000000000000
         C            0.275888637359     1.199393230485     0.536326361476    12.000000000000
         H           -1.984306362641     0.835599230485     1.640122361476     1.007825032230
         H           -1.063586362641     1.502489230485    -1.134586638524     1.007825032230
         H           -3.387970362641    -1.015762769515     1.099095361476     1.007825032230
         H           -1.754436362641    -2.287777769515    -0.674394638524     1.007825032230
         H            0.394993637359     0.503854230485     1.371487361476     1.007825032230
         H            0.150911637359     2.211450230485     0.937691361476     1.007825032230
         H           -2.937635362641     2.611867230485     0.603989361476     1.007825032230
         H           -4.088962362641     0.301052230485    -0.897683638524     1.007825032230
         H           -0.088562362641    -2.067007769515     1.001440361476     1.007825032230
         H            0.860653637359    -1.074782769515    -0.824760638524     1.007825032230
         H            3.800409637359     0.313970230485     1.573399361476     1.007825032230

  Basis Set: AUG-CC-PVTZ
    Blend: AUG-CC-PVTZ
  Basis Set: (AUG-CC-PVTZ AUX)
    Blend: AUG-CC-PVTZ-JKFIT
	 Reference Energy          =   -1135.7740612637887807 [Eh]
	 Singles Energy            =      -0.0000000000000000 [Eh]
	 Same-Spin Energy          =      -0.8175975115232930 [Eh]
	 Opposite-Spin Energy      =      -2.4217115948550583 [Eh]
	 Correlation Energy        =      -3.2393091063783510 [Eh]
	 Total Energy              =   -1139.0133703701671948 [Eh]

	 ================> DF-SCS-MP2 Energies <==================
	-----------------------------------------------------------
	 SCS Same-Spin Scale       =       0.3333333333333333 [-]
	 SCS Opposite-Spin Scale   =       1.2000000000000000 [-]
	 SCS Same-Spin Energy      =      -0.2725325038410976 [Eh]
	 SCS Opposite-Spin Energy  =      -2.9060539138260699 [Eh]
	 SCS Correlation Energy    =      -3.1785864176671677 [Eh]
	 SCS Total Energy          =   -1138.9526476814560283 [Eh]
	-----------------------------------------------------------

  Dipole Moment: [D]
     X:    -4.0405      Y:     2.3797      Z:     3.3651     Total:     5.7717

*** Psi4 exiting successfully. Buy a developer a beer!
