                               Psi4 1.3.2 release

  ==> Input File <==

--------------------------------------------------------------------------
#psi4
#
memory 32 gb

molecule  {
0 1
  P        2.6114510     0.0433530    -0.1897960
  O       -0.6425773    -0.5173268    -0.7630938
  O       -3.1471200     1.7525200     0.1857420
  O       -3.5574290    -0.5524670    -0.9560380
  O       -0.9262260    -1.6975490     1.1507850
  O        1.5012860     1.2233130    -0.3203930
  O        1.7414800    -1.2994450    -0.3567160
  O        2.9590140    -0.0653000     1.3909990
  O        3.7753660     0.2843820    -1.0654240
  C       -2.1786680     0.7692630     0.5423480
  C       -0.8949230     0.8134730    -0.3165700
  C       -2.7827930    -0.6059770     0.2231310
  C       -1.5369320    -1.4089660    -0.0835960
  C        0.3225300     1.1924080     0.5079200
  H       -1.9376650     0.8286140     1.6117160
  H       -1.0169450     1.4955040    -1.1629930
  H       -3.3413290    -1.0227480     1.0706890
  H       -1.7077950    -2.2947630    -0.7028010
  H        0.4416350     0.4968690     1.3430810
  H        0.1975530     2.2044650     0.9092850
  H       -2.8909940     2.6048820     0.5755830
  H       -4.0423210     0.2940670    -0.9260900
  H       -0.0419210    -2.0739930     0.9730340
  H        0.9072950    -1.0817680    -0.8531670
  H        3.8470510     0.3069850     1.5449930
units angstrom
no_reorient  #important for SAPT in psi4, default
symmetry c1  #important for SAPT in psi4, default
}

set PROPERTIES_ORIGIN ["COM"]
properties('MP2/aug-cc-pvtz', properties = ['dipole'])
--------------------------------------------------------------------------

    Molecular point group: c1
  Charge       = 0
  Multiplicity = 1
  Basis Set: AUG-CC-PVTZ
    Blend: AUG-CC-PVTZ
  Basis Set: (AUG-CC-PVTZ AUX)
    Blend: AUG-CC-PVTZ-JKFIT

    Orbital Energies [Eh]
    ---------------------

    Doubly Occupied:

       1A    -80.111750     2A    -20.608617     3A    -20.607896
       4A    -20.602627     5A    -20.602293     6A    -20.591266
       7A    -20.589268     8A    -20.578498     9A    -20.512020
      10A    -11.365240    11A    -11.324967    12A    -11.318059
      13A    -11.316901    14A    -11.310963    15A     -7.626686
      16A     -5.525127    17A     -5.525006    18A     -5.523535
      19A     -1.469181    20A     -1.446959    21A     -1.413890
      22A     -1.388460    23A     -1.375921    24A     -1.373711
      25A     -1.367698    26A     -1.293347    27A     -1.084193
      28A     -1.050374    29A     -0.944711    30A     -0.860432
      31A     -0.844071    32A     -0.830777    33A     -0.772968
      34A     -0.760256    35A     -0.750600    36A     -0.732670
      37A     -0.713877    38A     -0.690118    39A     -0.684325
      40A     -0.671849    41A     -0.653283    42A     -0.649337
      43A     -0.636194    44A     -0.610477    45A     -0.602491
      46A     -0.594997    47A     -0.579527    48A     -0.576303
      49A     -0.570944    50A     -0.561721    51A     -0.540166
      52A     -0.530998    53A     -0.524733    54A     -0.512894
      55A     -0.490051    56A     -0.488243    57A     -0.471784
      58A     -0.467977    59A     -0.463674    60A     -0.450726

  @DF-RHF Final Energy: -1135.81893118999278

   => Energetics <=

    Nuclear Repulsion Energy =           1218.8013844126112417
    One-Electron Energy =               -3990.9653832591129685
    Two-Electron Energy =                1636.3450676565089452
    Total Energy =                      -1135.8189311899927816
  Basis Set: (AUG-CC-PVTZ AUX)
    Blend: AUG-CC-PVTZ-RI
    Molecular point group: c1

    Geometry (in Angstrom), charge = 0, multiplicity = 1:

       Center              X                  Y                   Z               Mass
    ------------   -----------------  -----------------  -----------------  -----------------
         P            2.552201055357     0.050780390982    -0.177950213214    30.973761998420
         O           -0.701827244643    -0.509899409018    -0.751248013214    15.994914619570
         O           -3.206369944643     1.759947390982     0.197587786786    15.994914619570
         O           -3.616678944643    -0.545039609018    -0.944192213214    15.994914619570
         O           -0.985475944643    -1.690121609018     1.162630786786    15.994914619570
         O            1.442036055357     1.230740390982    -0.308547213214    15.994914619570
         O            1.682230055357    -1.292017609018    -0.344870213214    15.994914619570
         O            2.899764055357    -0.057872609018     1.402844786786    15.994914619570
         O            3.716116055357     0.291809390982    -1.053578213214    15.994914619570
         C           -2.237917944643     0.776690390982     0.554193786786    12.000000000000
         C           -0.954172944643     0.820900390982    -0.304724213214    12.000000000000
         C           -2.842042944643    -0.598549609018     0.234976786786    12.000000000000
         C           -1.596181944643    -1.401538609018    -0.071750213214    12.000000000000
         C            0.263280055357     1.199835390982     0.519765786786    12.000000000000
         H           -1.996914944643     0.836041390982     1.623561786786     1.007825032230
         H           -1.076194944643     1.502931390982    -1.151147213214     1.007825032230
         H           -3.400578944643    -1.015320609018     1.082534786786     1.007825032230
         H           -1.767044944643    -2.287335609018    -0.690955213214     1.007825032230
         H            0.382385055357     0.504296390982     1.354926786786     1.007825032230
         H            0.138303055357     2.211892390982     0.921130786786     1.007825032230
         H           -2.950243944643     2.612309390982     0.587428786786     1.007825032230
         H           -4.101570944643     0.301494390982    -0.914244213214     1.007825032230
         H           -0.101170944643    -2.066565609018     0.984879786786     1.007825032230
         H            0.848045055357    -1.074340609018    -0.841321213214     1.007825032230
         H            3.787801055357     0.314412390982     1.556838786786     1.007825032230

  Basis Set: AUG-CC-PVTZ
    Blend: AUG-CC-PVTZ
  Basis Set: (AUG-CC-PVTZ AUX)
    Blend: AUG-CC-PVTZ-JKFIT
	 Reference Energy          =   -1135.8189311899927816 [Eh]
	 Singles Energy            =      -0.0000000000000000 [Eh]
	 Same-Spin Energy          =      -0.8162121539493211 [Eh]
	 Opposite-Spin Energy      =      -2.4209481536963198 [Eh]
	 Correlation Energy        =      -3.2371603076456408 [Eh]
	 Total Energy              =   -1139.0560914976383629 [Eh]

	 ================> DF-SCS-MP2 Energies <==================
	-----------------------------------------------------------
	 SCS Same-Spin Scale       =       0.3333333333333333 [-]
	 SCS Opposite-Spin Scale   =       1.2000000000000000 [-]
	 SCS Same-Spin Energy      =      -0.2720707179831070 [Eh]
	 SCS Opposite-Spin Energy  =      -2.9051377844355835 [Eh]
	 SCS Correlation Energy    =      -3.1772085024186905 [Eh]
	 SCS Total Energy          =   -1138.9961396924113615 [Eh]
	-----------------------------------------------------------

  Dipole Moment: [D]
     X:    -3.8826      Y:     2.2688      Z:     3.8397     Total:     5.9131

*** Psi4 exiting successfully. Buy a developer a beer!
