                               Psi4 1.3.2 release

  ==> Input File <==

--------------------------------------------------------------------------
#psi4
#
memory 32 gb

molecule  {
0 1
  P        2.6114510     0.0433530    -0.1897960
  O       -0.7415730    -0.5166550    -0.8759300
  O       -3.1471200     1.7525200     0.1857420
  O       -3.4386759    -0.4944532    -1.0221577
  O       -0.9262260    -1.6975490     1.1507850
  O        1.5012860     1.2233130    -0.3203930
  O        1.7414800    -1.2994450    -0.3567160
  O        2.9590140    -0.0653000     1.3909990
  O        3.7753660     0.2843820    -1.0654240
  C       -2.1786680     0.7692630     0.5423480
  C       -0.8949230     0.8134730    -0.3165700
  C       -2.7827930    -0.6059770     0.2231310
  C       -1.5369320    -1.4089660    -0.0835960
  C        0.3225300     1.1924080     0.5079200
  H       -1.9376650     0.8286140     1.6117160
  H       -1.0169450     1.4955040    -1.1629930
  H       -3.3413290    -1.0227480     1.0706890
  H       -1.7077950    -2.2947630    -0.7028010
  H        0.4416350     0.4968690     1.3430810
  H        0.1975530     2.2044650     0.9092850
  H       -2.8909940     2.6048820     0.5755830
  H       -4.0423210     0.2940670    -0.9260900
  H       -0.0419210    -2.0739930     0.9730340
  H        0.9072950    -1.0817680    -0.8531670
  H        3.8470510     0.3069850     1.5449930
units angstrom
no_reorient  #important for SAPT in psi4, default
symmetry c1  #important for SAPT in psi4, default
}

set PROPERTIES_ORIGIN ["COM"]
properties('MP2/aug-cc-pvtz', properties = ['dipole'])
--------------------------------------------------------------------------

    Molecular point group: c1
  Charge       = 0
  Multiplicity = 1
  Basis Set: AUG-CC-PVTZ
    Blend: AUG-CC-PVTZ
  Basis Set: (AUG-CC-PVTZ AUX)
    Blend: AUG-CC-PVTZ-JKFIT

    Orbital Energies [Eh]
    ---------------------

    Doubly Occupied:

       1A    -80.113982     2A    -20.610358     3A    -20.604217
       4A    -20.603863     5A    -20.601054     6A    -20.597357
       7A    -20.593496     8A    -20.577771     9A    -20.513738
      10A    -11.360877    11A    -11.320586    12A    -11.319746
      13A    -11.316146    14A    -11.307605    15A     -7.628931
      16A     -5.527351    17A     -5.527269    18A     -5.525771
      19A     -1.462078    20A     -1.447390    21A     -1.410050
      22A     -1.389605    23A     -1.377110    24A     -1.372333
      25A     -1.365507    26A     -1.295071    27A     -1.081984
      28A     -1.044866    29A     -0.945405    30A     -0.856796
      31A     -0.839572    32A     -0.827495    33A     -0.770660
      34A     -0.757717    35A     -0.746927    36A     -0.732715
      37A     -0.715744    38A     -0.691450    39A     -0.685327
      40A     -0.664361    41A     -0.651253    42A     -0.644309
      43A     -0.630850    44A     -0.614482    45A     -0.599722
      46A     -0.595972    47A     -0.580929    48A     -0.575236
      49A     -0.567968    50A     -0.557325    51A     -0.542669
      52A     -0.530654    53A     -0.524031    54A     -0.511761
      55A     -0.488405    56A     -0.487218    57A     -0.474794
      58A     -0.470607    59A     -0.465738    60A     -0.447756

  @DF-RHF Final Energy: -1135.81726462206984

   => Energetics <=

    Nuclear Repulsion Energy =           1218.2474320003636876
    One-Electron Energy =               -3989.9454719719551576
    Two-Electron Energy =                1635.8807753495214001
    Total Energy =                      -1135.8172646220698425
  Basis Set: (AUG-CC-PVTZ AUX)
    Blend: AUG-CC-PVTZ-RI
    Molecular point group: c1

    Geometry (in Angstrom), charge = 0, multiplicity = 1:

       Center              X                  Y                   Z               Mass
    ------------   -----------------  -----------------  -----------------  -----------------
         P            2.550827178789     0.046699551870    -0.165506100245    30.973761998420
         O           -0.802196821211    -0.513308448130    -0.851640100245    15.994914619570
         O           -3.207743821211     1.755866551870     0.210031899755    15.994914619570
         O           -3.499299721211    -0.491106648130    -0.997867800245    15.994914619570
         O           -0.986849821211    -1.694202448130     1.175074899755    15.994914619570
         O            1.440662178789     1.226659551870    -0.296103100245    15.994914619570
         O            1.680856178789    -1.296098448130    -0.332426100245    15.994914619570
         O            2.898390178789    -0.061953448130     1.415288899755    15.994914619570
         O            3.714742178789     0.287728551870    -1.041134100245    15.994914619570
         C           -2.239291821211     0.772609551870     0.566637899755    12.000000000000
         C           -0.955546821211     0.816819551870    -0.292280100245    12.000000000000
         C           -2.843416821211    -0.602630448130     0.247420899755    12.000000000000
         C           -1.597555821211    -1.405619448130    -0.059306100245    12.000000000000
         C            0.261906178789     1.195754551870     0.532209899755    12.000000000000
         H           -1.998288821211     0.831960551870     1.636005899755     1.007825032230
         H           -1.077568821211     1.498850551870    -1.138703100245     1.007825032230
         H           -3.401952821211    -1.019401448130     1.094978899755     1.007825032230
         H           -1.768418821211    -2.291416448130    -0.678511100245     1.007825032230
         H            0.381011178789     0.500215551870     1.367370899755     1.007825032230
         H            0.136929178789     2.207811551870     0.933574899755     1.007825032230
         H           -2.951617821211     2.608228551870     0.599872899755     1.007825032230
         H           -4.102944821211     0.297413551870    -0.901800100245     1.007825032230
         H           -0.102544821211    -2.070646448130     0.997323899755     1.007825032230
         H            0.846671178789    -1.078421448130    -0.828877100245     1.007825032230
         H            3.786427178789     0.310331551870     1.569282899755     1.007825032230

  Basis Set: AUG-CC-PVTZ
    Blend: AUG-CC-PVTZ
  Basis Set: (AUG-CC-PVTZ AUX)
    Blend: AUG-CC-PVTZ-JKFIT
	 Reference Energy          =   -1135.8172646220698425 [Eh]
	 Singles Energy            =      -0.0000000000000000 [Eh]
	 Same-Spin Energy          =      -0.8170752484033893 [Eh]
	 Opposite-Spin Energy      =      -2.4232589578526595 [Eh]
	 Correlation Energy        =      -3.2403342062560490 [Eh]
	 Total Energy              =   -1139.0575988283258084 [Eh]

	 ================> DF-SCS-MP2 Energies <==================
	-----------------------------------------------------------
	 SCS Same-Spin Scale       =       0.3333333333333333 [-]
	 SCS Opposite-Spin Scale   =       1.2000000000000000 [-]
	 SCS Same-Spin Energy      =      -0.2723584161344631 [Eh]
	 SCS Opposite-Spin Energy  =      -2.9079107494231913 [Eh]
	 SCS Correlation Energy    =      -3.1802691655576543 [Eh]
	 SCS Total Energy          =   -1138.9975337876273898 [Eh]
	-----------------------------------------------------------

  Dipole Moment: [D]
     X:    -3.8024      Y:     2.1347      Z:     4.1060     Total:     5.9895

*** Psi4 exiting successfully. Buy a developer a beer!
