                               Psi4 1.3.2 release

  ==> Input File <==

--------------------------------------------------------------------------
#psi4
#
memory 32 gb

molecule  {
0 1
  P        2.6114510     0.0433530    -0.1897960
  O       -0.7415730    -0.5166550    -0.8759300
  O       -3.1471200     1.7525200     0.1857420
  O       -3.5574290    -0.5524670    -0.9560380
  O       -0.9262260    -1.6975490     1.1507850
  O        1.4872521     1.2168116    -0.3402251
  O        1.7414800    -1.2994450    -0.3567160
  O        2.9590140    -0.0653000     1.3909990
  O        3.7753660     0.2843820    -1.0654240
  C       -2.1786680     0.7692630     0.5423480
  C       -0.8949230     0.8134730    -0.3165700
  C       -2.7827930    -0.6059770     0.2231310
  C       -1.5369320    -1.4089660    -0.0835960
  C        0.3225300     1.1924080     0.5079200
  H       -1.9376650     0.8286140     1.6117160
  H       -1.0169450     1.4955040    -1.1629930
  H       -3.3413290    -1.0227480     1.0706890
  H       -1.7077950    -2.2947630    -0.7028010
  H        0.4416350     0.4968690     1.3430810
  H        0.1975530     2.2044650     0.9092850
  H       -2.8909940     2.6048820     0.5755830
  H       -4.0423210     0.2940670    -0.9260900
  H       -0.0419210    -2.0739930     0.9730340
  H        0.9072950    -1.0817680    -0.8531670
  H        3.8470510     0.3069850     1.5449930
units angstrom
no_reorient  #important for SAPT in psi4, default
symmetry c1  #important for SAPT in psi4, default
}

set PROPERTIES_ORIGIN ["COM"]
properties('MP2/aug-cc-pvtz', properties = ['dipole'])
--------------------------------------------------------------------------

    Molecular point group: c1
  Charge       = 0
  Multiplicity = 1
  Basis Set: AUG-CC-PVTZ
    Blend: AUG-CC-PVTZ
  Basis Set: (AUG-CC-PVTZ AUX)
    Blend: AUG-CC-PVTZ-JKFIT

    Orbital Energies [Eh]
    ---------------------

    Doubly Occupied:

       1A    -80.115873     2A    -20.612924     3A    -20.605840
       4A    -20.605146     5A    -20.603047     6A    -20.598017
       7A    -20.594601     8A    -20.574522     9A    -20.515132
      10A    -11.361866    11A    -11.322712    12A    -11.320853
      13A    -11.317450    14A    -11.306849    15A     -7.630708
      16A     -5.529098    17A     -5.529056    18A     -5.527550
      19A     -1.462790    20A     -1.447850    21A     -1.411057
      22A     -1.391219    23A     -1.377666    24A     -1.373289
      25A     -1.368300    26A     -1.296411    27A     -1.083607
      28A     -1.046424    29A     -0.945930    30A     -0.857311
      31A     -0.842072    32A     -0.829189    33A     -0.771390
      34A     -0.759079    35A     -0.747010    36A     -0.733998
      37A     -0.717138    38A     -0.693034    39A     -0.683850
      40A     -0.667080    41A     -0.653968    42A     -0.646922
      43A     -0.632288    44A     -0.613380    45A     -0.600783
      46A     -0.595567    47A     -0.582200    48A     -0.577539
      49A     -0.569511    50A     -0.560188    51A     -0.543945
      52A     -0.531658    53A     -0.526678    54A     -0.511567
      55A     -0.490070    56A     -0.487554    57A     -0.475674
      58A     -0.469392    59A     -0.465895    60A     -0.449734

  @DF-RHF Final Energy: -1135.82195526393684

   => Energetics <=

    Nuclear Repulsion Energy =           1215.9309247284404591
    One-Electron Energy =               -3985.1828580504552519
    Two-Electron Energy =                1633.4299780580779498
    Total Energy =                      -1135.8219552639368430
  Basis Set: (AUG-CC-PVTZ AUX)
    Blend: AUG-CC-PVTZ-RI
    Molecular point group: c1

    Geometry (in Angstrom), charge = 0, multiplicity = 1:

       Center              X                  Y                   Z               Mass
    ------------   -----------------  -----------------  -----------------  -----------------
         P            2.560060830369     0.051185765720    -0.168724815714    30.973761998420
         O           -0.792963169631    -0.508822234280    -0.854858815714    15.994914619570
         O           -3.198510169631     1.760352765720     0.206813184286    15.994914619570
         O           -3.608819169631    -0.544634234280    -0.934966815714    15.994914619570
         O           -0.977616169631    -1.689716234280     1.171856184286    15.994914619570
         O            1.435861930369     1.224644365720    -0.319153915714    15.994914619570
         O            1.690089830369    -1.291612234280    -0.335644815714    15.994914619570
         O            2.907623830369    -0.057467234280     1.412070184286    15.994914619570
         O            3.723975830369     0.292214765720    -1.044352815714    15.994914619570
         C           -2.230058169631     0.777095765720     0.563419184286    12.000000000000
         C           -0.946313169631     0.821305765720    -0.295498815714    12.000000000000
         C           -2.834183169631    -0.598144234280     0.244202184286    12.000000000000
         C           -1.588322169631    -1.401133234280    -0.062524815714    12.000000000000
         C            0.271139830369     1.200240765720     0.528991184286    12.000000000000
         H           -1.989055169631     0.836446765720     1.632787184286     1.007825032230
         H           -1.068335169631     1.503336765720    -1.141921815714     1.007825032230
         H           -3.392719169631    -1.014915234280     1.091760184286     1.007825032230
         H           -1.759185169631    -2.286930234280    -0.681729815714     1.007825032230
         H            0.390244830369     0.504701765720     1.364152184286     1.007825032230
         H            0.146162830369     2.212297765720     0.930356184286     1.007825032230
         H           -2.942384169631     2.612714765720     0.596654184286     1.007825032230
         H           -4.093711169631     0.301899765720    -0.905018815714     1.007825032230
         H           -0.093311169631    -2.066160234280     0.994105184286     1.007825032230
         H            0.855904830369    -1.073935234280    -0.832095815714     1.007825032230
         H            3.795660830369     0.314817765720     1.566064184286     1.007825032230

  Basis Set: AUG-CC-PVTZ
    Blend: AUG-CC-PVTZ
  Basis Set: (AUG-CC-PVTZ AUX)
    Blend: AUG-CC-PVTZ-JKFIT
	 Reference Energy          =   -1135.8219552639368430 [Eh]
	 Singles Energy            =      -0.0000000000000000 [Eh]
	 Same-Spin Energy          =      -0.8163856853091216 [Eh]
	 Opposite-Spin Energy      =      -2.4221464055130730 [Eh]
	 Correlation Energy        =      -3.2385320908221944 [Eh]
	 Total Energy              =   -1139.0604873547590614 [Eh]

	 ================> DF-SCS-MP2 Energies <==================
	-----------------------------------------------------------
	 SCS Same-Spin Scale       =       0.3333333333333333 [-]
	 SCS Opposite-Spin Scale   =       1.2000000000000000 [-]
	 SCS Same-Spin Energy      =      -0.2721285617697072 [Eh]
	 SCS Opposite-Spin Energy  =      -2.9065756866156875 [Eh]
	 SCS Correlation Energy    =      -3.1787042483853947 [Eh]
	 SCS Total Energy          =   -1139.0006595123222723 [Eh]
	-----------------------------------------------------------

  Dipole Moment: [D]
     X:    -3.4133      Y:     2.3011      Z:     4.0717     Total:     5.7901

*** Psi4 exiting successfully. Buy a developer a beer!
