                               Psi4 1.4a3.dev225

  ==> Input File <==

--------------------------------------------------------------------------
#psi4
#
memory 32 gb

molecule  {
0 1
  P        2.6113660     0.0433910    -0.1897900
  O       -0.7416560    -0.5164190    -0.8762010
  O       -3.1473860     1.7523070     0.1855430
  O       -3.5574330    -0.5529450    -0.9556820
  O       -0.9255690    -1.6972900     1.1506350
  O        1.5012550     1.2233910    -0.3202530
  O        1.7411940    -1.2993510    -0.3564950
  O        2.9591660    -0.0655390     1.3909200
  O        3.7751240     0.2843830    -1.0656400
  C       -2.1787050     0.7693270     0.5422590
  C       -0.8949630     0.8136090    -0.3166340
  C       -2.7825860    -0.6061320     0.2233240
  C       -1.5583555    -1.3986686    -0.1274194
  C        0.3224410     1.1924200     0.5080110
  H       -1.9377070     0.8289040     1.6116220
  H       -1.0168440     1.4957790    -1.1629650
  H       -3.3408870    -1.0228010     1.0710960
  H       -1.7074320    -2.2947510    -0.7027390
  H        0.4414920     0.4968360     1.3431340
  H        0.1974400     2.2044510     0.9094280
  H       -2.8916000     2.6047160     0.5754970
  H       -4.0429610     0.2932130    -0.9254450
  H       -0.0410590    -2.0731950     0.9726900
  H        0.9073710    -1.0816890    -0.8535130
  H        3.8468470     0.3075270     1.5450430
units angstrom
no_reorient  #important for SAPT in psi4, default
symmetry c1  #important for SAPT in psi4, default
}

set PROPERTIES_ORIGIN ["COM"]
properties('MP2/aug-cc-pvtz', properties = ['dipole'])
--------------------------------------------------------------------------

    Molecular point group: c1
  Charge       = 0
  Multiplicity = 1
  Basis Set: AUG-CC-PVTZ
    Blend: AUG-CC-PVTZ
  Basis Set: (AUG-CC-PVTZ AUX)
    Blend: AUG-CC-PVTZ-JKFIT

    Orbital Energies [Eh]
    ---------------------

    Doubly Occupied:

       1A    -80.114834     2A    -20.610904     3A    -20.607312
       4A    -20.607285     5A    -20.605342     6A    -20.598205
       7A    -20.586077     8A    -20.575602     9A    -20.514534
      10A    -11.362092    11A    -11.324636    12A    -11.321759
      13A    -11.320250    14A    -11.307943    15A     -7.629785
      16A     -5.528209    17A     -5.528120    18A     -5.526622
      19A     -1.463390    20A     -1.447769    21A     -1.411367
      22A     -1.389964    23A     -1.377950    24A     -1.373461
      25A     -1.357803    26A     -1.295887    27A     -1.086330
      28A     -1.049791    29A     -0.948790    30A     -0.858422
      31A     -0.844391    32A     -0.829980    33A     -0.771389
      34A     -0.754654    35A     -0.748281    36A     -0.735491
      37A     -0.716528    38A     -0.691839    39A     -0.683071
      40A     -0.666072    41A     -0.653103    42A     -0.647399
      43A     -0.633384    44A     -0.608498    45A     -0.600761
      46A     -0.595904    47A     -0.582396    48A     -0.578027
      49A     -0.568783    50A     -0.561775    51A     -0.542451
      52A     -0.530856    53A     -0.525518    54A     -0.513354
      55A     -0.493443    56A     -0.490144    57A     -0.474842
      58A     -0.469767    59A     -0.466048    60A     -0.451890

  @DF-RHF Final Energy: -1135.82041851045915

   => Energetics <=

    Nuclear Repulsion Energy =           1215.7578306881900971
    One-Electron Energy =               -3984.8355440261925651
    Two-Electron Energy =                1633.2572948275433191
    Total Energy =                      -1135.8204185104591488
  Basis Set: (AUG-CC-PVTZ AUX)
    Blend: AUG-CC-PVTZ-RI
    Molecular point group: c1

    Geometry (in Angstrom), charge = 0, multiplicity = 1:

       Center              X                  Y                   Z               Mass
    ------------   -----------------  -----------------  -----------------  -----------------
         P            2.560133654019     0.050240754854    -0.167807782232    30.973761998420
         O           -0.792888345981    -0.509569245146    -0.854218782232    15.994914619570
         O           -3.198618345981     1.759156754854     0.207525217768    15.994914619570
         O           -3.608665345981    -0.546095245146    -0.933699782232    15.994914619570
         O           -0.976801345981    -1.690440245146     1.172617217768    15.994914619570
         O            1.450022654019     1.230240754854    -0.298270782232    15.994914619570
         O            1.689961654019    -1.292501245146    -0.334512782232    15.994914619570
         O            2.907933654019    -0.058689245146     1.412902217768    15.994914619570
         O            3.723891654019     0.291232754854    -1.043657782232    15.994914619570
         C           -2.229937345981     0.776176754854     0.564241217768    12.000000000000
         C           -0.946195345981     0.820458754854    -0.294651782232    12.000000000000
         C           -2.833818345981    -0.599282245146     0.245306217768    12.000000000000
         C           -1.609587845981    -1.391818845146    -0.105437182232    12.000000000000
         C            0.271208654019     1.199269754854     0.529993217768    12.000000000000
         H           -1.988939345981     0.835753754854     1.633604217768     1.007825032230
         H           -1.068076345981     1.502628754854    -1.140982782232     1.007825032230
         H           -3.392119345981    -1.015951245146     1.093078217768     1.007825032230
         H           -1.758664345981    -2.287901245146    -0.680756782232     1.007825032230
         H            0.390259654019     0.503685754854     1.365116217768     1.007825032230
         H            0.146207654019     2.211300754854     0.931410217768     1.007825032230
         H           -2.942832345981     2.611565754854     0.597479217768     1.007825032230
         H           -4.094193345981     0.300062754854    -0.903462782232     1.007825032230
         H           -0.092291345981    -2.066345245146     0.994672217768     1.007825032230
         H            0.856138654019    -1.074839245146    -0.831530782232     1.007825032230
         H            3.795614654019     0.314376754854     1.567025217768     1.007825032230

  Basis Set: AUG-CC-PVTZ
    Blend: AUG-CC-PVTZ
  Basis Set: (AUG-CC-PVTZ AUX)
    Blend: AUG-CC-PVTZ-JKFIT
	 Reference Energy          =   -1135.8204185104591488 [Eh]
	 Singles Energy            =      -0.0000000000000000 [Eh]
	 Same-Spin Energy          =      -0.8162130874317123 [Eh]
	 Opposite-Spin Energy      =      -2.4222289208628296 [Eh]
	 Correlation Energy        =      -3.2384420082945420 [Eh]
	 Total Energy              =   -1139.0588605187535904 [Eh]

	 ================> DF-SCS-MP2 Energies <==================
	-----------------------------------------------------------
	 SCS Same-Spin Scale       =       0.3333333333333333 [-]
	 SCS Opposite-Spin Scale   =       1.2000000000000000 [-]
	 SCS Same-Spin Energy      =      -0.2720710291439041 [Eh]
	 SCS Opposite-Spin Energy  =      -2.9066747050353956 [Eh]
	 SCS Correlation Energy    =      -3.1787457341792997 [Eh]
	 SCS Total Energy          =   -1138.9991642446384503 [Eh]
	-----------------------------------------------------------

  Dipole Moment: [D]
     X:    -3.5698      Y:     2.4194      Z:     3.8482     Total:     5.7798

*** Psi4 exiting successfully. Buy a developer a beer!
