                               Psi4 1.3.2 release

  ==> Input File <==

--------------------------------------------------------------------------
#psi4
#
memory 32 gb

molecule  {
0 1
  P        2.6114510     0.0433530    -0.1897960
  O       -0.7415730    -0.5166550    -0.8759300
  O       -3.1471200     1.7525200     0.1857420
  O       -3.5574290    -0.5524670    -0.9560380
  O       -0.9262260    -1.6975490     1.1507850
  O        1.5012860     1.2233130    -0.3203930
  O        1.7414800    -1.2994450    -0.3567160
  O        2.9590140    -0.0653000     1.3909990
  O        3.7753660     0.2843820    -1.0654240
  C       -2.1182816     0.7971095     0.6272636
  C       -0.8949230     0.8134730    -0.3165700
  C       -2.7827930    -0.6059770     0.2231310
  C       -1.5369320    -1.4089660    -0.0835960
  C        0.3225300     1.1924080     0.5079200
  H       -1.9376650     0.8286140     1.6117160
  H       -1.0169450     1.4955040    -1.1629930
  H       -3.3413290    -1.0227480     1.0706890
  H       -1.7077950    -2.2947630    -0.7028010
  H        0.4416350     0.4968690     1.3430810
  H        0.1975530     2.2044650     0.9092850
  H       -2.8909940     2.6048820     0.5755830
  H       -4.0423210     0.2940670    -0.9260900
  H       -0.0419210    -2.0739930     0.9730340
  H        0.9072950    -1.0817680    -0.8531670
  H        3.8470510     0.3069850     1.5449930
units angstrom
no_reorient  #important for SAPT in psi4, default
symmetry c1  #important for SAPT in psi4, default
}

set PROPERTIES_ORIGIN ["COM"]
properties('MP2/aug-cc-pvtz', properties = ['dipole'])
--------------------------------------------------------------------------

    Molecular point group: c1
  Charge       = 0
  Multiplicity = 1
  Basis Set: AUG-CC-PVTZ
    Blend: AUG-CC-PVTZ
  Basis Set: (AUG-CC-PVTZ AUX)
    Blend: AUG-CC-PVTZ-JKFIT

    Orbital Energies [Eh]
    ---------------------

    Doubly Occupied:

       1A    -80.114751     2A    -20.611218     3A    -20.604557
       4A    -20.604533     5A    -20.604182     6A    -20.598577
       7A    -20.595276     8A    -20.576495     9A    -20.514425
      10A    -11.361405    11A    -11.321435    12A    -11.320851
      13A    -11.320214    14A    -11.310846    15A     -7.629707
      16A     -5.528124    17A     -5.528045    18A     -5.526548
      19A     -1.462678    20A     -1.447620    21A     -1.399831
      22A     -1.390436    23A     -1.378130    24A     -1.370898
      25A     -1.368015    26A     -1.295790    27A     -1.086329
      28A     -1.041970    29A     -0.945620    30A     -0.859429
      31A     -0.847516    32A     -0.826690    33A     -0.770316
      34A     -0.759759    35A     -0.743868    36A     -0.740435
      37A     -0.715567    38A     -0.692911    39A     -0.681485
      40A     -0.664779    41A     -0.653209    42A     -0.645708
      43A     -0.632122    44A     -0.609763    45A     -0.601859
      46A     -0.592063    47A     -0.581985    48A     -0.578381
      49A     -0.569889    50A     -0.559326    51A     -0.543491
      52A     -0.532641    53A     -0.527441    54A     -0.517852
      55A     -0.495374    56A     -0.487060    57A     -0.474988
      58A     -0.469062    59A     -0.465010    60A     -0.443970

  @DF-RHF Final Energy: -1135.80692719170611

   => Energetics <=

    Nuclear Repulsion Energy =           1214.9160791613076071
    One-Electron Energy =               -3983.1611006999214624
    Two-Electron Energy =                1632.4380943469077465
    Total Energy =                      -1135.8069271917061087
  Basis Set: (AUG-CC-PVTZ AUX)
    Blend: AUG-CC-PVTZ-RI
    Molecular point group: c1

    Geometry (in Angstrom), charge = 0, multiplicity = 1:

       Center              X                  Y                   Z               Mass
    ------------   -----------------  -----------------  -----------------  -----------------
         P            2.555934618206     0.049280935928    -0.174533896919    30.973761998420
         O           -0.797089381794    -0.510727064072    -0.860667896919    15.994914619570
         O           -3.202636381794     1.758447935928     0.201004103081    15.994914619570
         O           -3.612945381794    -0.546539064072    -0.940775896919    15.994914619570
         O           -0.981742381794    -1.691621064072     1.166047103081    15.994914619570
         O            1.445769618206     1.229240935928    -0.305130896919    15.994914619570
         O            1.685963618206    -1.293517064072    -0.341453896919    15.994914619570
         O            2.903497618206    -0.059372064072     1.406261103081    15.994914619570
         O            3.719849618206     0.290309935928    -1.050161896919    15.994914619570
         C           -2.173797981794     0.803037435928     0.642525703081    12.000000000000
         C           -0.950439381794     0.819400935928    -0.301307896919    12.000000000000
         C           -2.838309381794    -0.600049064072     0.238393103081    12.000000000000
         C           -1.592448381794    -1.403038064072    -0.068333896919    12.000000000000
         C            0.267013618206     1.198335935928     0.523182103081    12.000000000000
         H           -1.993181381794     0.834541935928     1.626978103081     1.007825032230
         H           -1.072461381794     1.501431935928    -1.147730896919     1.007825032230
         H           -3.396845381794    -1.016820064072     1.085951103081     1.007825032230
         H           -1.763311381794    -2.288835064072    -0.687538896919     1.007825032230
         H            0.386118618206     0.502796935928     1.358343103081     1.007825032230
         H            0.142036618206     2.210392935928     0.924547103081     1.007825032230
         H           -2.946510381794     2.610809935928     0.590845103081     1.007825032230
         H           -4.097837381794     0.299994935928    -0.910827896919     1.007825032230
         H           -0.097437381794    -2.068065064072     0.988296103081     1.007825032230
         H            0.851778618206    -1.075840064072    -0.837904896919     1.007825032230
         H            3.791534618206     0.312912935928     1.560255103081     1.007825032230

  Basis Set: AUG-CC-PVTZ
    Blend: AUG-CC-PVTZ
  Basis Set: (AUG-CC-PVTZ AUX)
    Blend: AUG-CC-PVTZ-JKFIT
	 Reference Energy          =   -1135.8069271917061087 [Eh]
	 Singles Energy            =      -0.0000000000000000 [Eh]
	 Same-Spin Energy          =      -0.8167987613415466 [Eh]
	 Opposite-Spin Energy      =      -2.4238700379198366 [Eh]
	 Correlation Energy        =      -3.2406687992613832 [Eh]
	 Total Energy              =   -1139.0475959909674657 [Eh]

	 ================> DF-SCS-MP2 Energies <==================
	-----------------------------------------------------------
	 SCS Same-Spin Scale       =       0.3333333333333333 [-]
	 SCS Opposite-Spin Scale   =       1.2000000000000000 [-]
	 SCS Same-Spin Energy      =      -0.2722662537805155 [Eh]
	 SCS Opposite-Spin Energy  =      -2.9086440455038036 [Eh]
	 SCS Correlation Energy    =      -3.1809102992843190 [Eh]
	 SCS Total Energy          =   -1138.9878374909903869 [Eh]
	-----------------------------------------------------------

  Dipole Moment: [D]
     X:    -3.4575      Y:     2.2491      Z:     4.0836     Total:     5.8042

*** Psi4 exiting successfully. Buy a developer a beer!
