                               Psi4 1.3.2 release

  ==> Input File <==

--------------------------------------------------------------------------
#psi4
#
memory 32 gb

molecule  {
0 1
  P        2.6114510     0.0433530    -0.1897960
  O       -0.7776626    -0.4822156    -0.8717912
  O       -3.1471200     1.7525200     0.1857420
  O       -3.5574290    -0.5524670    -0.9560380
  O       -0.9262260    -1.6975490     1.1507850
  O        1.5012860     1.2233130    -0.3203930
  O        1.7414800    -1.2994450    -0.3567160
  O        2.9590140    -0.0653000     1.3909990
  O        3.7753660     0.2843820    -1.0654240
  C       -2.1786680     0.7692630     0.5423480
  C       -0.8949230     0.8134730    -0.3165700
  C       -2.7827930    -0.6059770     0.2231310
  C       -1.5369320    -1.4089660    -0.0835960
  C        0.3225300     1.1924080     0.5079200
  H       -1.9376650     0.8286140     1.6117160
  H       -1.0169450     1.4955040    -1.1629930
  H       -3.3413290    -1.0227480     1.0706890
  H       -1.7077950    -2.2947630    -0.7028010
  H        0.4416350     0.4968690     1.3430810
  H        0.1975530     2.2044650     0.9092850
  H       -2.8909940     2.6048820     0.5755830
  H       -4.0423210     0.2940670    -0.9260900
  H       -0.0419210    -2.0739930     0.9730340
  H        0.9072950    -1.0817680    -0.8531670
  H        3.8470510     0.3069850     1.5449930
units angstrom
no_reorient  #important for SAPT in psi4, default
symmetry c1  #important for SAPT in psi4, default
}

set PROPERTIES_ORIGIN ["COM"]
properties('MP2/aug-cc-pvtz', properties = ['dipole'])
--------------------------------------------------------------------------

    Molecular point group: c1
  Charge       = 0
  Multiplicity = 1
  Basis Set: AUG-CC-PVTZ
    Blend: AUG-CC-PVTZ
  Basis Set: (AUG-CC-PVTZ AUX)
    Blend: AUG-CC-PVTZ-JKFIT

    Orbital Energies [Eh]
    ---------------------

    Doubly Occupied:

       1A    -80.116046     2A    -20.611977     3A    -20.605220
       4A    -20.604141     5A    -20.601818     6A    -20.601631
       7A    -20.596607     8A    -20.573640     9A    -20.515485
      10A    -11.363229    11A    -11.320503    12A    -11.319852
      13A    -11.314068    14A    -11.305640    15A     -7.631003
      16A     -5.529408    17A     -5.529354    18A     -5.527837
      19A     -1.466930    20A     -1.450850    21A     -1.409750
      22A     -1.391301    23A     -1.380149    24A     -1.376190
      25A     -1.370236    26A     -1.296821    27A     -1.080584
      28A     -1.048365    29A     -0.948735    30A     -0.856846
      31A     -0.843149    32A     -0.828766    33A     -0.772190
      34A     -0.759984    35A     -0.749130    36A     -0.734067
      37A     -0.717759    38A     -0.693904    39A     -0.684360
      40A     -0.667820    41A     -0.654303    42A     -0.650656
      43A     -0.631662    44A     -0.615869    45A     -0.598992
      46A     -0.597986    47A     -0.582998    48A     -0.577796
      49A     -0.569212    50A     -0.559822    51A     -0.544700
      52A     -0.533248    53A     -0.528298    54A     -0.510768
      55A     -0.492355    56A     -0.484086    57A     -0.474774
      58A     -0.469432    59A     -0.465763    60A     -0.447764

  @DF-RHF Final Energy: -1135.82290086548642

   => Energetics <=

    Nuclear Repulsion Energy =           1216.5111429291716831
    One-Electron Energy =               -3986.2964289858746270
    Two-Electron Energy =                1633.9623851912162991
    Total Energy =                      -1135.8229008654864174
  Basis Set: (AUG-CC-PVTZ AUX)
    Blend: AUG-CC-PVTZ-RI
    Molecular point group: c1

    Geometry (in Angstrom), charge = 0, multiplicity = 1:

       Center              X                  Y                   Z               Mass
    ------------   -----------------  -----------------  -----------------  -----------------
         P            2.561594524550     0.048338852373    -0.170391687762    30.973761998420
         O           -0.827519075450    -0.477229747627    -0.852386887762    15.994914619570
         O           -3.196976475450     1.757505852373     0.205146312238    15.994914619570
         O           -3.607285475450    -0.547481147627    -0.936633687762    15.994914619570
         O           -0.976082475450    -1.692563147627     1.170189312238    15.994914619570
         O            1.451429524550     1.228298852373    -0.300988687762    15.994914619570
         O            1.691623524550    -1.294459147627    -0.337311687762    15.994914619570
         O            2.909157524550    -0.060314147627     1.410403312238    15.994914619570
         O            3.725509524550     0.289367852373    -1.046019687762    15.994914619570
         C           -2.228524475450     0.774248852373     0.561752312238    12.000000000000
         C           -0.944779475450     0.818458852373    -0.297165687762    12.000000000000
         C           -2.832649475450    -0.600991147627     0.242535312238    12.000000000000
         C           -1.586788475450    -1.403980147627    -0.064191687762    12.000000000000
         C            0.272673524550     1.197393852373     0.527324312238    12.000000000000
         H           -1.987521475450     0.833599852373     1.631120312238     1.007825032230
         H           -1.066801475450     1.500489852373    -1.143588687762     1.007825032230
         H           -3.391185475450    -1.017762147627     1.090093312238     1.007825032230
         H           -1.757651475450    -2.289777147627    -0.683396687762     1.007825032230
         H            0.391778524550     0.501854852373     1.362485312238     1.007825032230
         H            0.147696524550     2.209450852373     0.928689312238     1.007825032230
         H           -2.940850475450     2.609867852373     0.594987312238     1.007825032230
         H           -4.092177475450     0.299052852373    -0.906685687762     1.007825032230
         H           -0.091777475450    -2.069007147627     0.992438312238     1.007825032230
         H            0.857438524550    -1.076782147627    -0.833762687762     1.007825032230
         H            3.797194524550     0.311970852373     1.564397312238     1.007825032230

  Basis Set: AUG-CC-PVTZ
    Blend: AUG-CC-PVTZ
  Basis Set: (AUG-CC-PVTZ AUX)
    Blend: AUG-CC-PVTZ-JKFIT
	 Reference Energy          =   -1135.8229008654864174 [Eh]
	 Singles Energy            =      -0.0000000000000000 [Eh]
	 Same-Spin Energy          =      -0.8160366758792265 [Eh]
	 Opposite-Spin Energy      =      -2.4208865555790098 [Eh]
	 Correlation Energy        =      -3.2369232314582361 [Eh]
	 Total Energy              =   -1139.0598240969445669 [Eh]

	 ================> DF-SCS-MP2 Energies <==================
	-----------------------------------------------------------
	 SCS Same-Spin Scale       =       0.3333333333333333 [-]
	 SCS Opposite-Spin Scale   =       1.2000000000000000 [-]
	 SCS Same-Spin Energy      =      -0.2720122252930754 [Eh]
	 SCS Opposite-Spin Energy  =      -2.9050638666948116 [Eh]
	 SCS Correlation Energy    =      -3.1770760919878871 [Eh]
	 SCS Total Energy          =   -1138.9999769574742459 [Eh]
	-----------------------------------------------------------

  Dipole Moment: [D]
     X:    -3.3372      Y:     2.1633      Z:     4.0082     Total:     5.6464

*** Psi4 exiting successfully. Buy a developer a beer!
