                               Psi4 1.4a3.dev225

  ==> Input File <==

--------------------------------------------------------------------------
#psi4
#
memory 32 gb

molecule  {
0 1
  P        2.6113660     0.0433910    -0.1897900
  O       -0.7416560    -0.5164190    -0.8762010
  O       -3.1473860     1.7523070     0.1855430
  O       -3.5574330    -0.5529450    -0.9556820
  O       -0.9255690    -1.6972900     1.1506350
  O        1.5012550     1.2233910    -0.3202530
  O        1.7411940    -1.2993510    -0.3564950
  O        2.9591660    -0.0655390     1.3909200
  O        3.7751240     0.2843830    -1.0656400
  C       -2.1787050     0.7693270     0.5422590
  C       -0.8949630     0.8136090    -0.3166340
  C       -2.7825860    -0.6061320     0.2233240
  C       -1.5201778    -1.4195235    -0.0876170
  C        0.3224410     1.1924200     0.5080110
  H       -1.9377070     0.8289040     1.6116220
  H       -1.0168440     1.4957790    -1.1629650
  H       -3.3408870    -1.0228010     1.0710960
  H       -1.7074320    -2.2947510    -0.7027390
  H        0.4414920     0.4968360     1.3431340
  H        0.1974400     2.2044510     0.9094280
  H       -2.8916000     2.6047160     0.5754970
  H       -4.0429610     0.2932130    -0.9254450
  H       -0.0410590    -2.0731950     0.9726900
  H        0.9073710    -1.0816890    -0.8535130
  H        3.8468470     0.3075270     1.5450430
units angstrom
no_reorient  #important for SAPT in psi4, default
symmetry c1  #important for SAPT in psi4, default
}

set PROPERTIES_ORIGIN ["COM"]
properties('MP2/aug-cc-pvtz', properties = ['dipole'])
--------------------------------------------------------------------------

    Molecular point group: c1
  Charge       = 0
  Multiplicity = 1
  Basis Set: AUG-CC-PVTZ
    Blend: AUG-CC-PVTZ
  Basis Set: (AUG-CC-PVTZ AUX)
    Blend: AUG-CC-PVTZ-JKFIT

    Orbital Energies [Eh]
    ---------------------

    Doubly Occupied:

       1A    -80.115174     2A    -20.611395     3A    -20.605816
       4A    -20.605245     5A    -20.603631     6A    -20.598820
       7A    -20.596022     8A    -20.573924     9A    -20.514791
      10A    -11.361710    11A    -11.322675    12A    -11.321412
      13A    -11.318418    14A    -11.306961    15A     -7.630123
      16A     -5.528542    17A     -5.528463    18A     -5.526960
      19A     -1.463977    20A     -1.448884    21A     -1.411289
      22A     -1.390998    23A     -1.378524    24A     -1.374145
      25A     -1.369139    26A     -1.296127    27A     -1.083808
      28A     -1.043681    29A     -0.946397    30A     -0.857808
      31A     -0.841545    32A     -0.829768    33A     -0.772018
      34A     -0.759530    35A     -0.747717    36A     -0.733527
      37A     -0.716974    38A     -0.693223    39A     -0.684565
      40A     -0.668435    41A     -0.653569    42A     -0.647970
      43A     -0.632925    44A     -0.615340    45A     -0.601147
      46A     -0.595755    47A     -0.582055    48A     -0.577215
      49A     -0.569837    50A     -0.558930    51A     -0.543737
      52A     -0.532873    53A     -0.527247    54A     -0.511234
      55A     -0.491186    56A     -0.486791    57A     -0.474970
      58A     -0.468544    59A     -0.464761    60A     -0.450012

  @DF-RHF Final Energy: -1135.82251160422106

   => Energetics <=

    Nuclear Repulsion Energy =           1215.8408904634729879
    One-Electron Energy =               -3984.9902866916418134
    Two-Electron Energy =                1633.3268846239477625
    Total Energy =                      -1135.8225116042210630
  Basis Set: (AUG-CC-PVTZ AUX)
    Blend: AUG-CC-PVTZ-RI
    Molecular point group: c1

    Geometry (in Angstrom), charge = 0, multiplicity = 1:

       Center              X                  Y                   Z               Mass
    ------------   -----------------  -----------------  -----------------  -----------------
         P            2.558141939888     0.051328745986    -0.169884256261    30.973761998420
         O           -0.794880060112    -0.508481254014    -0.856295256261    15.994914619570
         O           -3.200610060112     1.760244745986     0.205448743739    15.994914619570
         O           -3.610657060112    -0.545007254014    -0.935776256261    15.994914619570
         O           -0.978793060112    -1.689352254014     1.170540743739    15.994914619570
         O            1.448030939888     1.231328745986    -0.300347256261    15.994914619570
         O            1.687969939888    -1.291413254014    -0.336589256261    15.994914619570
         O            2.905941939888    -0.057601254014     1.410825743739    15.994914619570
         O            3.721899939888     0.292320745986    -1.045734256261    15.994914619570
         C           -2.231929060112     0.777264745986     0.562164743739    12.000000000000
         C           -0.948187060112     0.821546745986    -0.296728256261    12.000000000000
         C           -2.835810060112    -0.598194254014     0.243229743739    12.000000000000
         C           -1.573401860112    -1.411585754014    -0.067711256261    12.000000000000
         C            0.269216939888     1.200357745986     0.527916743739    12.000000000000
         H           -1.990931060112     0.836841745986     1.631527743739     1.007825032230
         H           -1.070068060112     1.503716745986    -1.143059256261     1.007825032230
         H           -3.394111060112    -1.014863254014     1.091001743739     1.007825032230
         H           -1.760656060112    -2.286813254014    -0.682833256261     1.007825032230
         H            0.388267939888     0.504773745986     1.363039743739     1.007825032230
         H            0.144215939888     2.212388745986     0.929333743739     1.007825032230
         H           -2.944824060112     2.612653745986     0.595402743739     1.007825032230
         H           -4.096185060112     0.301150745986    -0.905539256261     1.007825032230
         H           -0.094283060112    -2.065257254014     0.992595743739     1.007825032230
         H            0.854146939888    -1.073751254014    -0.833607256261     1.007825032230
         H            3.793622939888     0.315464745986     1.564948743739     1.007825032230

  Basis Set: AUG-CC-PVTZ
    Blend: AUG-CC-PVTZ
  Basis Set: (AUG-CC-PVTZ AUX)
    Blend: AUG-CC-PVTZ-JKFIT
	 Reference Energy          =   -1135.8225116042210630 [Eh]
	 Singles Energy            =      -0.0000000000000000 [Eh]
	 Same-Spin Energy          =      -0.8161952125482563 [Eh]
	 Opposite-Spin Energy      =      -2.4217074941075554 [Eh]
	 Correlation Energy        =      -3.2379027066558117 [Eh]
	 Total Energy              =   -1139.0604143108769222 [Eh]

	 ================> DF-SCS-MP2 Energies <==================
	-----------------------------------------------------------
	 SCS Same-Spin Scale       =       0.3333333333333333 [-]
	 SCS Opposite-Spin Scale   =       1.2000000000000000 [-]
	 SCS Same-Spin Energy      =      -0.2720650708494188 [Eh]
	 SCS Opposite-Spin Energy  =      -2.9060489929290663 [Eh]
	 SCS Correlation Energy    =      -3.1781140637784850 [Eh]
	 SCS Total Energy          =   -1139.0006256679996568 [Eh]
	-----------------------------------------------------------

  Dipole Moment: [D]
     X:    -3.4316      Y:     2.2758      Z:     4.0360     Total:     5.7658

*** Psi4 exiting successfully. Buy a developer a beer!
