                               Psi4 1.3.2 release

  ==> Input File <==

--------------------------------------------------------------------------
#psi4
#
memory 32 gb

molecule  {
0 1
  P        2.6114510     0.0433530    -0.1897960
  O       -0.7415730    -0.5166550    -0.8759300
  O       -3.1471200     1.7525200     0.1857420
  O       -3.5574290    -0.5524670    -0.9560380
  O       -0.9262260    -1.6975490     1.1507850
  O        1.5012860     1.2233130    -0.3203930
  O        1.7414800    -1.2994450    -0.3567160
  O        2.9590140    -0.0653000     1.3909990
  O        3.7753660     0.2843820    -1.0654240
  C       -2.1786680     0.7692630     0.5423480
  C       -0.8900436     0.8338973    -0.3327360
  C       -2.7827930    -0.6059770     0.2231310
  C       -1.5369320    -1.4089660    -0.0835960
  C        0.3225300     1.1924080     0.5079200
  H       -1.9376650     0.8286140     1.6117160
  H       -1.0169450     1.4955040    -1.1629930
  H       -3.3413290    -1.0227480     1.0706890
  H       -1.7077950    -2.2947630    -0.7028010
  H        0.4416350     0.4968690     1.3430810
  H        0.1975530     2.2044650     0.9092850
  H       -2.8909940     2.6048820     0.5755830
  H       -4.0423210     0.2940670    -0.9260900
  H       -0.0419210    -2.0739930     0.9730340
  H        0.9072950    -1.0817680    -0.8531670
  H        3.8470510     0.3069850     1.5449930
units angstrom
no_reorient  #important for SAPT in psi4, default
symmetry c1  #important for SAPT in psi4, default
}

set PROPERTIES_ORIGIN ["COM"]
properties('MP2/aug-cc-pvtz', properties = ['dipole'])
--------------------------------------------------------------------------

    Molecular point group: c1
  Charge       = 0
  Multiplicity = 1
  Basis Set: AUG-CC-PVTZ
    Blend: AUG-CC-PVTZ
  Basis Set: (AUG-CC-PVTZ AUX)
    Blend: AUG-CC-PVTZ-JKFIT

    Orbital Energies [Eh]
    ---------------------

    Doubly Occupied:

       1A    -80.114787     2A    -20.611187     3A    -20.605805
       4A    -20.604855     5A    -20.601646     6A    -20.598029
       7A    -20.594083     8A    -20.574597     9A    -20.514478
      10A    -11.361607    11A    -11.323966    12A    -11.321770
      13A    -11.318078    14A    -11.307020    15A     -7.629739
      16A     -5.528162    17A     -5.528074    18A     -5.526579
      19A     -1.461370    20A     -1.446861    21A     -1.411052
      22A     -1.390652    23A     -1.377906    24A     -1.373053
      25A     -1.366478    26A     -1.295824    27A     -1.082647
      28A     -1.046709    29A     -0.945952    30A     -0.858722
      31A     -0.842577    32A     -0.828521    33A     -0.771585
      34A     -0.758650    35A     -0.746628    36A     -0.733571
      37A     -0.716537    38A     -0.692543    39A     -0.684273
      40A     -0.666941    41A     -0.653020    42A     -0.646752
      43A     -0.633533    44A     -0.613000    45A     -0.602943
      46A     -0.595224    47A     -0.581804    48A     -0.577425
      49A     -0.569979    50A     -0.559611    51A     -0.543122
      52A     -0.532414    53A     -0.526330    54A     -0.511570
      55A     -0.489569    56A     -0.486887    57A     -0.475785
      58A     -0.469502    59A     -0.466009    60A     -0.449764

  @DF-RHF Final Energy: -1135.82202518228837

   => Energetics <=

    Nuclear Repulsion Energy =           1215.4619490252709966
    One-Electron Energy =               -3984.2724281579949093
    Two-Electron Energy =                1632.9884539504357690
    Total Energy =                      -1135.8220251822883711
  Basis Set: (AUG-CC-PVTZ AUX)
    Blend: AUG-CC-PVTZ-RI
    Molecular point group: c1

    Geometry (in Angstrom), charge = 0, multiplicity = 1:

       Center              X                  Y                   Z               Mass
    ------------   -----------------  -----------------  -----------------  -----------------
         P            2.558830394438     0.049668148898    -0.169260513476    30.973761998420
         O           -0.794193605562    -0.510339851102    -0.855394513476    15.994914619570
         O           -3.199740605562     1.758835148898     0.206277486524    15.994914619570
         O           -3.610049605562    -0.546151851102    -0.935502513476    15.994914619570
         O           -0.978846605562    -1.691233851102     1.171320486524    15.994914619570
         O            1.448665394438     1.229628148898    -0.299857513476    15.994914619570
         O            1.688859394438    -1.293129851102    -0.336180513476    15.994914619570
         O            2.906393394438    -0.058984851102     1.411534486524    15.994914619570
         O            3.722745394438     0.290697148898    -1.044888513476    15.994914619570
         C           -2.231288605562     0.775578148898     0.562883486524    12.000000000000
         C           -0.942664205562     0.840212448898    -0.312200513476    12.000000000000
         C           -2.835413605562    -0.599661851102     0.243666486524    12.000000000000
         C           -1.589552605562    -1.402650851102    -0.063060513476    12.000000000000
         C            0.269909394438     1.198723148898     0.528455486524    12.000000000000
         H           -1.990285605562     0.834929148898     1.632251486524     1.007825032230
         H           -1.069565605562     1.501819148898    -1.142457513476     1.007825032230
         H           -3.393949605562    -1.016432851102     1.091224486524     1.007825032230
         H           -1.760415605562    -2.288447851102    -0.682265513476     1.007825032230
         H            0.389014394438     0.503184148898     1.363616486524     1.007825032230
         H            0.144932394438     2.210780148898     0.929820486524     1.007825032230
         H           -2.943614605562     2.611197148898     0.596118486524     1.007825032230
         H           -4.094941605562     0.300382148898    -0.905554513476     1.007825032230
         H           -0.094541605562    -2.067677851102     0.993569486524     1.007825032230
         H            0.854674394438    -1.075452851102    -0.832631513476     1.007825032230
         H            3.794430394438     0.313300148898     1.565528486524     1.007825032230

  Basis Set: AUG-CC-PVTZ
    Blend: AUG-CC-PVTZ
  Basis Set: (AUG-CC-PVTZ AUX)
    Blend: AUG-CC-PVTZ-JKFIT
	 Reference Energy          =   -1135.8220251822883711 [Eh]
	 Singles Energy            =      -0.0000000000000000 [Eh]
	 Same-Spin Energy          =      -0.8161051139213360 [Eh]
	 Opposite-Spin Energy      =      -2.4217637939672754 [Eh]
	 Correlation Energy        =      -3.2378689078886111 [Eh]
	 Total Energy              =   -1139.0598940901770675 [Eh]

	 ================> DF-SCS-MP2 Energies <==================
	-----------------------------------------------------------
	 SCS Same-Spin Scale       =       0.3333333333333333 [-]
	 SCS Opposite-Spin Scale   =       1.2000000000000000 [-]
	 SCS Same-Spin Energy      =      -0.2720350379737786 [Eh]
	 SCS Opposite-Spin Energy  =      -2.9061165527607304 [Eh]
	 SCS Correlation Energy    =      -3.1781515907345090 [Eh]
	 SCS Total Energy          =   -1139.0001767730229858 [Eh]
	-----------------------------------------------------------

  Dipole Moment: [D]
     X:    -3.4862      Y:     2.3470      Z:     4.0288     Total:     5.8218

*** Psi4 exiting successfully. Buy a developer a beer!
