                               Psi4 1.3.2 release

  ==> Input File <==

--------------------------------------------------------------------------
#psi4
#
memory 32 gb

molecule  {
0 1
  P        2.6114510     0.0433530    -0.1897960
  O       -0.7415730    -0.5166550    -0.8759300
  O       -3.1471200     1.7525200     0.1857420
  O       -3.5574290    -0.5524670    -0.9560380
  O       -0.9274901    -1.6496630     1.1616284
  O        1.5012860     1.2233130    -0.3203930
  O        1.7414800    -1.2994450    -0.3567160
  O        2.9590140    -0.0653000     1.3909990
  O        3.7753660     0.2843820    -1.0654240
  C       -2.1786680     0.7692630     0.5423480
  C       -0.8949230     0.8134730    -0.3165700
  C       -2.7827930    -0.6059770     0.2231310
  C       -1.5369320    -1.4089660    -0.0835960
  C        0.3225300     1.1924080     0.5079200
  H       -1.9376650     0.8286140     1.6117160
  H       -1.0169450     1.4955040    -1.1629930
  H       -3.3413290    -1.0227480     1.0706890
  H       -1.7077950    -2.2947630    -0.7028010
  H        0.4416350     0.4968690     1.3430810
  H        0.1975530     2.2044650     0.9092850
  H       -2.8909940     2.6048820     0.5755830
  H       -4.0423210     0.2940670    -0.9260900
  H       -0.0419210    -2.0739930     0.9730340
  H        0.9072950    -1.0817680    -0.8531670
  H        3.8470510     0.3069850     1.5449930
units angstrom
no_reorient  #important for SAPT in psi4, default
symmetry c1  #important for SAPT in psi4, default
}

set PROPERTIES_ORIGIN ["COM"]
properties('MP2/aug-cc-pvtz', properties = ['dipole'])
--------------------------------------------------------------------------

    Molecular point group: c1
  Charge       = 0
  Multiplicity = 1
  Basis Set: AUG-CC-PVTZ
    Blend: AUG-CC-PVTZ
  Basis Set: (AUG-CC-PVTZ AUX)
    Blend: AUG-CC-PVTZ-JKFIT

    Orbital Energies [Eh]
    ---------------------

    Doubly Occupied:

       1A    -80.114616     2A    -20.610883     3A    -20.605573
       4A    -20.604471     5A    -20.602247     6A    -20.598184
       7A    -20.597723     8A    -20.574178     9A    -20.514324
      10A    -11.362148    11A    -11.322521    12A    -11.320232
      13A    -11.317440    14A    -11.306355    15A     -7.629564
      16A     -5.527983    17A     -5.527904    18A     -5.526403
      19A     -1.462809    20A     -1.447897    21A     -1.410628
      22A     -1.390053    23A     -1.377869    24A     -1.372276
      25A     -1.366377    26A     -1.295655    27A     -1.083437
      28A     -1.045727    29A     -0.945542    30A     -0.856984
      31A     -0.841350    32A     -0.828323    33A     -0.771118
      34A     -0.757953    35A     -0.746206    36A     -0.733328
      37A     -0.716433    38A     -0.691963    39A     -0.682803
      40A     -0.667221    41A     -0.652740    42A     -0.647410
      43A     -0.632482    44A     -0.613494    45A     -0.599860
      46A     -0.594988    47A     -0.581750    48A     -0.576796
      49A     -0.568980    50A     -0.559303    51A     -0.543000
      52A     -0.532886    53A     -0.526375    54A     -0.510551
      55A     -0.492221    56A     -0.486927    57A     -0.474545
      58A     -0.468749    59A     -0.465107    60A     -0.449864

  @DF-RHF Final Energy: -1135.82003945644010

   => Energetics <=

    Nuclear Repulsion Energy =           1216.6669485595186870
    One-Electron Energy =               -3986.7085117590063419
    Two-Electron Energy =                1634.2215237430473280
    Total Energy =                      -1135.8200394564400995
  Basis Set: (AUG-CC-PVTZ AUX)
    Blend: AUG-CC-PVTZ-RI
    Molecular point group: c1

    Geometry (in Angstrom), charge = 0, multiplicity = 1:

       Center              X                  Y                   Z               Mass
    ------------   -----------------  -----------------  -----------------  -----------------
         P            2.559172852751     0.047403811899    -0.170857907651    30.973761998420
         O           -0.793851147249    -0.512604188101    -0.856991907651    15.994914619570
         O           -3.199398147249     1.756570811899     0.204680092349    15.994914619570
         O           -3.609707147249    -0.548416188101    -0.937099907651    15.994914619570
         O           -0.979768247249    -1.645612188101     1.180566492349    15.994914619570
         O            1.449007852751     1.227363811899    -0.301454907651    15.994914619570
         O            1.689201852751    -1.295394188101    -0.337777907651    15.994914619570
         O            2.906735852751    -0.061249188101     1.409937092349    15.994914619570
         O            3.723087852751     0.288432811899    -1.046485907651    15.994914619570
         C           -2.230946147249     0.773313811899     0.561286092349    12.000000000000
         C           -0.947201147249     0.817523811899    -0.297631907651    12.000000000000
         C           -2.835071147249    -0.601926188101     0.242069092349    12.000000000000
         C           -1.589210147249    -1.404915188101    -0.064657907651    12.000000000000
         C            0.270251852751     1.196458811899     0.526858092349    12.000000000000
         H           -1.989943147249     0.832664811899     1.630654092349     1.007825032230
         H           -1.069223147249     1.499554811899    -1.144054907651     1.007825032230
         H           -3.393607147249    -1.018697188101     1.089627092349     1.007825032230
         H           -1.760073147249    -2.290712188101    -0.683862907651     1.007825032230
         H            0.389356852751     0.500919811899     1.362019092349     1.007825032230
         H            0.145274852751     2.208515811899     0.928223092349     1.007825032230
         H           -2.943272147249     2.608932811899     0.594521092349     1.007825032230
         H           -4.094599147249     0.298117811899    -0.907151907651     1.007825032230
         H           -0.094199147249    -2.069942188101     0.991972092349     1.007825032230
         H            0.855016852751    -1.077717188101    -0.834228907651     1.007825032230
         H            3.794772852751     0.311035811899     1.563931092349     1.007825032230

  Basis Set: AUG-CC-PVTZ
    Blend: AUG-CC-PVTZ
  Basis Set: (AUG-CC-PVTZ AUX)
    Blend: AUG-CC-PVTZ-JKFIT
	 Reference Energy          =   -1135.8200394564400995 [Eh]
	 Singles Energy            =      -0.0000000000000000 [Eh]
	 Same-Spin Energy          =      -0.8167520698722569 [Eh]
	 Opposite-Spin Energy      =      -2.4228177494399499 [Eh]
	 Correlation Energy        =      -3.2395698193122069 [Eh]
	 Total Energy              =   -1139.0596092757523365 [Eh]

	 ================> DF-SCS-MP2 Energies <==================
	-----------------------------------------------------------
	 SCS Same-Spin Scale       =       0.3333333333333333 [-]
	 SCS Opposite-Spin Scale   =       1.2000000000000000 [-]
	 SCS Same-Spin Energy      =      -0.2722506899574190 [Eh]
	 SCS Opposite-Spin Energy  =      -2.9073812993279398 [Eh]
	 SCS Correlation Energy    =      -3.1796319892853586 [Eh]
	 SCS Total Energy          =   -1138.9996714457254257 [Eh]
	-----------------------------------------------------------

  Dipole Moment: [D]
     X:    -3.4919      Y:     2.1719      Z:     4.0392     Total:     5.7642

*** Psi4 exiting successfully. Buy a developer a beer!
