                               Psi4 1.3.2 release

  ==> Input File <==

--------------------------------------------------------------------------
#psi4
#
memory 32 gb

molecule  {
0 1
  P        2.6114510     0.0433530    -0.1897960
  O       -0.7244380    -0.5160869    -0.8576945
  O       -3.1471200     1.7525200     0.1857420
  O       -3.5574290    -0.5524670    -0.9560380
  O       -0.9262260    -1.6975490     1.1507850
  O        1.5012860     1.2233130    -0.3203930
  O        1.7414800    -1.2994450    -0.3567160
  O        2.9590140    -0.0653000     1.3909990
  O        3.7753660     0.2843820    -1.0654240
  C       -2.1786680     0.7692630     0.5423480
  C       -0.8949230     0.8134730    -0.3165700
  C       -2.7827930    -0.6059770     0.2231310
  C       -1.5369320    -1.4089660    -0.0835960
  C        0.3225300     1.1924080     0.5079200
  H       -1.9376650     0.8286140     1.6117160
  H       -1.0169450     1.4955040    -1.1629930
  H       -3.3413290    -1.0227480     1.0706890
  H       -1.7077950    -2.2947630    -0.7028010
  H        0.4416350     0.4968690     1.3430810
  H        0.1975530     2.2044650     0.9092850
  H       -2.8909940     2.6048820     0.5755830
  H       -4.0423210     0.2940670    -0.9260900
  H       -0.0419210    -2.0739930     0.9730340
  H        0.9072950    -1.0817680    -0.8531670
  H        3.8470510     0.3069850     1.5449930
units angstrom
no_reorient  #important for SAPT in psi4, default
symmetry c1  #important for SAPT in psi4, default
}

set PROPERTIES_ORIGIN ["COM"]
properties('MP2/aug-cc-pvtz', properties = ['dipole'])
--------------------------------------------------------------------------

    Molecular point group: c1
  Charge       = 0
  Multiplicity = 1
  Basis Set: AUG-CC-PVTZ
    Blend: AUG-CC-PVTZ
  Basis Set: (AUG-CC-PVTZ AUX)
    Blend: AUG-CC-PVTZ-JKFIT

    Orbital Energies [Eh]
    ---------------------

    Doubly Occupied:

       1A    -80.114399     2A    -20.610752     3A    -20.606498
       4A    -20.604652     5A    -20.603308     6A    -20.597251
       7A    -20.593948     8A    -20.575497     9A    -20.514159
      10A    -11.362793    11A    -11.323571    12A    -11.320485
      13A    -11.318040    14A    -11.307895    15A     -7.629348
      16A     -5.527771    17A     -5.527682    18A     -5.526187
      19A     -1.464029    20A     -1.448237    21A     -1.411830
      22A     -1.390282    23A     -1.377447    24A     -1.373788
      25A     -1.368992    26A     -1.295494    27A     -1.084125
      28A     -1.047621    29A     -0.946469    30A     -0.858169
      31A     -0.842247    32A     -0.829570    33A     -0.772180
      34A     -0.759564    35A     -0.748236    36A     -0.733986
      37A     -0.716271    38A     -0.692118    39A     -0.684498
      40A     -0.667926    41A     -0.653088    42A     -0.647914
      43A     -0.633665    44A     -0.613217    45A     -0.601125
      46A     -0.596292    47A     -0.581550    48A     -0.577263
      49A     -0.570157    50A     -0.560531    51A     -0.542833
      52A     -0.531980    53A     -0.526790    54A     -0.512183
      55A     -0.490381    56A     -0.487793    57A     -0.474649
      58A     -0.469099    59A     -0.465466    60A     -0.450601

  @DF-RHF Final Energy: -1135.82301426760614

   => Energetics <=

    Nuclear Repulsion Energy =           1216.4131386193996605
    One-Electron Energy =               -3986.1445183971395636
    Two-Electron Energy =                1633.9083655101335353
    Total Energy =                      -1135.8230142676061405
  Basis Set: (AUG-CC-PVTZ AUX)
    Blend: AUG-CC-PVTZ-RI
    Molecular point group: c1

    Geometry (in Angstrom), charge = 0, multiplicity = 1:

       Center              X                  Y                   Z               Mass
    ------------   -----------------  -----------------  -----------------  -----------------
         P            2.557893428721     0.050694171664    -0.171371934444    30.973761998420
         O           -0.777995571279    -0.508745728336    -0.839270434444    15.994914619570
         O           -3.200677571279     1.759861171664     0.204166065556    15.994914619570
         O           -3.610986571279    -0.545125828336    -0.937613934444    15.994914619570
         O           -0.979783571279    -1.690207828336     1.169209065556    15.994914619570
         O            1.447728428721     1.230654171664    -0.301968934444    15.994914619570
         O            1.687922428721    -1.292103828336    -0.338291934444    15.994914619570
         O            2.905456428721    -0.057958828336     1.409423065556    15.994914619570
         O            3.721808428721     0.291723171664    -1.046999934444    15.994914619570
         C           -2.232225571279     0.776604171664     0.560772065556    12.000000000000
         C           -0.948480571279     0.820814171664    -0.298145934444    12.000000000000
         C           -2.836350571279    -0.598635828336     0.241555065556    12.000000000000
         C           -1.590489571279    -1.401624828336    -0.065171934444    12.000000000000
         C            0.268972428721     1.199749171664     0.526344065556    12.000000000000
         H           -1.991222571279     0.835955171664     1.630140065556     1.007825032230
         H           -1.070502571279     1.502845171664    -1.144568934444     1.007825032230
         H           -3.394886571279    -1.015406828336     1.089113065556     1.007825032230
         H           -1.761352571279    -2.287421828336    -0.684376934444     1.007825032230
         H            0.388077428721     0.504210171664     1.361505065556     1.007825032230
         H            0.143995428721     2.211806171664     0.927709065556     1.007825032230
         H           -2.944551571279     2.612223171664     0.594007065556     1.007825032230
         H           -4.095878571279     0.301408171664    -0.907665934444     1.007825032230
         H           -0.095478571279    -2.066651828336     0.991458065556     1.007825032230
         H            0.853737428721    -1.074426828336    -0.834742934444     1.007825032230
         H            3.793493428721     0.314326171664     1.563417065556     1.007825032230

  Basis Set: AUG-CC-PVTZ
    Blend: AUG-CC-PVTZ
  Basis Set: (AUG-CC-PVTZ AUX)
    Blend: AUG-CC-PVTZ-JKFIT
	 Reference Energy          =   -1135.8230142676061405 [Eh]
	 Singles Energy            =      -0.0000000000000000 [Eh]
	 Same-Spin Energy          =      -0.8162059040002050 [Eh]
	 Opposite-Spin Energy      =      -2.4215703955600740 [Eh]
	 Correlation Energy        =      -3.2377762995602790 [Eh]
	 Total Energy              =   -1139.0607905671663502 [Eh]

	 ================> DF-SCS-MP2 Energies <==================
	-----------------------------------------------------------
	 SCS Same-Spin Scale       =       0.3333333333333333 [-]
	 SCS Opposite-Spin Scale   =       1.2000000000000000 [-]
	 SCS Same-Spin Energy      =      -0.2720686346667350 [Eh]
	 SCS Opposite-Spin Energy  =      -2.9058844746720887 [Eh]
	 SCS Correlation Energy    =      -3.1779531093388238 [Eh]
	 SCS Total Energy          =   -1139.0009673769450274 [Eh]
	-----------------------------------------------------------

  Dipole Moment: [D]
     X:    -3.5533      Y:     2.2899      Z:     4.0016     Total:     5.8209

*** Psi4 exiting successfully. Buy a developer a beer!
