                               Psi4 1.3.2 release

  ==> Input File <==

--------------------------------------------------------------------------
#psi4
#
memory 32 gb

molecule  {
0 1
  P        2.6114510     0.0433530    -0.1897960
  O       -0.7415730    -0.5166550    -0.8759300
  O       -3.1471200     1.7525200     0.1857420
  O       -3.5574290    -0.5524670    -0.9560380
  O       -0.9322433    -1.5530698     1.1787526
  O        1.5012860     1.2233130    -0.3203930
  O        1.7414800    -1.2994450    -0.3567160
  O        2.9590140    -0.0653000     1.3909990
  O        3.7753660     0.2843820    -1.0654240
  C       -2.1786680     0.7692630     0.5423480
  C       -0.8949230     0.8134730    -0.3165700
  C       -2.7827930    -0.6059770     0.2231310
  C       -1.5369320    -1.4089660    -0.0835960
  C        0.3225300     1.1924080     0.5079200
  H       -1.9376650     0.8286140     1.6117160
  H       -1.0169450     1.4955040    -1.1629930
  H       -3.3413290    -1.0227480     1.0706890
  H       -1.7077950    -2.2947630    -0.7028010
  H        0.4416350     0.4968690     1.3430810
  H        0.1975530     2.2044650     0.9092850
  H       -2.8909940     2.6048820     0.5755830
  H       -4.0423210     0.2940670    -0.9260900
  H       -0.0419210    -2.0739930     0.9730340
  H        0.9072950    -1.0817680    -0.8531670
  H        3.8470510     0.3069850     1.5449930
units angstrom
no_reorient  #important for SAPT in psi4, default
symmetry c1  #important for SAPT in psi4, default
}

set PROPERTIES_ORIGIN ["COM"]
properties('MP2/aug-cc-pvtz', properties = ['dipole'])
--------------------------------------------------------------------------

    Molecular point group: c1
  Charge       = 0
  Multiplicity = 1
  Basis Set: AUG-CC-PVTZ
    Blend: AUG-CC-PVTZ
  Basis Set: (AUG-CC-PVTZ AUX)
    Blend: AUG-CC-PVTZ-JKFIT

    Orbital Energies [Eh]
    ---------------------

    Doubly Occupied:

       1A    -80.113964     2A    -20.610286     3A    -20.604226
       4A    -20.603509     5A    -20.603232     6A    -20.599789
       7A    -20.597668     8A    -20.572743     9A    -20.513776
      10A    -11.362065    11A    -11.320937    12A    -11.318166
      13A    -11.315890    14A    -11.304546    15A     -7.628907
      16A     -5.527323    17A     -5.527251    18A     -5.525748
      19A     -1.462239    20A     -1.447269    21A     -1.409052
      22A     -1.388902    23A     -1.377260    24A     -1.370369
      25A     -1.360562    26A     -1.295098    27A     -1.081897
      28A     -1.043136    29A     -0.943308    30A     -0.855413
      31A     -0.840311    32A     -0.826919    33A     -0.769454
      34A     -0.755864    35A     -0.742020    36A     -0.731372
      37A     -0.715689    38A     -0.690426    39A     -0.679257
      40A     -0.666722    41A     -0.651806    42A     -0.646824
      43A     -0.631669    44A     -0.613377    45A     -0.598014
      46A     -0.591604    47A     -0.581146    48A     -0.575379
      49A     -0.567196    50A     -0.557645    51A     -0.542419
      52A     -0.534414    53A     -0.524923    54A     -0.507811
      55A     -0.494542    56A     -0.484828    57A     -0.473487
      58A     -0.467797    59A     -0.463427    60A     -0.448566

  @DF-RHF Final Energy: -1135.80918533568320

   => Energetics <=

    Nuclear Repulsion Energy =           1218.2170222227589420
    One-Electron Energy =               -3989.9335473688333877
    Two-Electron Energy =                1635.9073398103914769
    Total Energy =                      -1135.8091853356831962
  Basis Set: (AUG-CC-PVTZ AUX)
    Blend: AUG-CC-PVTZ-RI
    Molecular point group: c1

    Geometry (in Angstrom), charge = 0, multiplicity = 1:

       Center              X                  Y                   Z               Mass
    ------------   -----------------  -----------------  -----------------  -----------------
         P            2.559503377522     0.040686980027    -0.172048678557    30.973761998420
         O           -0.793520622478    -0.519321019973    -0.858182678557    15.994914619570
         O           -3.199067622478     1.749853980027     0.203489321443    15.994914619570
         O           -3.609376622478    -0.555133019973    -0.938290678557    15.994914619570
         O           -0.984190922478    -1.555735819973     1.196499921443    15.994914619570
         O            1.449338377522     1.220646980027    -0.302645678557    15.994914619570
         O            1.689532377522    -1.302111019973    -0.338968678557    15.994914619570
         O            2.907066377522    -0.067966019973     1.408746321443    15.994914619570
         O            3.723418377522     0.281715980027    -1.047676678557    15.994914619570
         C           -2.230615622478     0.766596980027     0.560095321443    12.000000000000
         C           -0.946870622478     0.810806980027    -0.298822678557    12.000000000000
         C           -2.834740622478    -0.608643019973     0.240878321443    12.000000000000
         C           -1.588879622478    -1.411632019973    -0.065848678557    12.000000000000
         C            0.270582377522     1.189741980027     0.525667321443    12.000000000000
         H           -1.989612622478     0.825947980027     1.629463321443     1.007825032230
         H           -1.068892622478     1.492837980027    -1.145245678557     1.007825032230
         H           -3.393276622478    -1.025414019973     1.088436321443     1.007825032230
         H           -1.759742622478    -2.297429019973    -0.685053678557     1.007825032230
         H            0.389687377522     0.494202980027     1.360828321443     1.007825032230
         H            0.145605377522     2.201798980027     0.927032321443     1.007825032230
         H           -2.942941622478     2.602215980027     0.593330321443     1.007825032230
         H           -4.094268622478     0.291400980027    -0.908342678557     1.007825032230
         H           -0.093868622478    -2.076659019973     0.990781321443     1.007825032230
         H            0.855347377522    -1.084434019973    -0.835419678557     1.007825032230
         H            3.795103377522     0.304318980027     1.562740321443     1.007825032230

  Basis Set: AUG-CC-PVTZ
    Blend: AUG-CC-PVTZ
  Basis Set: (AUG-CC-PVTZ AUX)
    Blend: AUG-CC-PVTZ-JKFIT
	 Reference Energy          =   -1135.8091853356831962 [Eh]
	 Singles Energy            =      -0.0000000000000000 [Eh]
	 Same-Spin Energy          =      -0.8179405895884921 [Eh]
	 Opposite-Spin Energy      =      -2.4252896208931665 [Eh]
	 Correlation Energy        =      -3.2432302104816584 [Eh]
	 Total Energy              =   -1139.0524155461648661 [Eh]

	 ================> DF-SCS-MP2 Energies <==================
	-----------------------------------------------------------
	 SCS Same-Spin Scale       =       0.3333333333333333 [-]
	 SCS Opposite-Spin Scale   =       1.2000000000000000 [-]
	 SCS Same-Spin Energy      =      -0.2726468631961640 [Eh]
	 SCS Opposite-Spin Energy  =      -2.9103475450717995 [Eh]
	 SCS Correlation Energy    =      -3.1829944082679633 [Eh]
	 SCS Total Energy          =   -1138.9921797439510556 [Eh]
	-----------------------------------------------------------

  Dipole Moment: [D]
     X:    -3.5046      Y:     1.9302      Z:     4.0597     Total:     5.6999

*** Psi4 exiting successfully. Buy a developer a beer!
