                               Psi4 1.3.2 release

  ==> Input File <==

--------------------------------------------------------------------------
#psi4
#
memory 32 gb

molecule  {
0 1
  P        2.6114510     0.0433530    -0.1897960
  O       -0.7415730    -0.5166550    -0.8759300
  O       -3.1471200     1.7525200     0.1857420
  O       -3.5574290    -0.5524670    -0.9560380
  O       -0.9262260    -1.6975490     1.1507850
  O        1.5012860     1.2233130    -0.3203930
  O        1.7414800    -1.2994450    -0.3567160
  O        2.9590140    -0.0653000     1.3909990
  O        3.7753660     0.2843820    -1.0654240
  C       -2.2217797     0.7613208     0.6401590
  C       -0.8949230     0.8134730    -0.3165700
  C       -2.7827930    -0.6059770     0.2231310
  C       -1.5369320    -1.4089660    -0.0835960
  C        0.3225300     1.1924080     0.5079200
  H       -1.9376650     0.8286140     1.6117160
  H       -1.0169450     1.4955040    -1.1629930
  H       -3.3413290    -1.0227480     1.0706890
  H       -1.7077950    -2.2947630    -0.7028010
  H        0.4416350     0.4968690     1.3430810
  H        0.1975530     2.2044650     0.9092850
  H       -2.8909940     2.6048820     0.5755830
  H       -4.0423210     0.2940670    -0.9260900
  H       -0.0419210    -2.0739930     0.9730340
  H        0.9072950    -1.0817680    -0.8531670
  H        3.8470510     0.3069850     1.5449930
units angstrom
no_reorient  #important for SAPT in psi4, default
symmetry c1  #important for SAPT in psi4, default
}

set PROPERTIES_ORIGIN ["COM"]
properties('MP2/aug-cc-pvtz', properties = ['dipole'])
--------------------------------------------------------------------------

    Molecular point group: c1
  Charge       = 0
  Multiplicity = 1
  Basis Set: AUG-CC-PVTZ
    Blend: AUG-CC-PVTZ
  Basis Set: (AUG-CC-PVTZ AUX)
    Blend: AUG-CC-PVTZ-JKFIT

    Orbital Energies [Eh]
    ---------------------

    Doubly Occupied:

       1A    -80.113979     2A    -20.610486     3A    -20.607583
       4A    -20.603332     5A    -20.602358     6A    -20.597677
       7A    -20.594926     8A    -20.576510     9A    -20.513764
      10A    -11.362367    11A    -11.323061    12A    -11.319013
      13A    -11.318230    14A    -11.307747    15A     -7.628932
      16A     -5.527349    17A     -5.527271    18A     -5.525774
      19A     -1.461293    20A     -1.446768    21A     -1.410956
      22A     -1.389522    23A     -1.377299    24A     -1.373789
      25A     -1.367666    26A     -1.295109    27A     -1.076119
      28A     -1.046409    29A     -0.944124    30A     -0.859776
      31A     -0.845193    32A     -0.824094    33A     -0.773112
      34A     -0.760194    35A     -0.747640    36A     -0.739099
      37A     -0.715382    38A     -0.691133    39A     -0.685076
      40A     -0.667502    41A     -0.652059    42A     -0.646805
      43A     -0.629345    44A     -0.610824    45A     -0.599001
      46A     -0.595027    47A     -0.581379    48A     -0.577254
      49A     -0.572372    50A     -0.560384    51A     -0.542892
      52A     -0.532264    53A     -0.527107    54A     -0.518902
      55A     -0.491807    56A     -0.486530    57A     -0.474329
      58A     -0.468411    59A     -0.463633    60A     -0.438083

  @DF-RHF Final Energy: -1135.81094164004026

   => Energetics <=

    Nuclear Repulsion Energy =           1214.2539460542661800
    One-Electron Energy =               -3981.8777353800041965
    Two-Electron Energy =                1631.8128476856977613
    Total Energy =                      -1135.8109416400402552
  Basis Set: (AUG-CC-PVTZ AUX)
    Blend: AUG-CC-PVTZ-RI
    Molecular point group: c1

    Geometry (in Angstrom), charge = 0, multiplicity = 1:

       Center              X                  Y                   Z               Mass
    ------------   -----------------  -----------------  -----------------  -----------------
         P            2.561334069412     0.051148016960    -0.175206644371    30.973761998420
         O           -0.791689930588    -0.508859983040    -0.861340644371    15.994914619570
         O           -3.197236930588     1.760315016960     0.200331355629    15.994914619570
         O           -3.607545930588    -0.544671983041    -0.941448644371    15.994914619570
         O           -0.976342930588    -1.689753983040     1.165374355629    15.994914619570
         O            1.451169069412     1.231108016959    -0.305803644371    15.994914619570
         O            1.691363069412    -1.291649983040    -0.342126644371    15.994914619570
         O            2.908897069412    -0.057504983040     1.405588355629    15.994914619570
         O            3.725249069412     0.292177016960    -1.050834644371    15.994914619570
         C           -2.271896630588     0.769115816960     0.654748355629    12.000000000000
         C           -0.945039930588     0.821268016960    -0.301980644371    12.000000000000
         C           -2.832909930588    -0.598181983040     0.237720355629    12.000000000000
         C           -1.587048930588    -1.401170983040    -0.069006644371    12.000000000000
         C            0.272413069412     1.200203016959     0.522509355629    12.000000000000
         H           -1.987781930588     0.836409016959     1.626305355629     1.007825032230
         H           -1.067061930588     1.503299016959    -1.148403644371     1.007825032230
         H           -3.391445930588    -1.014952983040     1.085278355629     1.007825032230
         H           -1.757911930588    -2.286967983040    -0.688211644371     1.007825032230
         H            0.391518069412     0.504664016960     1.357670355629     1.007825032230
         H            0.147436069412     2.212260016960     0.923874355629     1.007825032230
         H           -2.941110930588     2.612677016960     0.590172355629     1.007825032230
         H           -4.092437930588     0.301862016960    -0.911500644371     1.007825032230
         H           -0.092037930588    -2.066197983040     0.987623355629     1.007825032230
         H            0.857178069412    -1.073972983041    -0.838577644371     1.007825032230
         H            3.796934069412     0.314780016960     1.559582355629     1.007825032230

  Basis Set: AUG-CC-PVTZ
    Blend: AUG-CC-PVTZ
  Basis Set: (AUG-CC-PVTZ AUX)
    Blend: AUG-CC-PVTZ-JKFIT
	 Reference Energy          =   -1135.8109416400402552 [Eh]
	 Singles Energy            =      -0.0000000000000000 [Eh]
	 Same-Spin Energy          =      -0.8161859622947484 [Eh]
	 Opposite-Spin Energy      =      -2.4223709663463762 [Eh]
	 Correlation Energy        =      -3.2385569286411244 [Eh]
	 Total Energy              =   -1139.0494985686814289 [Eh]

	 ================> DF-SCS-MP2 Energies <==================
	-----------------------------------------------------------
	 SCS Same-Spin Scale       =       0.3333333333333333 [-]
	 SCS Opposite-Spin Scale   =       1.2000000000000000 [-]
	 SCS Same-Spin Energy      =      -0.2720619874315828 [Eh]
	 SCS Opposite-Spin Energy  =      -2.9068451596156515 [Eh]
	 SCS Correlation Energy    =      -3.1789071470472341 [Eh]
	 SCS Total Energy          =   -1138.9898487870875670 [Eh]
	-----------------------------------------------------------

  Dipole Moment: [D]
     X:    -3.5988      Y:     2.3197      Z:     4.1286     Total:     5.9479

*** Psi4 exiting successfully. Buy a developer a beer!
