                               Psi4 1.3.2 release

  ==> Input File <==

--------------------------------------------------------------------------
#psi4
#
memory 32 gb

molecule  {
0 1
  P        2.6114510     0.0433530    -0.1897960
  O       -0.7415730    -0.5166550    -0.8759300
  O       -3.1471200     1.7525200     0.1857420
  O       -3.4791247    -0.5136866    -1.0016010
  O       -0.9262260    -1.6975490     1.1507850
  O        1.5012860     1.2233130    -0.3203930
  O        1.7414800    -1.2994450    -0.3567160
  O        2.9590140    -0.0653000     1.3909990
  O        3.7753660     0.2843820    -1.0654240
  C       -2.1786680     0.7692630     0.5423480
  C       -0.8949230     0.8134730    -0.3165700
  C       -2.7827930    -0.6059770     0.2231310
  C       -1.5369320    -1.4089660    -0.0835960
  C        0.3225300     1.1924080     0.5079200
  H       -1.9376650     0.8286140     1.6117160
  H       -1.0169450     1.4955040    -1.1629930
  H       -3.3413290    -1.0227480     1.0706890
  H       -1.7077950    -2.2947630    -0.7028010
  H        0.4416350     0.4968690     1.3430810
  H        0.1975530     2.2044650     0.9092850
  H       -2.8909940     2.6048820     0.5755830
  H       -4.0423210     0.2940670    -0.9260900
  H       -0.0419210    -2.0739930     0.9730340
  H        0.9072950    -1.0817680    -0.8531670
  H        3.8470510     0.3069850     1.5449930
units angstrom
no_reorient  #important for SAPT in psi4, default
symmetry c1  #important for SAPT in psi4, default
}

set PROPERTIES_ORIGIN ["COM"]
properties('MP2/aug-cc-pvtz', properties = ['dipole'])
--------------------------------------------------------------------------

    Molecular point group: c1
  Charge       = 0
  Multiplicity = 1
  Basis Set: AUG-CC-PVTZ
    Blend: AUG-CC-PVTZ
  Basis Set: (AUG-CC-PVTZ AUX)
    Blend: AUG-CC-PVTZ-JKFIT

    Orbital Energies [Eh]
    ---------------------

    Doubly Occupied:

       1A    -80.114322     2A    -20.610653     3A    -20.604900
       4A    -20.604293     5A    -20.601906     6A    -20.597746
       7A    -20.593992     8A    -20.576537     9A    -20.514040
      10A    -11.361380    11A    -11.321504    12A    -11.320276
      13A    -11.316861    14A    -11.307561    15A     -7.629271
      16A     -5.527691    17A     -5.527609    18A     -5.526110
      19A     -1.462452    20A     -1.447698    21A     -1.410575
      22A     -1.389981    23A     -1.377492    24A     -1.372908
      25A     -1.366786    26A     -1.295375    27A     -1.082783
      28A     -1.045730    29A     -0.945876    30A     -0.857162
      31A     -0.840408    32A     -0.828121    33A     -0.771140
      34A     -0.758468    35A     -0.747221    36A     -0.733192
      37A     -0.716111    38A     -0.691920    39A     -0.685210
      40A     -0.665418    41A     -0.651890    42A     -0.645648
      43A     -0.631652    44A     -0.614268    45A     -0.600148
      46A     -0.596143    47A     -0.581316    48A     -0.575916
      49A     -0.568728    50A     -0.558328    51A     -0.542908
      52A     -0.531177    53A     -0.525106    54A     -0.511657
      55A     -0.488858    56A     -0.487821    57A     -0.474844
      58A     -0.470338    59A     -0.465948    60A     -0.448699

  @DF-RHF Final Energy: -1135.81998939401865

   => Energetics <=

    Nuclear Repulsion Energy =           1217.4506065626308100
    One-Electron Energy =               -3988.3010561327450887
    Two-Electron Energy =                1635.0304601760958576
    Total Energy =                      -1135.8199893940186485
  Basis Set: (AUG-CC-PVTZ AUX)
    Blend: AUG-CC-PVTZ-RI
    Molecular point group: c1

    Geometry (in Angstrom), charge = 0, multiplicity = 1:

       Center              X                  Y                   Z               Mass
    ------------   -----------------  -----------------  -----------------  -----------------
         P            2.553639879777     0.048036990884    -0.166935557989    30.973761998420
         O           -0.799384120223    -0.511971009116    -0.853069557989    15.994914619570
         O           -3.204931120223     1.757203990884     0.208602442011    15.994914619570
         O           -3.536935820223    -0.509002609116    -0.978740557989    15.994914619570
         O           -0.984037120223    -1.692865009116     1.173645442011    15.994914619570
         O            1.443474879777     1.227996990884    -0.297532557989    15.994914619570
         O            1.683668879777    -1.294761009116    -0.333855557989    15.994914619570
         O            2.901202879777    -0.060616009116     1.413859442011    15.994914619570
         O            3.717554879777     0.289065990884    -1.042563557989    15.994914619570
         C           -2.236479120223     0.773946990884     0.565208442011    12.000000000000
         C           -0.952734120223     0.818156990884    -0.293709557989    12.000000000000
         C           -2.840604120223    -0.601293009116     0.245991442011    12.000000000000
         C           -1.594743120223    -1.404282009116    -0.060735557989    12.000000000000
         C            0.264718879777     1.197091990884     0.530780442011    12.000000000000
         H           -1.995476120223     0.833297990884     1.634576442011     1.007825032230
         H           -1.074756120223     1.500187990884    -1.140132557989     1.007825032230
         H           -3.399140120223    -1.018064009116     1.093549442011     1.007825032230
         H           -1.765606120223    -2.290079009116    -0.679940557989     1.007825032230
         H            0.383823879777     0.501552990884     1.365941442011     1.007825032230
         H            0.139741879777     2.209148990884     0.932145442011     1.007825032230
         H           -2.948805120223     2.609565990884     0.598443442011     1.007825032230
         H           -4.100132120223     0.298750990884    -0.903229557989     1.007825032230
         H           -0.099732120223    -2.069309009116     0.995894442011     1.007825032230
         H            0.849483879777    -1.077084009116    -0.830306557989     1.007825032230
         H            3.789239879777     0.311668990884     1.567853442011     1.007825032230

  Basis Set: AUG-CC-PVTZ
    Blend: AUG-CC-PVTZ
  Basis Set: (AUG-CC-PVTZ AUX)
    Blend: AUG-CC-PVTZ-JKFIT
	 Reference Energy          =   -1135.8199893940186485 [Eh]
	 Singles Energy            =      -0.0000000000000000 [Eh]
	 Same-Spin Energy          =      -0.8167314932949858 [Eh]
	 Opposite-Spin Energy      =      -2.4226241104557529 [Eh]
	 Correlation Energy        =      -3.2393556037507389 [Eh]
	 Total Energy              =   -1139.0593449977693581 [Eh]

	 ================> DF-SCS-MP2 Energies <==================
	-----------------------------------------------------------
	 SCS Same-Spin Scale       =       0.3333333333333333 [-]
	 SCS Opposite-Spin Scale   =       1.2000000000000000 [-]
	 SCS Same-Spin Energy      =      -0.2722438310983286 [Eh]
	 SCS Opposite-Spin Energy  =      -2.9071489325469035 [Eh]
	 SCS Correlation Energy    =      -3.1793927636452324 [Eh]
	 SCS Total Energy          =   -1138.9993821576638311 [Eh]
	-----------------------------------------------------------

  Dipole Moment: [D]
     X:    -3.6938      Y:     2.1893      Z:     4.0874     Total:     5.9282

*** Psi4 exiting successfully. Buy a developer a beer!
