                               Psi4 1.3.2 release

  ==> Input File <==

--------------------------------------------------------------------------
#psi4
#
memory 32 gb

molecule  {
0 1
  P        2.6114510     0.0433530    -0.1897960
  O       -0.7415730    -0.5166550    -0.8759300
  O       -3.1471200     1.7525200     0.1857420
  O       -3.5574290    -0.5524670    -0.9560380
  O       -0.9262260    -1.6975490     1.1507850
  O        1.5012860     1.2233130    -0.3203930
  O        1.7414800    -1.2994450    -0.3567160
  O        2.9590140    -0.0653000     1.3909990
  O        3.7753660     0.2843820    -1.0654240
  C       -2.1786680     0.7692630     0.5423480
  C       -0.8949230     0.8134730    -0.3165700
  C       -2.7656469    -0.6499143     0.2088435
  C       -1.5369320    -1.4089660    -0.0835960
  C        0.3225300     1.1924080     0.5079200
  H       -1.9376650     0.8286140     1.6117160
  H       -1.0169450     1.4955040    -1.1629930
  H       -3.3413290    -1.0227480     1.0706890
  H       -1.7077950    -2.2947630    -0.7028010
  H        0.4416350     0.4968690     1.3430810
  H        0.1975530     2.2044650     0.9092850
  H       -2.8909940     2.6048820     0.5755830
  H       -4.0423210     0.2940670    -0.9260900
  H       -0.0419210    -2.0739930     0.9730340
  H        0.9072950    -1.0817680    -0.8531670
  H        3.8470510     0.3069850     1.5449930
units angstrom
no_reorient  #important for SAPT in psi4, default
symmetry c1  #important for SAPT in psi4, default
}

set PROPERTIES_ORIGIN ["COM"]
properties('MP2/aug-cc-pvtz', properties = ['dipole'])
--------------------------------------------------------------------------

    Molecular point group: c1
  Charge       = 0
  Multiplicity = 1
  Basis Set: AUG-CC-PVTZ
    Blend: AUG-CC-PVTZ
  Basis Set: (AUG-CC-PVTZ AUX)
    Blend: AUG-CC-PVTZ-JKFIT

    Orbital Energies [Eh]
    ---------------------

    Doubly Occupied:

       1A    -80.114895     2A    -20.611157     3A    -20.606178
       4A    -20.604844     5A    -20.603940     6A    -20.598551
       7A    -20.595906     8A    -20.573954     9A    -20.514555
      10A    -11.361674    11A    -11.323874    12A    -11.320913
      13A    -11.317568    14A    -11.308404    15A     -7.629847
      16A     -5.528265    17A     -5.528185    18A     -5.526685
      19A     -1.463906    20A     -1.448794    21A     -1.410203
      22A     -1.390627    23A     -1.378231    24A     -1.373705
      25A     -1.368775    26A     -1.295895    27A     -1.081695
      28A     -1.051108    29A     -0.948216    30A     -0.856818
      31A     -0.842808    32A     -0.828080    33A     -0.772151
      34A     -0.761429    35A     -0.747943    36A     -0.733402
      37A     -0.716691    38A     -0.692922    39A     -0.684361
      40A     -0.667844    41A     -0.653161    42A     -0.648136
      43A     -0.634426    44A     -0.612735    45A     -0.601059
      46A     -0.595915    47A     -0.582338    48A     -0.578277
      49A     -0.569018    50A     -0.560586    51A     -0.543418
      52A     -0.532584    53A     -0.527614    54A     -0.510608
      55A     -0.490413    56A     -0.487705    57A     -0.475773
      58A     -0.470002    59A     -0.465468    60A     -0.447191

  @DF-RHF Final Energy: -1135.82061304424201

   => Energetics <=

    Nuclear Repulsion Energy =           1215.9975559283791426
    One-Electron Energy =               -3985.2934865855795579
    Two-Electron Energy =                1633.4753176129581789
    Total Energy =                      -1135.8206130442420090
  Basis Set: (AUG-CC-PVTZ AUX)
    Blend: AUG-CC-PVTZ-RI
    Molecular point group: c1

    Geometry (in Angstrom), charge = 0, multiplicity = 1:

       Center              X                  Y                   Z               Mass
    ------------   -----------------  -----------------  -----------------  -----------------
         P            2.558190445994     0.053025865790    -0.169358514010    30.973761998420
         O           -0.794833554006    -0.506982134210    -0.855492514010    15.994914619570
         O           -3.200380554006     1.762192865790     0.206179485990    15.994914619570
         O           -3.610689554006    -0.542794134210    -0.935600514010    15.994914619570
         O           -0.979486554006    -1.687876134210     1.171222485990    15.994914619570
         O            1.448025445994     1.232985865790    -0.299955514010    15.994914619570
         O            1.688219445994    -1.289772134210    -0.336278514010    15.994914619570
         O            2.905753445994    -0.055627134210     1.411436485990    15.994914619570
         O            3.722105445994     0.294054865790    -1.044986514010    15.994914619570
         C           -2.231928554006     0.778935865790     0.562785485990    12.000000000000
         C           -0.948183554006     0.823145865790    -0.296132514010    12.000000000000
         C           -2.818907454006    -0.640241434210     0.229280985990    12.000000000000
         C           -1.590192554006    -1.399293134210    -0.063158514010    12.000000000000
         C            0.269269445994     1.202080865790     0.528357485990    12.000000000000
         H           -1.990925554006     0.838286865790     1.632153485990     1.007825032230
         H           -1.070205554006     1.505176865790    -1.142555514010     1.007825032230
         H           -3.394589554006    -1.013075134210     1.091126485990     1.007825032230
         H           -1.761055554006    -2.285090134210    -0.682363514010     1.007825032230
         H            0.388374445994     0.506541865790     1.363518485990     1.007825032230
         H            0.144292445994     2.214137865790     0.929722485990     1.007825032230
         H           -2.944254554006     2.614554865790     0.596020485990     1.007825032230
         H           -4.095581554006     0.303739865790    -0.905652514010     1.007825032230
         H           -0.095181554006    -2.064320134210     0.993471485990     1.007825032230
         H            0.854034445994    -1.072095134210    -0.832729514010     1.007825032230
         H            3.793790445994     0.316657865790     1.565430485990     1.007825032230

  Basis Set: AUG-CC-PVTZ
    Blend: AUG-CC-PVTZ
  Basis Set: (AUG-CC-PVTZ AUX)
    Blend: AUG-CC-PVTZ-JKFIT
	 Reference Energy          =   -1135.8206130442420090 [Eh]
	 Singles Energy            =      -0.0000000000000000 [Eh]
	 Same-Spin Energy          =      -0.8163509616358576 [Eh]
	 Opposite-Spin Energy      =      -2.4217980207613854 [Eh]
	 Correlation Energy        =      -3.2381489823972429 [Eh]
	 Total Energy              =   -1139.0587620266392150 [Eh]

	 ================> DF-SCS-MP2 Energies <==================
	-----------------------------------------------------------
	 SCS Same-Spin Scale       =       0.3333333333333333 [-]
	 SCS Opposite-Spin Scale   =       1.2000000000000000 [-]
	 SCS Same-Spin Energy      =      -0.2721169872119525 [Eh]
	 SCS Opposite-Spin Energy  =      -2.9061576249136625 [Eh]
	 SCS Correlation Energy    =      -3.1782746121256151 [Eh]
	 SCS Total Energy          =   -1138.9988876563675149 [Eh]
	-----------------------------------------------------------

  Dipole Moment: [D]
     X:    -3.4947      Y:     2.2688      Z:     4.0378     Total:     5.8021

*** Psi4 exiting successfully. Buy a developer a beer!
