                               Psi4 1.3.2 release

  ==> Input File <==

--------------------------------------------------------------------------
#psi4
#
memory 32 gb

molecule  {
0 1
  P        2.6114510     0.0433530    -0.1897960
  O       -0.7415730    -0.5166550    -0.8759300
  O       -3.1471200     1.7525200     0.1857420
  O       -3.5574290    -0.5524670    -0.9560380
  O       -0.9262260    -1.6975490     1.1507850
  O        1.5012860     1.2233130    -0.3203930
  O        1.7414800    -1.2994450    -0.3567160
  O        2.9590140    -0.0653000     1.3909990
  O        3.7753660     0.2843820    -1.0654240
  C       -2.1786680     0.7692630     0.5423480
  C       -0.8949230     0.8134730    -0.3165700
  C       -2.7827930    -0.6059770     0.2231310
  C       -1.5369320    -1.4089660    -0.0835960
  C        0.3225300     1.1924080     0.5079200
  H       -1.9376650     0.8286140     1.6117160
  H       -1.0169450     1.4955040    -1.1629930
  H       -3.2395249    -0.9467834     0.9162050
  H       -1.7077950    -2.2947630    -0.7028010
  H        0.4416350     0.4968690     1.3430810
  H        0.1975530     2.2044650     0.9092850
  H       -2.8909940     2.6048820     0.5755830
  H       -4.0423210     0.2940670    -0.9260900
  H       -0.0419210    -2.0739930     0.9730340
  H        0.9072950    -1.0817680    -0.8531670
  H        3.8470510     0.3069850     1.5449930
units angstrom
no_reorient  #important for SAPT in psi4, default
symmetry c1  #important for SAPT in psi4, default
}

set PROPERTIES_ORIGIN ["COM"]
properties('MP2/aug-cc-pvtz', properties = ['dipole'])
--------------------------------------------------------------------------

    Molecular point group: c1
  Charge       = 0
  Multiplicity = 1
  Basis Set: AUG-CC-PVTZ
    Blend: AUG-CC-PVTZ
  Basis Set: (AUG-CC-PVTZ AUX)
    Blend: AUG-CC-PVTZ-JKFIT

    Orbital Energies [Eh]
    ---------------------

    Doubly Occupied:

       1A    -80.114747     2A    -20.611054     3A    -20.606027
       4A    -20.604770     5A    -20.602412     6A    -20.598230
       7A    -20.595395     8A    -20.572138     9A    -20.514423
      10A    -11.361151    11A    -11.322316    12A    -11.320885
      13A    -11.317443    14A    -11.283575    15A     -7.629697
      16A     -5.528117    17A     -5.528035    18A     -5.526536
      19A     -1.462792    20A     -1.448032    21A     -1.411176
      22A     -1.390491    23A     -1.377978    24A     -1.372964
      25A     -1.368377    26A     -1.295758    27A     -1.086511
      28A     -1.054707    29A     -0.947002    30A     -0.863737
      31A     -0.854761    32A     -0.836059    33A     -0.772644
      34A     -0.759151    35A     -0.752283    36A     -0.737559
      37A     -0.716806    38A     -0.693891    39A     -0.691140
      40A     -0.667749    41A     -0.654152    42A     -0.648727
      43A     -0.637254    44A     -0.616495    45A     -0.600755
      46A     -0.598257    47A     -0.581765    48A     -0.577199
      49A     -0.569323    50A     -0.559716    51A     -0.543395
      52A     -0.532137    53A     -0.526645    54A     -0.511845
      55A     -0.490687    56A     -0.488314    57A     -0.475892
      58A     -0.472767    59A     -0.467134    60A     -0.451451

  @DF-RHF Final Energy: -1135.79083401318735

   => Energetics <=

    Nuclear Repulsion Energy =           1217.3479992612788010
    One-Electron Energy =               -3987.8728067160518549
    Two-Electron Energy =                1634.7339734415857038
    Total Energy =                      -1135.7908340131873501
  Basis Set: (AUG-CC-PVTZ AUX)
    Blend: AUG-CC-PVTZ-RI
    Molecular point group: c1

    Geometry (in Angstrom), charge = 0, multiplicity = 1:

       Center              X                  Y                   Z               Mass
    ------------   -----------------  -----------------  -----------------  -----------------
         P            2.558638897689     0.050400838204    -0.169427017686    30.973761998420
         O           -0.794385102311    -0.509607161796    -0.855561017686    15.994914619570
         O           -3.199932102311     1.759567838204     0.206110982314    15.994914619570
         O           -3.610241102311    -0.545419161796    -0.935669017686    15.994914619570
         O           -0.979038102311    -1.690501161796     1.171153982314    15.994914619570
         O            1.448473897689     1.230360838204    -0.300024017686    15.994914619570
         O            1.688667897689    -1.292397161796    -0.336347017686    15.994914619570
         O            2.906201897689    -0.058252161796     1.411367982314    15.994914619570
         O            3.722553897689     0.291429838204    -1.045055017686    15.994914619570
         C           -2.231480102311     0.776310838204     0.562716982314    12.000000000000
         C           -0.947735102311     0.820520838204    -0.296201017686    12.000000000000
         C           -2.835605102311    -0.598929161796     0.243499982314    12.000000000000
         C           -1.589744102311    -1.401918161796    -0.063227017686    12.000000000000
         C            0.269717897689     1.199455838204     0.528288982314    12.000000000000
         H           -1.990477102311     0.835661838204     1.632084982314     1.007825032230
         H           -1.069757102311     1.502551838204    -1.142624017686     1.007825032230
         H           -3.292337002311    -0.939735561796     0.936573982314     1.007825032230
         H           -1.760607102311    -2.287715161796    -0.682432017686     1.007825032230
         H            0.388822897689     0.503916838204     1.363449982314     1.007825032230
         H            0.144740897689     2.211512838204     0.929653982314     1.007825032230
         H           -2.943806102311     2.611929838204     0.595951982314     1.007825032230
         H           -4.095133102311     0.301114838204    -0.905721017686     1.007825032230
         H           -0.094733102311    -2.066945161796     0.993402982314     1.007825032230
         H            0.854482897689    -1.074720161796    -0.832798017686     1.007825032230
         H            3.794238897689     0.314032838204     1.565361982314     1.007825032230

  Basis Set: AUG-CC-PVTZ
    Blend: AUG-CC-PVTZ
  Basis Set: (AUG-CC-PVTZ AUX)
    Blend: AUG-CC-PVTZ-JKFIT
	 Reference Energy          =   -1135.7908340131873501 [Eh]
	 Singles Energy            =      -0.0000000000000000 [Eh]
	 Same-Spin Energy          =      -0.8160078247596663 [Eh]
	 Opposite-Spin Energy      =      -2.4207625590606083 [Eh]
	 Correlation Energy        =      -3.2367703838202746 [Eh]
	 Total Energy              =   -1139.0276043970077353 [Eh]

	 ================> DF-SCS-MP2 Energies <==================
	-----------------------------------------------------------
	 SCS Same-Spin Scale       =       0.3333333333333333 [-]
	 SCS Opposite-Spin Scale   =       1.2000000000000000 [-]
	 SCS Same-Spin Energy      =      -0.2720026082532221 [Eh]
	 SCS Opposite-Spin Energy  =      -2.9049150708727298 [Eh]
	 SCS Correlation Energy    =      -3.1769176791259519 [Eh]
	 SCS Total Energy          =   -1138.9677516923134135 [Eh]
	-----------------------------------------------------------

  Dipole Moment: [D]
     X:    -3.4896      Y:     2.2724      Z:     4.0995     Total:     5.8435

*** Psi4 exiting successfully. Buy a developer a beer!
