                               Psi4 1.3.2 release

  ==> Input File <==

--------------------------------------------------------------------------
#psi4
#
memory 32 gb

molecule  {
0 1
  P        2.6114510     0.0433530    -0.1897960
  O       -0.6745385    -0.5160149    -0.8015959
  O       -3.1471200     1.7525200     0.1857420
  O       -3.5574290    -0.5524670    -0.9560380
  O       -0.9262260    -1.6975490     1.1507850
  O        1.5012860     1.2233130    -0.3203930
  O        1.7414800    -1.2994450    -0.3567160
  O        2.9590140    -0.0653000     1.3909990
  O        3.7753660     0.2843820    -1.0654240
  C       -2.1786680     0.7692630     0.5423480
  C       -0.8949230     0.8134730    -0.3165700
  C       -2.7827930    -0.6059770     0.2231310
  C       -1.5369320    -1.4089660    -0.0835960
  C        0.3225300     1.1924080     0.5079200
  H       -1.9376650     0.8286140     1.6117160
  H       -1.0169450     1.4955040    -1.1629930
  H       -3.3413290    -1.0227480     1.0706890
  H       -1.7077950    -2.2947630    -0.7028010
  H        0.4416350     0.4968690     1.3430810
  H        0.1975530     2.2044650     0.9092850
  H       -2.8909940     2.6048820     0.5755830
  H       -4.0423210     0.2940670    -0.9260900
  H       -0.0419210    -2.0739930     0.9730340
  H        0.9072950    -1.0817680    -0.8531670
  H        3.8470510     0.3069850     1.5449930
units angstrom
no_reorient  #important for SAPT in psi4, default
symmetry c1  #important for SAPT in psi4, default
}

set PROPERTIES_ORIGIN ["COM"]
properties('MP2/aug-cc-pvtz', properties = ['dipole'])
--------------------------------------------------------------------------

    Molecular point group: c1
  Charge       = 0
  Multiplicity = 1
  Basis Set: AUG-CC-PVTZ
    Blend: AUG-CC-PVTZ
  Basis Set: (AUG-CC-PVTZ AUX)
    Blend: AUG-CC-PVTZ-JKFIT

    Orbital Energies [Eh]
    ---------------------

    Doubly Occupied:

       1A    -80.112775     2A    -20.609443     3A    -20.607326
       4A    -20.603387     5A    -20.602696     6A    -20.593627
       7A    -20.591206     8A    -20.577357     9A    -20.512846
      10A    -11.364369    11A    -11.324394    12A    -11.318446
      13A    -11.317681    14A    -11.309779    15A     -7.627716
      16A     -5.526150    17A     -5.526042    18A     -5.524562
      19A     -1.467040    20A     -1.447612    21A     -1.413061
      22A     -1.389154    23A     -1.375527    24A     -1.374530
      25A     -1.368728    26A     -1.294178    27A     -1.084064
      28A     -1.049391    29A     -0.945493    30A     -0.859404
      31A     -0.843366    32A     -0.830350    33A     -0.772746
      34A     -0.759842    35A     -0.749828    36A     -0.733237
      37A     -0.714759    38A     -0.690522    39A     -0.684721
      40A     -0.670235    41A     -0.653124    42A     -0.648775
      43A     -0.635433    44A     -0.611570    45A     -0.601827
      46A     -0.595909    47A     -0.580239    48A     -0.576612
      49A     -0.570801    50A     -0.561461    51A     -0.541196
      52A     -0.531350    53A     -0.525700    54A     -0.512719
      55A     -0.490196    56A     -0.487873    57A     -0.472980
      58A     -0.468514    59A     -0.464413    60A     -0.450740

  @DF-RHF Final Energy: -1135.82166822371664

   => Energetics <=

    Nuclear Repulsion Energy =           1217.8625903400527477
    One-Electron Energy =               -3989.0704627728096057
    Two-Electron Energy =                1635.3862042090399882
    Total Energy =                      -1135.8216682237166424
  Basis Set: (AUG-CC-PVTZ AUX)
    Blend: AUG-CC-PVTZ-RI
    Molecular point group: c1

    Geometry (in Angstrom), charge = 0, multiplicity = 1:

       Center              X                  Y                   Z               Mass
    ------------   -----------------  -----------------  -----------------  -----------------
         P            2.554423551421     0.050689164978    -0.175272880520    30.973761998420
         O           -0.731565948579    -0.508678735022    -0.787072780520    15.994914619570
         O           -3.204147448579     1.759856164978     0.200265119480    15.994914619570
         O           -3.614456448579    -0.545130835022    -0.941514880520    15.994914619570
         O           -0.983253448579    -1.690212835022     1.165308119480    15.994914619570
         O            1.444258551421     1.230649164978    -0.305869880520    15.994914619570
         O            1.684452551421    -1.292108835022    -0.342192880520    15.994914619570
         O            2.901986551421    -0.057963835022     1.405522119480    15.994914619570
         O            3.718338551421     0.291718164978    -1.050900880520    15.994914619570
         C           -2.235695448579     0.776599164978     0.556871119480    12.000000000000
         C           -0.951950448579     0.820809164978    -0.302046880520    12.000000000000
         C           -2.839820448579    -0.598640835022     0.237654119480    12.000000000000
         C           -1.593959448579    -1.401629835022    -0.069072880520    12.000000000000
         C            0.265502551421     1.199744164978     0.522443119480    12.000000000000
         H           -1.994692448579     0.835950164978     1.626239119480     1.007825032230
         H           -1.073972448579     1.502840164978    -1.148469880520     1.007825032230
         H           -3.398356448579    -1.015411835022     1.085212119480     1.007825032230
         H           -1.764822448579    -2.287426835022    -0.688277880520     1.007825032230
         H            0.384607551421     0.504205164978     1.357604119480     1.007825032230
         H            0.140525551421     2.211801164978     0.923808119480     1.007825032230
         H           -2.948021448579     2.612218164978     0.590106119480     1.007825032230
         H           -4.099348448579     0.301403164978    -0.911566880520     1.007825032230
         H           -0.098948448579    -2.066656835022     0.987557119480     1.007825032230
         H            0.850267551421    -1.074431835022    -0.838643880520     1.007825032230
         H            3.790023551421     0.314321164978     1.559516119480     1.007825032230

  Basis Set: AUG-CC-PVTZ
    Blend: AUG-CC-PVTZ
  Basis Set: (AUG-CC-PVTZ AUX)
    Blend: AUG-CC-PVTZ-JKFIT
	 Reference Energy          =   -1135.8216682237166424 [Eh]
	 Singles Energy            =      -0.0000000000000000 [Eh]
	 Same-Spin Energy          =      -0.8161489076449036 [Eh]
	 Opposite-Spin Energy      =      -2.4210609376757617 [Eh]
	 Correlation Energy        =      -3.2372098453206650 [Eh]
	 Total Energy              =   -1139.0588780690372914 [Eh]

	 ================> DF-SCS-MP2 Energies <==================
	-----------------------------------------------------------
	 SCS Same-Spin Scale       =       0.3333333333333333 [-]
	 SCS Opposite-Spin Scale   =       1.2000000000000000 [-]
	 SCS Same-Spin Energy      =      -0.2720496358816345 [Eh]
	 SCS Opposite-Spin Energy  =      -2.9052731252109139 [Eh]
	 SCS Correlation Energy    =      -3.1773227610925483 [Eh]
	 SCS Total Energy          =   -1138.9989909848090974 [Eh]
	-----------------------------------------------------------

  Dipole Moment: [D]
     X:    -3.7557      Y:     2.2739      Z:     3.9053     Total:     5.8760

*** Psi4 exiting successfully. Buy a developer a beer!
