                               Psi4 1.3.2 release

  ==> Input File <==

--------------------------------------------------------------------------
#psi4
#
memory 32 gb

molecule  {
0 1
  P        2.6114510     0.0433530    -0.1897960
  O       -0.7415730    -0.5166550    -0.8759300
  O       -3.1471200     1.7525200     0.1857420
  O       -3.5574290    -0.5524670    -0.9560380
  O       -0.9262260    -1.6975490     1.1507850
  O        1.5012860     1.2233130    -0.3203930
  O        1.7414800    -1.2994450    -0.3567160
  O        2.9590140    -0.0653000     1.3909990
  O        3.7753660     0.2843820    -1.0654240
  C       -2.1786680     0.7692630     0.5423480
  C       -0.8949230     0.8134730    -0.3165700
  C       -2.7494654    -0.6937328     0.1931367
  C       -1.5369320    -1.4089660    -0.0835960
  C        0.3225300     1.1924080     0.5079200
  H       -1.9376650     0.8286140     1.6117160
  H       -1.0169450     1.4955040    -1.1629930
  H       -3.3413290    -1.0227480     1.0706890
  H       -1.7077950    -2.2947630    -0.7028010
  H        0.4416350     0.4968690     1.3430810
  H        0.1975530     2.2044650     0.9092850
  H       -2.8909940     2.6048820     0.5755830
  H       -4.0423210     0.2940670    -0.9260900
  H       -0.0419210    -2.0739930     0.9730340
  H        0.9072950    -1.0817680    -0.8531670
  H        3.8470510     0.3069850     1.5449930
units angstrom
no_reorient  #important for SAPT in psi4, default
symmetry c1  #important for SAPT in psi4, default
}

set PROPERTIES_ORIGIN ["COM"]
properties('MP2/aug-cc-pvtz', properties = ['dipole'])
--------------------------------------------------------------------------

    Molecular point group: c1
  Charge       = 0
  Multiplicity = 1
  Basis Set: AUG-CC-PVTZ
    Blend: AUG-CC-PVTZ
  Basis Set: (AUG-CC-PVTZ AUX)
    Blend: AUG-CC-PVTZ-JKFIT

    Orbital Energies [Eh]
    ---------------------

    Doubly Occupied:

       1A    -80.114815     2A    -20.611097     3A    -20.606121
       4A    -20.604572     5A    -20.604359     6A    -20.598605
       7A    -20.596993     8A    -20.573273     9A    -20.514485
      10A    -11.360947    11A    -11.324342    12A    -11.320552
      13A    -11.316919    14A    -11.310114    15A     -7.629767
      16A     -5.528184    17A     -5.528107    18A     -5.526606
      19A     -1.464716    20A     -1.449265    21A     -1.409118
      22A     -1.390564    23A     -1.378241    24A     -1.374039
      25A     -1.368713    26A     -1.295829    27A     -1.079409
      28A     -1.056709    29A     -0.949198    30A     -0.855940
      31A     -0.843524    32A     -0.826656    33A     -0.773174
      34A     -0.762835    35A     -0.748276    36A     -0.732625
      37A     -0.716542    38A     -0.693059    39A     -0.684252
      40A     -0.668792    41A     -0.653503    42A     -0.648903
      43A     -0.636120    44A     -0.611511    45A     -0.601211
      46A     -0.595880    47A     -0.582909    48A     -0.578658
      49A     -0.568330    50A     -0.561075    51A     -0.543461
      52A     -0.533006    53A     -0.528148    54A     -0.509263
      55A     -0.491520    56A     -0.486008    57A     -0.476317
      58A     -0.469941    59A     -0.464656    60A     -0.442302

  @DF-RHF Final Energy: -1135.81347819979737

   => Energetics <=

    Nuclear Repulsion Energy =           1216.0640362586671017
    One-Electron Energy =               -3985.4069187445620628
    Two-Electron Energy =                1633.5294042860973605
    Total Energy =                      -1135.8134781997973732
  Basis Set: (AUG-CC-PVTZ AUX)
    Blend: AUG-CC-PVTZ-RI
    Molecular point group: c1

    Geometry (in Angstrom), charge = 0, multiplicity = 1:

       Center              X                  Y                   Z               Mass
    ------------   -----------------  -----------------  -----------------  -----------------
         P            2.557346264123     0.055311858023    -0.168539097033    30.973761998420
         O           -0.795677735877    -0.504696141977    -0.854673097033    15.994914619570
         O           -3.201224735877     1.764478858023     0.206998902967    15.994914619570
         O           -3.611533735877    -0.540508141977    -0.934781097033    15.994914619570
         O           -0.980330735877    -1.685590141977     1.172041902967    15.994914619570
         O            1.447181264123     1.235271858023    -0.299136097033    15.994914619570
         O            1.687375264123    -1.287486141977    -0.335459097033    15.994914619570
         O            2.904909264123    -0.053341141977     1.412255902967    15.994914619570
         O            3.721261264123     0.296340858023    -1.044167097033    15.994914619570
         C           -2.232772735877     0.781221858023     0.563604902967    12.000000000000
         C           -0.949027735877     0.825431858023    -0.295313097033    12.000000000000
         C           -2.803570135877    -0.681773941977     0.214393602967    12.000000000000
         C           -1.591036735877    -1.397007141977    -0.062339097033    12.000000000000
         C            0.268425264123     1.204366858023     0.529176902967    12.000000000000
         H           -1.991769735877     0.840572858023     1.632972902967     1.007825032230
         H           -1.071049735877     1.507462858023    -1.141736097033     1.007825032230
         H           -3.395433735877    -1.010789141977     1.091945902967     1.007825032230
         H           -1.761899735877    -2.282804141977    -0.681544097033     1.007825032230
         H            0.387530264123     0.508827858023     1.364337902967     1.007825032230
         H            0.143448264123     2.216423858023     0.930541902967     1.007825032230
         H           -2.945098735877     2.616840858023     0.596839902967     1.007825032230
         H           -4.096425735877     0.306025858023    -0.904833097033     1.007825032230
         H           -0.096025735877    -2.062034141977     0.994290902967     1.007825032230
         H            0.853190264123    -1.069809141977    -0.831910097033     1.007825032230
         H            3.792946264123     0.318943858023     1.566249902967     1.007825032230

  Basis Set: AUG-CC-PVTZ
    Blend: AUG-CC-PVTZ
  Basis Set: (AUG-CC-PVTZ AUX)
    Blend: AUG-CC-PVTZ-JKFIT
	 Reference Energy          =   -1135.8134781997973732 [Eh]
	 Singles Energy            =      -0.0000000000000000 [Eh]
	 Same-Spin Energy          =      -0.8167093287750125 [Eh]
	 Opposite-Spin Energy      =      -2.4222162949851023 [Eh]
	 Correlation Energy        =      -3.2389256237601147 [Eh]
	 Total Energy              =   -1139.0524038235575972 [Eh]

	 ================> DF-SCS-MP2 Energies <==================
	-----------------------------------------------------------
	 SCS Same-Spin Scale       =       0.3333333333333333 [-]
	 SCS Opposite-Spin Scale   =       1.2000000000000000 [-]
	 SCS Same-Spin Energy      =      -0.2722364429250042 [Eh]
	 SCS Opposite-Spin Energy  =      -2.9066595539821227 [Eh]
	 SCS Correlation Energy    =      -3.1788959969071269 [Eh]
	 SCS Total Energy          =   -1138.9923741967045316 [Eh]
	-----------------------------------------------------------

  Dipole Moment: [D]
     X:    -3.5091      Y:     2.2426      Z:     4.0402     Total:     5.8023

*** Psi4 exiting successfully. Buy a developer a beer!
