                               Psi4 1.3.2 release

  ==> Input File <==

--------------------------------------------------------------------------
#psi4
#
memory 32 gb

molecule  {
0 1
  P        2.6114510     0.0433530    -0.1897960
  O       -0.6962407    -0.5198682    -0.8535680
  O       -3.1471200     1.7525200     0.1857420
  O       -3.5574290    -0.5524670    -0.9560380
  O       -0.9262260    -1.6975490     1.1507850
  O        1.5012860     1.2233130    -0.3203930
  O        1.7414800    -1.2994450    -0.3567160
  O        2.9590140    -0.0653000     1.3909990
  O        3.7753660     0.2843820    -1.0654240
  C       -2.1786680     0.7692630     0.5423480
  C       -0.8949230     0.8134730    -0.3165700
  C       -2.7827930    -0.6059770     0.2231310
  C       -1.5369320    -1.4089660    -0.0835960
  C        0.3225300     1.1924080     0.5079200
  H       -1.9376650     0.8286140     1.6117160
  H       -1.0169450     1.4955040    -1.1629930
  H       -3.3413290    -1.0227480     1.0706890
  H       -1.7077950    -2.2947630    -0.7028010
  H        0.4416350     0.4968690     1.3430810
  H        0.1975530     2.2044650     0.9092850
  H       -2.8909940     2.6048820     0.5755830
  H       -4.0423210     0.2940670    -0.9260900
  H       -0.0419210    -2.0739930     0.9730340
  H        0.9072950    -1.0817680    -0.8531670
  H        3.8470510     0.3069850     1.5449930
units angstrom
no_reorient  #important for SAPT in psi4, default
symmetry c1  #important for SAPT in psi4, default
}

set PROPERTIES_ORIGIN ["COM"]
properties('MP2/aug-cc-pvtz', properties = ['dipole'])
--------------------------------------------------------------------------

    Molecular point group: c1
  Charge       = 0
  Multiplicity = 1
  Basis Set: AUG-CC-PVTZ
    Blend: AUG-CC-PVTZ
  Basis Set: (AUG-CC-PVTZ AUX)
    Blend: AUG-CC-PVTZ-JKFIT

    Orbital Energies [Eh]
    ---------------------

    Doubly Occupied:

       1A    -80.113438     2A    -20.610027     3A    -20.607354
       4A    -20.603999     5A    -20.603748     6A    -20.594983
       7A    -20.594038     8A    -20.576535     9A    -20.513369
      10A    -11.364301    11A    -11.324695    12A    -11.320016
      13A    -11.318516    14A    -11.309434    15A     -7.628381
      16A     -5.526811    17A     -5.526709    18A     -5.525224
      19A     -1.462361    20A     -1.446554    21A     -1.412602
      22A     -1.389680    23A     -1.376151    24A     -1.374387
      25A     -1.367644    26A     -1.294693    27A     -1.084682
      28A     -1.047668    29A     -0.945548    30A     -0.858858
      31A     -0.841405    32A     -0.829982    33A     -0.772044
      34A     -0.759633    35A     -0.747735    36A     -0.733802
      37A     -0.715408    38A     -0.691433    39A     -0.684332
      40A     -0.667838    41A     -0.652594    42A     -0.647171
      43A     -0.634245    44A     -0.612024    45A     -0.601655
      46A     -0.595472    47A     -0.580663    48A     -0.577149
      49A     -0.570402    50A     -0.560733    51A     -0.541938
      52A     -0.531568    53A     -0.526195    54A     -0.512707
      55A     -0.490036    56A     -0.489163    57A     -0.474317
      58A     -0.468966    59A     -0.465119    60A     -0.451069

  @DF-RHF Final Energy: -1135.82170227605866

   => Energetics <=

    Nuclear Repulsion Energy =           1216.3945613462128676
    One-Electron Energy =               -3986.1341203763577141
    Two-Electron Energy =                1633.9178567540861877
    Total Energy =                      -1135.8217022760586588
  Basis Set: (AUG-CC-PVTZ AUX)
    Blend: AUG-CC-PVTZ-RI
    Molecular point group: c1

    Geometry (in Angstrom), charge = 0, multiplicity = 1:

       Center              X                  Y                   Z               Mass
    ------------   -----------------  -----------------  -----------------  -----------------
         P            2.555932664160     0.050957113117    -0.171658880179    30.973761998420
         O           -0.751759035840    -0.512264086883    -0.835430880179    15.994914619570
         O           -3.202638335840     1.760124113117     0.203879119821    15.994914619570
         O           -3.612947335840    -0.544862886883    -0.937900880179    15.994914619570
         O           -0.981744335840    -1.689944886883     1.168922119821    15.994914619570
         O            1.445767664160     1.230917113117    -0.302255880179    15.994914619570
         O            1.685961664160    -1.291840886883    -0.338578880179    15.994914619570
         O            2.903495664160    -0.057695886883     1.409136119821    15.994914619570
         O            3.719847664160     0.291986113117    -1.047286880179    15.994914619570
         C           -2.234186335840     0.776867113117     0.560485119821    12.000000000000
         C           -0.950441335840     0.821077113117    -0.298432880179    12.000000000000
         C           -2.838311335840    -0.598372886883     0.241268119821    12.000000000000
         C           -1.592450335840    -1.401361886883    -0.065458880179    12.000000000000
         C            0.267011664160     1.200012113117     0.526057119821    12.000000000000
         H           -1.993183335840     0.836218113117     1.629853119821     1.007825032230
         H           -1.072463335840     1.503108113117    -1.144855880179     1.007825032230
         H           -3.396847335840    -1.015143886883     1.088826119821     1.007825032230
         H           -1.763313335840    -2.287158886883    -0.684663880179     1.007825032230
         H            0.386116664160     0.504473113117     1.361218119821     1.007825032230
         H            0.142034664160     2.212069113117     0.927422119821     1.007825032230
         H           -2.946512335840     2.612486113117     0.593720119821     1.007825032230
         H           -4.097839335840     0.301671113117    -0.907952880179     1.007825032230
         H           -0.097439335840    -2.066388886883     0.991171119821     1.007825032230
         H            0.851776664160    -1.074163886883    -0.835029880179     1.007825032230
         H            3.791532664160     0.314589113117     1.563130119821     1.007825032230

  Basis Set: AUG-CC-PVTZ
    Blend: AUG-CC-PVTZ
  Basis Set: (AUG-CC-PVTZ AUX)
    Blend: AUG-CC-PVTZ-JKFIT
	 Reference Energy          =   -1135.8217022760586588 [Eh]
	 Singles Energy            =      -0.0000000000000000 [Eh]
	 Same-Spin Energy          =      -0.8163651750117507 [Eh]
	 Opposite-Spin Energy      =      -2.4220689737444596 [Eh]
	 Correlation Energy        =      -3.2384341487562103 [Eh]
	 Total Energy              =   -1139.0601364248148002 [Eh]

	 ================> DF-SCS-MP2 Energies <==================
	-----------------------------------------------------------
	 SCS Same-Spin Scale       =       0.3333333333333333 [-]
	 SCS Opposite-Spin Scale   =       1.2000000000000000 [-]
	 SCS Same-Spin Energy      =      -0.2721217250039168 [Eh]
	 SCS Opposite-Spin Energy  =      -2.9064827684933516 [Eh]
	 SCS Correlation Energy    =      -3.1786044934972684 [Eh]
	 SCS Total Energy          =   -1139.0003067695558912 [Eh]
	-----------------------------------------------------------

  Dipole Moment: [D]
     X:    -3.6763      Y:     2.2924      Z:     4.0120     Total:     5.9048

*** Psi4 exiting successfully. Buy a developer a beer!
