                               Psi4 1.3.2 release

  ==> Input File <==

--------------------------------------------------------------------------
#psi4
#
memory 32 gb

molecule  {
0 1
  P        2.6114510     0.0433530    -0.1897960
  O       -0.7415730    -0.5166550    -0.8759300
  O       -3.1471200     1.7525200     0.1857420
  O       -3.5574290    -0.5524670    -0.9560380
  O       -0.9262260    -1.6975490     1.1507850
  O        1.4291224     1.3247435    -0.4055699
  O        1.7414800    -1.2994450    -0.3567160
  O        2.9590140    -0.0653000     1.3909990
  O        3.7753660     0.2843820    -1.0654240
  C       -2.1786680     0.7692630     0.5423480
  C       -0.8949230     0.8134730    -0.3165700
  C       -2.7827930    -0.6059770     0.2231310
  C       -1.5369320    -1.4089660    -0.0835960
  C        0.3225300     1.1924080     0.5079200
  H       -1.9376650     0.8286140     1.6117160
  H       -1.0169450     1.4955040    -1.1629930
  H       -3.3413290    -1.0227480     1.0706890
  H       -1.7077950    -2.2947630    -0.7028010
  H        0.4416350     0.4968690     1.3430810
  H        0.1975530     2.2044650     0.9092850
  H       -2.8909940     2.6048820     0.5755830
  H       -4.0423210     0.2940670    -0.9260900
  H       -0.0419210    -2.0739930     0.9730340
  H        0.9072950    -1.0817680    -0.8531670
  H        3.8470510     0.3069850     1.5449930
units angstrom
no_reorient  #important for SAPT in psi4, default
symmetry c1  #important for SAPT in psi4, default
}

set PROPERTIES_ORIGIN ["COM"]
properties('MP2/aug-cc-pvtz', properties = ['dipole'])
--------------------------------------------------------------------------

    Molecular point group: c1
  Charge       = 0
  Multiplicity = 1
  Basis Set: AUG-CC-PVTZ
    Blend: AUG-CC-PVTZ
  Basis Set: (AUG-CC-PVTZ AUX)
    Blend: AUG-CC-PVTZ-JKFIT

    Orbital Energies [Eh]
    ---------------------

    Doubly Occupied:

       1A    -80.128818     2A    -20.623696     3A    -20.608650
       4A    -20.604654     5A    -20.602987     6A    -20.601352
       7A    -20.594653     8A    -20.572757     9A    -20.522027
      10A    -11.360779    11A    -11.318928    12A    -11.312325
      13A    -11.311486    14A    -11.304743    15A     -7.642319
      16A     -5.540648    17A     -5.540248    18A     -5.539181
      19A     -1.459588    20A     -1.445466    21A     -1.408638
      22A     -1.391260    23A     -1.375284    24A     -1.370825
      25A     -1.364288    26A     -1.302314    27A     -1.077800
      28A     -1.040888    29A     -0.935225    30A     -0.857904
      31A     -0.841752    32A     -0.828426    33A     -0.767962
      34A     -0.754752    35A     -0.746548    36A     -0.731922
      37A     -0.718544    38A     -0.687137    39A     -0.679661
      40A     -0.667207    41A     -0.651061    42A     -0.646018
      43A     -0.625396    44A     -0.612646    45A     -0.600233
      46A     -0.594712    47A     -0.586596    48A     -0.579137
      49A     -0.566796    50A     -0.560818    51A     -0.550449
      52A     -0.527746    53A     -0.521027    54A     -0.509324
      55A     -0.487486    56A     -0.485485    57A     -0.478132
      58A     -0.471109    59A     -0.465880    60A     -0.444520

  @DF-RHF Final Energy: -1135.80154249623274

   => Energetics <=

    Nuclear Repulsion Energy =           1211.6165445068634199
    One-Electron Energy =               -3976.5397519102198203
    Two-Electron Energy =                1629.1216649071234315
    Total Energy =                      -1135.8015424962327415
  Basis Set: (AUG-CC-PVTZ AUX)
    Blend: AUG-CC-PVTZ-RI
    Molecular point group: c1

    Geometry (in Angstrom), charge = 0, multiplicity = 1:

       Center              X                  Y                   Z               Mass
    ------------   -----------------  -----------------  -----------------  -----------------
         P            2.564103013687     0.043680471083    -0.164180913707    30.973761998420
         O           -0.788920986313    -0.516327528917    -0.850314913707    15.994914619570
         O           -3.194467986313     1.752847471083     0.211357086293    15.994914619570
         O           -3.604776986313    -0.552139528917    -0.930422913707    15.994914619570
         O           -0.973573986313    -1.697221528917     1.176400086293    15.994914619570
         O            1.381774413687     1.325070971083    -0.379954813707    15.994914619570
         O            1.694132013687    -1.299117528917    -0.331100913707    15.994914619570
         O            2.911666013687    -0.064972528917     1.416614086293    15.994914619570
         O            3.728018013687     0.284709471083    -1.039808913707    15.994914619570
         C           -2.226015986313     0.769590471083     0.567963086293    12.000000000000
         C           -0.942270986313     0.813800471083    -0.290954913707    12.000000000000
         C           -2.830140986313    -0.605649528917     0.248746086293    12.000000000000
         C           -1.584279986313    -1.408638528917    -0.057980913707    12.000000000000
         C            0.275182013687     1.192735471083     0.533535086293    12.000000000000
         H           -1.985012986313     0.828941471083     1.637331086293     1.007825032230
         H           -1.064292986313     1.495831471083    -1.137377913707     1.007825032230
         H           -3.388676986313    -1.022420528917     1.096304086293     1.007825032230
         H           -1.755142986313    -2.294435528917    -0.677185913707     1.007825032230
         H            0.394287013687     0.497196471083     1.368696086293     1.007825032230
         H            0.150205013687     2.204792471083     0.934900086293     1.007825032230
         H           -2.938341986313     2.605209471083     0.601198086293     1.007825032230
         H           -4.089668986313     0.294394471083    -0.900474913707     1.007825032230
         H           -0.089268986313    -2.073665528917     0.998649086293     1.007825032230
         H            0.859947013687    -1.081440528917    -0.827551913707     1.007825032230
         H            3.799703013687     0.307312471083     1.570608086293     1.007825032230

  Basis Set: AUG-CC-PVTZ
    Blend: AUG-CC-PVTZ
  Basis Set: (AUG-CC-PVTZ AUX)
    Blend: AUG-CC-PVTZ-JKFIT
	 Reference Energy          =   -1135.8015424962327415 [Eh]
	 Singles Energy            =      -0.0000000000000000 [Eh]
	 Same-Spin Energy          =      -0.8184239018118329 [Eh]
	 Opposite-Spin Energy      =      -2.4276622334159983 [Eh]
	 Correlation Energy        =      -3.2460861352278312 [Eh]
	 Total Energy              =   -1139.0476286314606114 [Eh]

	 ================> DF-SCS-MP2 Energies <==================
	-----------------------------------------------------------
	 SCS Same-Spin Scale       =       0.3333333333333333 [-]
	 SCS Opposite-Spin Scale   =       1.2000000000000000 [-]
	 SCS Same-Spin Energy      =      -0.2728079672706110 [Eh]
	 SCS Opposite-Spin Energy  =      -2.9131946800991977 [Eh]
	 SCS Correlation Energy    =      -3.1860026473698086 [Eh]
	 SCS Total Energy          =   -1138.9875451436025742 [Eh]
	-----------------------------------------------------------

  Dipole Moment: [D]
     X:    -2.8857      Y:     1.8730      Z:     4.1609     Total:     5.3990

*** Psi4 exiting successfully. Buy a developer a beer!
