                               Psi4 1.3.2 release

  ==> Input File <==

--------------------------------------------------------------------------
#psi4
#
memory 32 gb

molecule  {
0 1
  P        2.6114510     0.0433530    -0.1897960
  O       -0.7415730    -0.5166550    -0.8759300
  O       -3.1471200     1.7525200     0.1857420
  O       -3.5574290    -0.5524670    -0.9560380
  O       -0.9262260    -1.6975490     1.1507850
  O        1.5012860     1.2233130    -0.3203930
  O        1.7414800    -1.2994450    -0.3567160
  O        2.9590140    -0.0653000     1.3909990
  O        3.7753660     0.2843820    -1.0654240
  C       -2.1786680     0.7692630     0.5423480
  C       -0.8949230     0.8134730    -0.3165700
  C       -2.8614742    -0.7850882     0.1815562
  C       -1.5369320    -1.4089660    -0.0835960
  C        0.3225300     1.1924080     0.5079200
  H       -1.9376650     0.8286140     1.6117160
  H       -1.0169450     1.4955040    -1.1629930
  H       -3.3413290    -1.0227480     1.0706890
  H       -1.7077950    -2.2947630    -0.7028010
  H        0.4416350     0.4968690     1.3430810
  H        0.1975530     2.2044650     0.9092850
  H       -2.8909940     2.6048820     0.5755830
  H       -4.0423210     0.2940670    -0.9260900
  H       -0.0419210    -2.0739930     0.9730340
  H        0.9072950    -1.0817680    -0.8531670
  H        3.8470510     0.3069850     1.5449930
units angstrom
no_reorient  #important for SAPT in psi4, default
symmetry c1  #important for SAPT in psi4, default
}

set PROPERTIES_ORIGIN ["COM"]
properties('MP2/aug-cc-pvtz', properties = ['dipole'])
--------------------------------------------------------------------------

    Molecular point group: c1
  Charge       = 0
  Multiplicity = 1
  Basis Set: AUG-CC-PVTZ
    Blend: AUG-CC-PVTZ
  Basis Set: (AUG-CC-PVTZ AUX)
    Blend: AUG-CC-PVTZ-JKFIT

    Orbital Energies [Eh]
    ---------------------

    Doubly Occupied:

       1A    -80.113756     2A    -20.610117     3A    -20.604116
       4A    -20.603223     5A    -20.602462     6A    -20.597494
       7A    -20.595475     8A    -20.580611     9A    -20.513568
      10A    -11.362936    11A    -11.319538    12A    -11.318656
      13A    -11.315269    14A    -11.314884    15A     -7.628709
      16A     -5.527125    17A     -5.527049    18A     -5.525550
      19A     -1.461612    20A     -1.447207    21A     -1.412194
      22A     -1.389959    23A     -1.387020    24A     -1.377020
      25A     -1.369417    26A     -1.294909    27A     -1.071287
      28A     -1.040751    29A     -0.942181    30A     -0.850795
      31A     -0.849635    32A     -0.828759    33A     -0.774528
      34A     -0.764032    35A     -0.743158    36A     -0.727801
      37A     -0.714924    38A     -0.697648    39A     -0.690300
      40A     -0.676775    41A     -0.654077    42A     -0.647529
      43A     -0.636941    44A     -0.613618    45A     -0.601366
      46A     -0.597599    47A     -0.582716    48A     -0.578001
      49A     -0.566898    50A     -0.562845    51A     -0.542729
      52A     -0.531582    53A     -0.527501    54A     -0.509087
      55A     -0.486732    56A     -0.477570    57A     -0.475651
      58A     -0.468574    59A     -0.461652    60A     -0.417845

  @DF-RHF Final Energy: -1135.79336928085445

   => Energetics <=

    Nuclear Repulsion Energy =           1213.1920328703351970
    One-Electron Energy =               -3979.7448804581449622
    Two-Electron Energy =                1630.7594783069555433
    Total Energy =                      -1135.7933692808544492
  Basis Set: (AUG-CC-PVTZ AUX)
    Blend: AUG-CC-PVTZ-RI
    Molecular point group: c1

    Geometry (in Angstrom), charge = 0, multiplicity = 1:

       Center              X                  Y                   Z               Mass
    ------------   -----------------  -----------------  -----------------  -----------------
         P            2.563189714874     0.060077829810    -0.167934947347    30.973761998420
         O           -0.789834285126    -0.499930170190    -0.854068947347    15.994914619570
         O           -3.195381285126     1.769244829810     0.207603052653    15.994914619570
         O           -3.605690285126    -0.535742170190    -0.934176947347    15.994914619570
         O           -0.974487285126    -1.680824170190     1.172646052653    15.994914619570
         O            1.453024714874     1.240037829810    -0.298531947347    15.994914619570
         O            1.693218714874    -1.282720170190    -0.334854947347    15.994914619570
         O            2.910752714874    -0.048575170190     1.412860052653    15.994914619570
         O            3.727104714874     0.301106829810    -1.043562947347    15.994914619570
         C           -2.226929285126     0.785987829810     0.564209052653    12.000000000000
         C           -0.943184285126     0.830197829810    -0.294708947347    12.000000000000
         C           -2.909735485126    -0.768363370190     0.203417252653    12.000000000000
         C           -1.585193285126    -1.392241170190    -0.061734947347    12.000000000000
         C            0.274268714874     1.209132829810     0.529781052653    12.000000000000
         H           -1.985926285126     0.845338829810     1.633577052653     1.007825032230
         H           -1.065206285126     1.512228829810    -1.141131947347     1.007825032230
         H           -3.389590285126    -1.006023170190     1.092550052653     1.007825032230
         H           -1.756056285126    -2.278038170190    -0.680939947347     1.007825032230
         H            0.393373714874     0.513593829810     1.364942052653     1.007825032230
         H            0.149291714874     2.221189829810     0.931146052653     1.007825032230
         H           -2.939255285126     2.621606829810     0.597444052653     1.007825032230
         H           -4.090582285126     0.310791829810    -0.904228947347     1.007825032230
         H           -0.090182285126    -2.057268170190     0.994895052653     1.007825032230
         H            0.859033714874    -1.065043170190    -0.831305947347     1.007825032230
         H            3.798789714874     0.323709829810     1.566854052653     1.007825032230

  Basis Set: AUG-CC-PVTZ
    Blend: AUG-CC-PVTZ
  Basis Set: (AUG-CC-PVTZ AUX)
    Blend: AUG-CC-PVTZ-JKFIT
	 Reference Energy          =   -1135.7933692808544492 [Eh]
	 Singles Energy            =      -0.0000000000000000 [Eh]
	 Same-Spin Energy          =      -0.8172726138450404 [Eh]
	 Opposite-Spin Energy      =      -2.4230706483084812 [Eh]
	 Correlation Energy        =      -3.2403432621535213 [Eh]
	 Total Energy              =   -1139.0337125430080505 [Eh]

	 ================> DF-SCS-MP2 Energies <==================
	-----------------------------------------------------------
	 SCS Same-Spin Scale       =       0.3333333333333333 [-]
	 SCS Opposite-Spin Scale   =       1.2000000000000000 [-]
	 SCS Same-Spin Energy      =      -0.2724242046150134 [Eh]
	 SCS Opposite-Spin Energy  =      -2.9076847779701773 [Eh]
	 SCS Correlation Energy    =      -3.1801089825851907 [Eh]
	 SCS Total Energy          =   -1138.9734782634395742 [Eh]
	-----------------------------------------------------------

  Dipole Moment: [D]
     X:    -3.8263      Y:     2.1441      Z:     3.9366     Total:     5.8936

*** Psi4 exiting successfully. Buy a developer a beer!
