                               Psi4 1.3.2 release

  ==> Input File <==

--------------------------------------------------------------------------
#psi4
#
memory 32 gb

molecule  {
0 1
  P        2.6114510     0.0433530    -0.1897960
  O       -0.7415730    -0.5166550    -0.8759300
  O       -3.1471200     1.7525200     0.1857420
  O       -3.5574290    -0.5524670    -0.9560380
  O       -0.9262260    -1.6975490     1.1507850
  O        1.5012860     1.2233130    -0.3203930
  O        1.7414800    -1.2994450    -0.3567160
  O        2.9590140    -0.0653000     1.3909990
  O        3.7753660     0.2843820    -1.0654240
  C       -2.1786680     0.7692630     0.5423480
  C       -0.8949230     0.8134730    -0.3165700
  C       -2.8375982    -0.6763145     0.1664674
  C       -1.5369320    -1.4089660    -0.0835960
  C        0.3225300     1.1924080     0.5079200
  H       -1.9376650     0.8286140     1.6117160
  H       -1.0169450     1.4955040    -1.1629930
  H       -3.3413290    -1.0227480     1.0706890
  H       -1.7077950    -2.2947630    -0.7028010
  H        0.4416350     0.4968690     1.3430810
  H        0.1975530     2.2044650     0.9092850
  H       -2.8909940     2.6048820     0.5755830
  H       -4.0423210     0.2940670    -0.9260900
  H       -0.0419210    -2.0739930     0.9730340
  H        0.9072950    -1.0817680    -0.8531670
  H        3.8470510     0.3069850     1.5449930
units angstrom
no_reorient  #important for SAPT in psi4, default
symmetry c1  #important for SAPT in psi4, default
}

set PROPERTIES_ORIGIN ["COM"]
properties('MP2/aug-cc-pvtz', properties = ['dipole'])
--------------------------------------------------------------------------

    Molecular point group: c1
  Charge       = 0
  Multiplicity = 1
  Basis Set: AUG-CC-PVTZ
    Blend: AUG-CC-PVTZ
  Basis Set: (AUG-CC-PVTZ AUX)
    Blend: AUG-CC-PVTZ-JKFIT

    Orbital Energies [Eh]
    ---------------------

    Doubly Occupied:

       1A    -80.114072     2A    -20.610408     3A    -20.604108
       4A    -20.603823     5A    -20.602648     6A    -20.597605
       7A    -20.594819     8A    -20.581700     9A    -20.513852
      10A    -11.360699    11A    -11.320832    12A    -11.319554
      13A    -11.315766    14A    -11.310724    15A     -7.629024
      16A     -5.527442    17A     -5.527362    18A     -5.525864
      19A     -1.462389    20A     -1.448230    21A     -1.417883
      22A     -1.392165    23A     -1.389049    24A     -1.377227
      25A     -1.368965    26A     -1.295191    27A     -1.075442
      28A     -1.039087    29A     -0.943975    30A     -0.853208
      31A     -0.844888    32A     -0.828360    33A     -0.771822
      34A     -0.765973    35A     -0.744355    36A     -0.730678
      37A     -0.715616    38A     -0.693545    39A     -0.689254
      40A     -0.675083    41A     -0.653514    42A     -0.647737
      43A     -0.635431    44A     -0.618570    45A     -0.602717
      46A     -0.598740    47A     -0.582733    48A     -0.578464
      49A     -0.568752    50A     -0.563769    51A     -0.542880
      52A     -0.531278    53A     -0.527474    54A     -0.507956
      55A     -0.485638    56A     -0.480172    57A     -0.473082
      58A     -0.468131    59A     -0.463130    60A     -0.437086

  @DF-RHF Final Energy: -1135.81456613356067

   => Energetics <=

    Nuclear Repulsion Energy =           1214.8662658744071905
    One-Electron Energy =               -3983.0617754558766137
    Two-Electron Energy =                1632.3809434479085212
    Total Energy =                      -1135.8145661335606746
  Basis Set: (AUG-CC-PVTZ AUX)
    Blend: AUG-CC-PVTZ-RI
    Molecular point group: c1

    Geometry (in Angstrom), charge = 0, multiplicity = 1:

       Center              X                  Y                   Z               Mass
    ------------   -----------------  -----------------  -----------------  -----------------
         P            2.561944114259     0.054403152830    -0.167147771163    30.973761998420
         O           -0.791079885741    -0.505604847170    -0.853281771163    15.994914619570
         O           -3.196626885741     1.763570152830     0.208390228837    15.994914619570
         O           -3.606935885741    -0.541416847170    -0.933389771163    15.994914619570
         O           -0.975732885741    -1.686498847170     1.173433228837    15.994914619570
         O            1.451779114259     1.234363152830    -0.297744771163    15.994914619570
         O            1.691973114259    -1.288394847170    -0.334067771163    15.994914619570
         O            2.909507114259    -0.054249847170     1.413647228837    15.994914619570
         O            3.725859114259     0.295432152830    -1.042775771163    15.994914619570
         C           -2.228174885741     0.780313152830     0.564996228837    12.000000000000
         C           -0.944429885741     0.824523152830    -0.293921771163    12.000000000000
         C           -2.887105085741    -0.665264347170     0.189115628837    12.000000000000
         C           -1.586438885741    -1.397915847170    -0.060947771163    12.000000000000
         C            0.273023114259     1.203458152830     0.530568228837    12.000000000000
         H           -1.987171885741     0.839664152830     1.634364228837     1.007825032230
         H           -1.066451885741     1.506554152830    -1.140344771163     1.007825032230
         H           -3.390835885741    -1.011697847170     1.093337228837     1.007825032230
         H           -1.757301885741    -2.283712847170    -0.680152771163     1.007825032230
         H            0.392128114259     0.507919152830     1.365729228837     1.007825032230
         H            0.148046114259     2.215515152830     0.931933228837     1.007825032230
         H           -2.940500885741     2.615932152830     0.598231228837     1.007825032230
         H           -4.091827885741     0.305117152830    -0.903441771163     1.007825032230
         H           -0.091427885741    -2.062942847170     0.995682228837     1.007825032230
         H            0.857788114259    -1.070717847170    -0.830518771163     1.007825032230
         H            3.797544114259     0.318035152830     1.567641228837     1.007825032230

  Basis Set: AUG-CC-PVTZ
    Blend: AUG-CC-PVTZ
  Basis Set: (AUG-CC-PVTZ AUX)
    Blend: AUG-CC-PVTZ-JKFIT
	 Reference Energy          =   -1135.8145661335606746 [Eh]
	 Singles Energy            =      -0.0000000000000000 [Eh]
	 Same-Spin Energy          =      -0.8164127440754559 [Eh]
	 Opposite-Spin Energy      =      -2.4212044986890975 [Eh]
	 Correlation Energy        =      -3.2376172427645535 [Eh]
	 Total Energy              =   -1139.0521833763252744 [Eh]

	 ================> DF-SCS-MP2 Energies <==================
	-----------------------------------------------------------
	 SCS Same-Spin Scale       =       0.3333333333333333 [-]
	 SCS Opposite-Spin Scale   =       1.2000000000000000 [-]
	 SCS Same-Spin Energy      =      -0.2721375813584853 [Eh]
	 SCS Opposite-Spin Energy  =      -2.9054453984269171 [Eh]
	 SCS Correlation Energy    =      -3.1775829797854023 [Eh]
	 SCS Total Energy          =   -1138.9921491133461586 [Eh]
	-----------------------------------------------------------

  Dipole Moment: [D]
     X:    -3.7410      Y:     2.2450      Z:     3.8688     Total:     5.8312

*** Psi4 exiting successfully. Buy a developer a beer!
