                               Psi4 1.3.2 release

  ==> Input File <==

--------------------------------------------------------------------------
#psi4
#
memory 32 gb

molecule  {
0 1
  P        2.6114510     0.0433530    -0.1897960
  O       -0.8124824    -0.5216424    -0.9464039
  O       -3.1471200     1.7525200     0.1857420
  O       -3.5574290    -0.5524670    -0.9560380
  O       -0.9262260    -1.6975490     1.1507850
  O        1.5012860     1.2233130    -0.3203930
  O        1.7414800    -1.2994450    -0.3567160
  O        2.9590140    -0.0653000     1.3909990
  O        3.7753660     0.2843820    -1.0654240
  C       -2.1786680     0.7692630     0.5423480
  C       -0.8949230     0.8134730    -0.3165700
  C       -2.7827930    -0.6059770     0.2231310
  C       -1.5369320    -1.4089660    -0.0835960
  C        0.3225300     1.1924080     0.5079200
  H       -1.9376650     0.8286140     1.6117160
  H       -1.0169450     1.4955040    -1.1629930
  H       -3.3413290    -1.0227480     1.0706890
  H       -1.7077950    -2.2947630    -0.7028010
  H        0.4416350     0.4968690     1.3430810
  H        0.1975530     2.2044650     0.9092850
  H       -2.8909940     2.6048820     0.5755830
  H       -4.0423210     0.2940670    -0.9260900
  H       -0.0419210    -2.0739930     0.9730340
  H        0.9072950    -1.0817680    -0.8531670
  H        3.8470510     0.3069850     1.5449930
units angstrom
no_reorient  #important for SAPT in psi4, default
symmetry c1  #important for SAPT in psi4, default
}

set PROPERTIES_ORIGIN ["COM"]
properties('MP2/aug-cc-pvtz', properties = ['dipole'])
--------------------------------------------------------------------------

    Molecular point group: c1
  Charge       = 0
  Multiplicity = 1
  Basis Set: AUG-CC-PVTZ
    Blend: AUG-CC-PVTZ
  Basis Set: (AUG-CC-PVTZ AUX)
    Blend: AUG-CC-PVTZ-JKFIT

    Orbital Energies [Eh]
    ---------------------

    Doubly Occupied:

       1A    -80.117267     2A    -20.613064     3A    -20.607038
       4A    -20.605228     5A    -20.604058     6A    -20.603349
       7A    -20.598126     8A    -20.572038     9A    -20.516485
      10A    -11.359668    11A    -11.324750    12A    -11.322379
      13A    -11.319339    14A    -11.304551    15A     -7.632228
      16A     -5.530636    17A     -5.530575    18A     -5.529056
      19A     -1.461143    20A     -1.447065    21A     -1.409923
      22A     -1.392391    23A     -1.381352    24A     -1.373367
      25A     -1.365770    26A     -1.297820    27A     -1.084906
      28A     -1.044029    29A     -0.947462    30A     -0.857188
      31A     -0.840603    32A     -0.827505    33A     -0.770835
      34A     -0.759491    35A     -0.745332    36A     -0.734655
      37A     -0.719075    38A     -0.695540    39A     -0.683818
      40A     -0.664541    41A     -0.653347    42A     -0.647259
      43A     -0.629936    44A     -0.614956    45A     -0.600715
      46A     -0.594748    47A     -0.584097    48A     -0.578424
      49A     -0.568066    50A     -0.558161    51A     -0.545658
      52A     -0.533368    53A     -0.527248    54A     -0.510308
      55A     -0.491696    56A     -0.488681    57A     -0.476365
      58A     -0.469758    59A     -0.466421    60A     -0.449868

  @DF-RHF Final Energy: -1135.81769883202492

   => Energetics <=

    Nuclear Repulsion Energy =           1213.9277870023088326
    One-Electron Energy =               -3981.1255171506718398
    Two-Electron Energy =                1631.3800313163380906
    Total Energy =                      -1135.8176988320249166
  Basis Set: (AUG-CC-PVTZ AUX)
    Blend: AUG-CC-PVTZ-RI
    Molecular point group: c1

    Geometry (in Angstrom), charge = 0, multiplicity = 1:

       Center              X                  Y                   Z               Mass
    ------------   -----------------  -----------------  -----------------  -----------------
         P            2.564015799986     0.051080486223    -0.165203320864    30.973761998420
         O           -0.859917600014    -0.513914913777    -0.921811220864    15.994914619570
         O           -3.194555200014     1.760247486223     0.210334679136    15.994914619570
         O           -3.604864200014    -0.544739513777    -0.931445320864    15.994914619570
         O           -0.973661200014    -1.689821513777     1.175377679136    15.994914619570
         O            1.453850799986     1.231040486223    -0.295800320864    15.994914619570
         O            1.694044799986    -1.291717513777    -0.332123320864    15.994914619570
         O            2.911578799986    -0.057572513777     1.415591679136    15.994914619570
         O            3.727930799986     0.292109486223    -1.040831320864    15.994914619570
         C           -2.226103200014     0.776990486223     0.566940679136    12.000000000000
         C           -0.942358200014     0.821200486223    -0.291977320864    12.000000000000
         C           -2.830228200014    -0.598249513777     0.247723679136    12.000000000000
         C           -1.584367200014    -1.401238513777    -0.059003320864    12.000000000000
         C            0.275094799986     1.200135486223     0.532512679136    12.000000000000
         H           -1.985100200014     0.836341486223     1.636308679136     1.007825032230
         H           -1.064380200014     1.503231486223    -1.138400320864     1.007825032230
         H           -3.388764200014    -1.015020513777     1.095281679136     1.007825032230
         H           -1.755230200014    -2.287035513777    -0.678208320864     1.007825032230
         H            0.394199799986     0.504596486223     1.367673679136     1.007825032230
         H            0.150117799986     2.212192486223     0.933877679136     1.007825032230
         H           -2.938429200014     2.612609486223     0.600175679136     1.007825032230
         H           -4.089756200014     0.301794486223    -0.901497320864     1.007825032230
         H           -0.089356200014    -2.066265513777     0.997626679136     1.007825032230
         H            0.859859799986    -1.074040513777    -0.828574320864     1.007825032230
         H            3.799615799986     0.314712486223     1.569585679136     1.007825032230

  Basis Set: AUG-CC-PVTZ
    Blend: AUG-CC-PVTZ
  Basis Set: (AUG-CC-PVTZ AUX)
    Blend: AUG-CC-PVTZ-JKFIT
	 Reference Energy          =   -1135.8176988320249166 [Eh]
	 Singles Energy            =      -0.0000000000000000 [Eh]
	 Same-Spin Energy          =      -0.8166984305872738 [Eh]
	 Opposite-Spin Energy      =      -2.4232904703489484 [Eh]
	 Correlation Energy        =      -3.2399889009362219 [Eh]
	 Total Energy              =   -1139.0576877329610852 [Eh]

	 ================> DF-SCS-MP2 Energies <==================
	-----------------------------------------------------------
	 SCS Same-Spin Scale       =       0.3333333333333333 [-]
	 SCS Opposite-Spin Scale   =       1.2000000000000000 [-]
	 SCS Same-Spin Energy      =      -0.2722328101957579 [Eh]
	 SCS Opposite-Spin Energy  =      -2.9079485644187382 [Eh]
	 SCS Correlation Energy    =      -3.1801813746144960 [Eh]
	 SCS Total Energy          =   -1138.9978802066393655 [Eh]
	-----------------------------------------------------------

  Dipole Moment: [D]
     X:    -3.1922      Y:     2.3350      Z:     4.1548     Total:     5.7363

*** Psi4 exiting successfully. Buy a developer a beer!
