                               Psi4 1.3.2 release

  ==> Input File <==

--------------------------------------------------------------------------
#psi4
#
memory 32 gb

molecule  {
0 1
  P        2.6114510     0.0433530    -0.1897960
  O       -0.7064524    -0.5521815    -0.8791035
  O       -3.1471200     1.7525200     0.1857420
  O       -3.5574290    -0.5524670    -0.9560380
  O       -0.9262260    -1.6975490     1.1507850
  O        1.5012860     1.2233130    -0.3203930
  O        1.7414800    -1.2994450    -0.3567160
  O        2.9590140    -0.0653000     1.3909990
  O        3.7753660     0.2843820    -1.0654240
  C       -2.1786680     0.7692630     0.5423480
  C       -0.8949230     0.8134730    -0.3165700
  C       -2.7827930    -0.6059770     0.2231310
  C       -1.5369320    -1.4089660    -0.0835960
  C        0.3225300     1.1924080     0.5079200
  H       -1.9376650     0.8286140     1.6117160
  H       -1.0169450     1.4955040    -1.1629930
  H       -3.3413290    -1.0227480     1.0706890
  H       -1.7077950    -2.2947630    -0.7028010
  H        0.4416350     0.4968690     1.3430810
  H        0.1975530     2.2044650     0.9092850
  H       -2.8909940     2.6048820     0.5755830
  H       -4.0423210     0.2940670    -0.9260900
  H       -0.0419210    -2.0739930     0.9730340
  H        0.9072950    -1.0817680    -0.8531670
  H        3.8470510     0.3069850     1.5449930
units angstrom
no_reorient  #important for SAPT in psi4, default
symmetry c1  #important for SAPT in psi4, default
}

set PROPERTIES_ORIGIN ["COM"]
properties('MP2/aug-cc-pvtz', properties = ['dipole'])
--------------------------------------------------------------------------

    Molecular point group: c1
  Charge       = 0
  Multiplicity = 1
  Basis Set: AUG-CC-PVTZ
    Blend: AUG-CC-PVTZ
  Basis Set: (AUG-CC-PVTZ AUX)
    Blend: AUG-CC-PVTZ-JKFIT

    Orbital Energies [Eh]
    ---------------------

    Doubly Occupied:

       1A    -80.113839     2A    -20.610406     3A    -20.608336
       4A    -20.605019     5A    -20.605001     6A    -20.595005
       7A    -20.593056     8A    -20.576035     9A    -20.513716
      10A    -11.361288    11A    -11.326062    12A    -11.322982
      13A    -11.322329    14A    -11.308884    15A     -7.628784
      16A     -5.527220    17A     -5.527108    18A     -5.525625
      19A     -1.460425    20A     -1.445659    21A     -1.413091
      22A     -1.390138    23A     -1.376359    24A     -1.374077
      25A     -1.363741    26A     -1.295047    27A     -1.087873
      28A     -1.045830    29A     -0.945066    30A     -0.859176
      31A     -0.840687    32A     -0.829365    33A     -0.771977
      34A     -0.759073    35A     -0.746518    36A     -0.734151
      37A     -0.715907    38A     -0.691947    39A     -0.684463
      40A     -0.666459    41A     -0.652531    42A     -0.644657
      43A     -0.634113    44A     -0.611705    45A     -0.603127
      46A     -0.593933    47A     -0.581243    48A     -0.577689
      49A     -0.569835    50A     -0.559844    51A     -0.542020
      52A     -0.531335    53A     -0.525718    54A     -0.513128
      55A     -0.491578    56A     -0.488117    57A     -0.475836
      58A     -0.468975    59A     -0.465462    60A     -0.452675

  @DF-RHF Final Energy: -1135.81982473805374

   => Energetics <=

    Nuclear Repulsion Energy =           1215.3527984552363250
    One-Electron Energy =               -3984.0427609555554227
    Two-Electron Energy =                1632.8701377622651307
    Total Energy =                      -1135.8198247380537396
  Basis Set: (AUG-CC-PVTZ AUX)
    Blend: AUG-CC-PVTZ-RI
    Molecular point group: c1

    Geometry (in Angstrom), charge = 0, multiplicity = 1:

       Center              X                  Y                   Z               Mass
    ------------   -----------------  -----------------  -----------------  -----------------
         P            2.556642758370     0.053204093270    -0.169883210046    30.973761998420
         O           -0.761260641630    -0.542330406730    -0.859190710046    15.994914619570
         O           -3.201928241630     1.762371093270     0.205654789954    15.994914619570
         O           -3.612237241630    -0.542615906730    -0.936125210046    15.994914619570
         O           -0.981034241630    -1.687697906730     1.170697789954    15.994914619570
         O            1.446477758370     1.233164093270    -0.300480210046    15.994914619570
         O            1.686671758370    -1.289593906730    -0.336803210046    15.994914619570
         O            2.904205758370    -0.055448906730     1.410911789954    15.994914619570
         O            3.720557758370     0.294233093270    -1.045511210046    15.994914619570
         C           -2.233476241630     0.779114093270     0.562260789954    12.000000000000
         C           -0.949731241630     0.823324093270    -0.296657210046    12.000000000000
         C           -2.837601241630    -0.596125906730     0.243043789954    12.000000000000
         C           -1.591740241630    -1.399114906730    -0.063683210046    12.000000000000
         C            0.267721758370     1.202259093270     0.527832789954    12.000000000000
         H           -1.992473241630     0.838465093270     1.631628789954     1.007825032230
         H           -1.071753241630     1.505355093270    -1.143080210046     1.007825032230
         H           -3.396137241630    -1.012896906730     1.090601789954     1.007825032230
         H           -1.762603241630    -2.284911906730    -0.682888210046     1.007825032230
         H            0.386826758370     0.506720093270     1.362993789954     1.007825032230
         H            0.142744758370     2.214316093270     0.929197789954     1.007825032230
         H           -2.945802241630     2.614733093270     0.595495789954     1.007825032230
         H           -4.097129241630     0.303918093270    -0.906177210046     1.007825032230
         H           -0.096729241630    -2.064141906730     0.992946789954     1.007825032230
         H            0.852486758370    -1.071916906730    -0.833254210046     1.007825032230
         H            3.792242758370     0.316836093270     1.564905789954     1.007825032230

  Basis Set: AUG-CC-PVTZ
    Blend: AUG-CC-PVTZ
  Basis Set: (AUG-CC-PVTZ AUX)
    Blend: AUG-CC-PVTZ-JKFIT
	 Reference Energy          =   -1135.8198247380537396 [Eh]
	 Singles Energy            =      -0.0000000000000000 [Eh]
	 Same-Spin Energy          =      -0.8165972840780333 [Eh]
	 Opposite-Spin Energy      =      -2.4229576518539213 [Eh]
	 Correlation Energy        =      -3.2395549359319546 [Eh]
	 Total Energy              =   -1139.0593796739856316 [Eh]

	 ================> DF-SCS-MP2 Energies <==================
	-----------------------------------------------------------
	 SCS Same-Spin Scale       =       0.3333333333333333 [-]
	 SCS Opposite-Spin Scale   =       1.2000000000000000 [-]
	 SCS Same-Spin Energy      =      -0.2721990946926778 [Eh]
	 SCS Opposite-Spin Energy  =      -2.9075491822247055 [Eh]
	 SCS Correlation Energy    =      -3.1797482769173833 [Eh]
	 SCS Total Energy          =   -1138.9995730149710198 [Eh]
	-----------------------------------------------------------

  Dipole Moment: [D]
     X:    -3.6295      Y:     2.4302      Z:     4.0561     Total:     5.9608

*** Psi4 exiting successfully. Buy a developer a beer!
