                               Psi4 1.3.2 release

  ==> Input File <==

--------------------------------------------------------------------------
#psi4
#
memory 32 gb

molecule  {
0 1
  P        2.6114510     0.0433530    -0.1897960
  O       -0.7415730    -0.5166550    -0.8759300
  O       -3.1471200     1.7525200     0.1857420
  O       -3.5574290    -0.5524670    -0.9560380
  O       -0.9262260    -1.6975490     1.1507850
  O        1.5012860     1.2233130    -0.3203930
  O        1.7414800    -1.2994450    -0.3567160
  O        2.9590140    -0.0653000     1.3909990
  O        3.7753660     0.2843820    -1.0654240
  C       -2.2065331     0.7554121     0.4982943
  C       -0.8949230     0.8134730    -0.3165700
  C       -2.7827930    -0.6059770     0.2231310
  C       -1.5369320    -1.4089660    -0.0835960
  C        0.3225300     1.1924080     0.5079200
  H       -1.9376650     0.8286140     1.6117160
  H       -1.0169450     1.4955040    -1.1629930
  H       -3.3413290    -1.0227480     1.0706890
  H       -1.7077950    -2.2947630    -0.7028010
  H        0.4416350     0.4968690     1.3430810
  H        0.1975530     2.2044650     0.9092850
  H       -2.8909940     2.6048820     0.5755830
  H       -4.0423210     0.2940670    -0.9260900
  H       -0.0419210    -2.0739930     0.9730340
  H        0.9072950    -1.0817680    -0.8531670
  H        3.8470510     0.3069850     1.5449930
units angstrom
no_reorient  #important for SAPT in psi4, default
symmetry c1  #important for SAPT in psi4, default
}

set PROPERTIES_ORIGIN ["COM"]
properties('MP2/aug-cc-pvtz', properties = ['dipole'])
--------------------------------------------------------------------------

    Molecular point group: c1
  Charge       = 0
  Multiplicity = 1
  Basis Set: AUG-CC-PVTZ
    Blend: AUG-CC-PVTZ
  Basis Set: (AUG-CC-PVTZ AUX)
    Blend: AUG-CC-PVTZ-JKFIT

    Orbital Energies [Eh]
    ---------------------

    Doubly Occupied:

       1A    -80.115084     2A    -20.611206     3A    -20.607010
       4A    -20.605571     5A    -20.603157     6A    -20.598461
       7A    -20.594623     8A    -20.574314     9A    -20.514724
      10A    -11.362845    11A    -11.325075    12A    -11.321665
      13A    -11.317833    14A    -11.305941    15A     -7.630033
      16A     -5.528455    17A     -5.528370    18A     -5.526869
      19A     -1.463630    20A     -1.448810    21A     -1.417152
      22A     -1.390828    23A     -1.378290    24A     -1.375047
      25A     -1.368879    26A     -1.296047    27A     -1.084205
      28A     -1.049505    29A     -0.947763    30A     -0.859431
      31A     -0.840272    32A     -0.830403    33A     -0.772347
      34A     -0.759510    35A     -0.750958    36A     -0.729783
      37A     -0.717312    38A     -0.692856    39A     -0.686474
      40A     -0.668135    41A     -0.653309    42A     -0.648721
      43A     -0.633580    44A     -0.616958    45A     -0.601148
      46A     -0.597998    47A     -0.582146    48A     -0.576634
      49A     -0.569687    50A     -0.560549    51A     -0.543366
      52A     -0.532041    53A     -0.527040    54A     -0.508495
      55A     -0.491374    56A     -0.482473    57A     -0.474890
      58A     -0.469059    59A     -0.465492    60A     -0.452918

  @DF-RHF Final Energy: -1135.82008391457293

   => Energetics <=

    Nuclear Repulsion Energy =           1216.4328147931164494
    One-Electron Energy =               -3986.1322978433445314
    Two-Electron Energy =                1633.8793991356551487
    Total Energy =                      -1135.8200839145729333
  Basis Set: (AUG-CC-PVTZ AUX)
    Blend: AUG-CC-PVTZ-RI
    Molecular point group: c1

    Geometry (in Angstrom), charge = 0, multiplicity = 1:

       Center              X                  Y                   Z               Mass
    ------------   -----------------  -----------------  -----------------  -----------------
         P            2.560538660870     0.051456271288    -0.167805624204    30.973761998420
         O           -0.792485339130    -0.508551728712    -0.853939624204    15.994914619570
         O           -3.198032339130     1.760623271288     0.207732375796    15.994914619570
         O           -3.608341339130    -0.544363728712    -0.934047624204    15.994914619570
         O           -0.977138339130    -1.689445728712     1.172775375796    15.994914619570
         O            1.450373660870     1.231416271288    -0.298402624204    15.994914619570
         O            1.690567660870    -1.291341728712    -0.334725624204    15.994914619570
         O            2.908101660870    -0.057196728712     1.412989375796    15.994914619570
         O            3.724453660870     0.292485271288    -1.043433624204    15.994914619570
         C           -2.257445439130     0.763515371288     0.520284675796    12.000000000000
         C           -0.945835339130     0.821576271288    -0.294579624204    12.000000000000
         C           -2.833705339130    -0.597873728712     0.245121375796    12.000000000000
         C           -1.587844339130    -1.400862728712    -0.061605624204    12.000000000000
         C            0.271617660870     1.200511271288     0.529910375796    12.000000000000
         H           -1.988577339130     0.836717271288     1.633706375796     1.007825032230
         H           -1.067857339130     1.503607271288    -1.141002624204     1.007825032230
         H           -3.392241339130    -1.014644728712     1.092679375796     1.007825032230
         H           -1.758707339130    -2.286659728712    -0.680810624204     1.007825032230
         H            0.390722660870     0.504972271288     1.365071375796     1.007825032230
         H            0.146640660870     2.212568271288     0.931275375796     1.007825032230
         H           -2.941906339130     2.612985271288     0.597573375796     1.007825032230
         H           -4.093233339130     0.302170271288    -0.904099624204     1.007825032230
         H           -0.092833339130    -2.065889728712     0.995024375796     1.007825032230
         H            0.856382660870    -1.073664728712    -0.831176624204     1.007825032230
         H            3.796138660870     0.315088271288     1.566983375796     1.007825032230

  Basis Set: AUG-CC-PVTZ
    Blend: AUG-CC-PVTZ
  Basis Set: (AUG-CC-PVTZ AUX)
    Blend: AUG-CC-PVTZ-JKFIT
	 Reference Energy          =   -1135.8200839145729333 [Eh]
	 Singles Energy            =      -0.0000000000000000 [Eh]
	 Same-Spin Energy          =      -0.8163140308924988 [Eh]
	 Opposite-Spin Energy      =      -2.4215592691853387 [Eh]
	 Correlation Energy        =      -3.2378733000778377 [Eh]
	 Total Energy              =   -1139.0579572146507417 [Eh]

	 ================> DF-SCS-MP2 Energies <==================
	-----------------------------------------------------------
	 SCS Same-Spin Scale       =       0.3333333333333333 [-]
	 SCS Opposite-Spin Scale   =       1.2000000000000000 [-]
	 SCS Same-Spin Energy      =      -0.2721046769641662 [Eh]
	 SCS Opposite-Spin Energy  =      -2.9058711230224064 [Eh]
	 SCS Correlation Energy    =      -3.1779757999865725 [Eh]
	 SCS Total Energy          =   -1138.9980597145595311 [Eh]
	-----------------------------------------------------------

  Dipole Moment: [D]
     X:    -3.4998      Y:     2.3108      Z:     3.9855     Total:     5.7856

*** Psi4 exiting successfully. Buy a developer a beer!
