                               Psi4 1.3.2 release

  ==> Input File <==

--------------------------------------------------------------------------
#psi4
#
memory 32 gb

molecule  {
0 1
  P        2.6114510     0.0433530    -0.1897960
  O       -0.7415730    -0.5166550    -0.8759300
  O       -3.1471200     1.7525200     0.1857420
  O       -3.5574290    -0.5524670    -0.9560380
  O       -0.9262260    -1.6975490     1.1507850
  O        1.5012860     1.2233130    -0.3203930
  O        1.7414800    -1.2994450    -0.3567160
  O        2.9590140    -0.0653000     1.3909990
  O        3.7753660     0.2843820    -1.0654240
  C       -2.1786680     0.7692630     0.5423480
  C       -0.8949230     0.8134730    -0.3165700
  C       -2.7827930    -0.6059770     0.2231310
  C       -1.5369320    -1.4089660    -0.0835960
  C        0.3450997     1.3111410     0.4047049
  H       -1.9376650     0.8286140     1.6117160
  H       -1.0169450     1.4955040    -1.1629930
  H       -3.3413290    -1.0227480     1.0706890
  H       -1.7077950    -2.2947630    -0.7028010
  H        0.4416350     0.4968690     1.3430810
  H        0.1975530     2.2044650     0.9092850
  H       -2.8909940     2.6048820     0.5755830
  H       -4.0423210     0.2940670    -0.9260900
  H       -0.0419210    -2.0739930     0.9730340
  H        0.9072950    -1.0817680    -0.8531670
  H        3.8470510     0.3069850     1.5449930
units angstrom
no_reorient  #important for SAPT in psi4, default
symmetry c1  #important for SAPT in psi4, default
}

set PROPERTIES_ORIGIN ["COM"]
properties('MP2/aug-cc-pvtz', properties = ['dipole'])
--------------------------------------------------------------------------

    Molecular point group: c1
  Charge       = 0
  Multiplicity = 1
  Basis Set: AUG-CC-PVTZ
    Blend: AUG-CC-PVTZ
  Basis Set: (AUG-CC-PVTZ AUX)
    Blend: AUG-CC-PVTZ-JKFIT

    Orbital Energies [Eh]
    ---------------------

    Doubly Occupied:

       1A    -80.121338     2A    -20.612825     3A    -20.609366
       4A    -20.605016     5A    -20.604221     6A    -20.600391
       7A    -20.592538     8A    -20.573713     9A    -20.518942
      10A    -11.361380    11A    -11.325150    12A    -11.322724
      13A    -11.316447    14A    -11.306332    15A     -7.635807
      16A     -5.534409    17A     -5.534128    18A     -5.532577
      19A     -1.469203    20A     -1.451098    21A     -1.410199
      22A     -1.404564    23A     -1.381328    24A     -1.372328
      25A     -1.367648    26A     -1.300380    27A     -1.081199
      28A     -1.046212    29A     -0.950095    30A     -0.863830
      31A     -0.839236    32A     -0.825440    33A     -0.773964
      34A     -0.761979    35A     -0.750038    36A     -0.732039
      37A     -0.720594    38A     -0.709522    39A     -0.682778
      40A     -0.664978    41A     -0.659842    42A     -0.648017
      43A     -0.633792    44A     -0.616536    45A     -0.598956
      46A     -0.597594    47A     -0.586532    48A     -0.574642
      49A     -0.567878    50A     -0.559597    51A     -0.545741
      52A     -0.532134    53A     -0.519746    54A     -0.496833
      55A     -0.490366    56A     -0.484496    57A     -0.475817
      58A     -0.470862    59A     -0.457665    60A     -0.446796

  @DF-RHF Final Energy: -1135.79983630392940

   => Energetics <=

    Nuclear Repulsion Energy =           1215.3157464611713294
    One-Electron Energy =               -3983.7715718737267707
    Two-Electron Energy =                1632.6559891086260450
    Total Energy =                      -1135.7998363039293963
  Basis Set: (AUG-CC-PVTZ AUX)
    Blend: AUG-CC-PVTZ-RI
    Molecular point group: c1

    Geometry (in Angstrom), charge = 0, multiplicity = 1:

       Center              X                  Y                   Z               Mass
    ------------   -----------------  -----------------  -----------------  -----------------
         P            2.557907499123     0.044539426451    -0.164719199501    30.973761998420
         O           -0.795116500877    -0.515468573549    -0.850853199501    15.994914619570
         O           -3.200663500877     1.753706426451     0.210818800499    15.994914619570
         O           -3.610972500877    -0.551280573549    -0.930961199501    15.994914619570
         O           -0.979769500877    -1.696362573549     1.175861800499    15.994914619570
         O            1.447742499123     1.224499426451    -0.295316199501    15.994914619570
         O            1.687936499123    -1.298258573549    -0.331639199501    15.994914619570
         O            2.905470499123    -0.064113573549     1.416075800499    15.994914619570
         O            3.721822499123     0.285568426451    -1.040347199501    15.994914619570
         C           -2.232211500877     0.770449426451     0.567424800499    12.000000000000
         C           -0.948466500877     0.814659426451    -0.291493199501    12.000000000000
         C           -2.836336500877    -0.604790573549     0.248207800499    12.000000000000
         C           -1.590475500877    -1.407779573549    -0.058519199501    12.000000000000
         C            0.291556199123     1.312327426451     0.429781700499    12.000000000000
         H           -1.991208500877     0.829800426451     1.636792800499     1.007825032230
         H           -1.070488500877     1.496690426451    -1.137916199501     1.007825032230
         H           -3.394872500877    -1.021561573549     1.095765800499     1.007825032230
         H           -1.761338500877    -2.293576573549    -0.677724199501     1.007825032230
         H            0.388091499123     0.498055426451     1.368157800499     1.007825032230
         H            0.144009499123     2.205651426451     0.934361800499     1.007825032230
         H           -2.944537500877     2.606068426451     0.600659800499     1.007825032230
         H           -4.095864500877     0.295253426451    -0.901013199501     1.007825032230
         H           -0.095464500877    -2.072806573549     0.998110800499     1.007825032230
         H            0.853751499123    -1.080581573549    -0.828090199501     1.007825032230
         H            3.793507499123     0.308171426451     1.570069800499     1.007825032230

  Basis Set: AUG-CC-PVTZ
    Blend: AUG-CC-PVTZ
  Basis Set: (AUG-CC-PVTZ AUX)
    Blend: AUG-CC-PVTZ-JKFIT
	 Reference Energy          =   -1135.7998363039293963 [Eh]
	 Singles Energy            =      -0.0000000000000000 [Eh]
	 Same-Spin Energy          =      -0.8167116481899143 [Eh]
	 Opposite-Spin Energy      =      -2.4220168192081220 [Eh]
	 Correlation Energy        =      -3.2387284673980363 [Eh]
	 Total Energy              =   -1139.0385647713274011 [Eh]

	 ================> DF-SCS-MP2 Energies <==================
	-----------------------------------------------------------
	 SCS Same-Spin Scale       =       0.3333333333333333 [-]
	 SCS Opposite-Spin Scale   =       1.2000000000000000 [-]
	 SCS Same-Spin Energy      =      -0.2722372160633048 [Eh]
	 SCS Opposite-Spin Energy  =      -2.9064201830497463 [Eh]
	 SCS Correlation Energy    =      -3.1786573991130509 [Eh]
	 SCS Total Energy          =   -1138.9784937030424317 [Eh]
	-----------------------------------------------------------

  Dipole Moment: [D]
     X:    -3.1886      Y:     2.3672      Z:     3.8556     Total:     5.5350

*** Psi4 exiting successfully. Buy a developer a beer!
