                               Psi4 1.4a3.dev225

  ==> Input File <==

--------------------------------------------------------------------------
#psi4
#
memory 32 gb

molecule  {
0 1
  P        2.6113660     0.0433910    -0.1897900
  O       -0.7416560    -0.5164190    -0.8762010
  O       -3.1473860     1.7523070     0.1855430
  O       -3.5574330    -0.5529450    -0.9556820
  O       -0.9255690    -1.6972900     1.1506350
  O        1.5012550     1.2233910    -0.3202530
  O        1.7411940    -1.2993510    -0.3564950
  O        2.9591660    -0.0655390     1.3909200
  O        3.7751240     0.2843830    -1.0656400
  C       -2.1787050     0.7693270     0.5422590
  C       -0.8949630     0.8136090    -0.3166340
  C       -2.7825860    -0.6061320     0.2233240
  C       -1.5531042    -1.3983085    -0.0795070
  C        0.3224410     1.1924200     0.5080110
  H       -1.9377070     0.8289040     1.6116220
  H       -1.0168440     1.4957790    -1.1629650
  H       -3.3408870    -1.0228010     1.0710960
  H       -1.7074320    -2.2947510    -0.7027390
  H        0.4414920     0.4968360     1.3431340
  H        0.1974400     2.2044510     0.9094280
  H       -2.8916000     2.6047160     0.5754970
  H       -4.0429610     0.2932130    -0.9254450
  H       -0.0410590    -2.0731950     0.9726900
  H        0.9073710    -1.0816890    -0.8535130
  H        3.8468470     0.3075270     1.5450430
units angstrom
no_reorient  #important for SAPT in psi4, default
symmetry c1  #important for SAPT in psi4, default
}

set PROPERTIES_ORIGIN ["COM"]
properties('MP2/aug-cc-pvtz', properties = ['dipole'])
--------------------------------------------------------------------------

    Molecular point group: c1
  Charge       = 0
  Multiplicity = 1
  Basis Set: AUG-CC-PVTZ
    Blend: AUG-CC-PVTZ
  Basis Set: (AUG-CC-PVTZ AUX)
    Blend: AUG-CC-PVTZ-JKFIT

    Orbital Energies [Eh]
    ---------------------

    Doubly Occupied:

       1A    -80.114774     2A    -20.611051     3A    -20.606629
       4A    -20.604974     5A    -20.603307     6A    -20.598173
       7A    -20.593590     8A    -20.575760     9A    -20.514458
      10A    -11.362792    11A    -11.323943    12A    -11.321122
      13A    -11.317984    14A    -11.307432    15A     -7.629725
      16A     -5.528146    17A     -5.528063    18A     -5.526563
      19A     -1.462393    20A     -1.447658    21A     -1.411528
      22A     -1.390410    23A     -1.377933    24A     -1.373838
      25A     -1.367340    26A     -1.295792    27A     -1.084809
      28A     -1.050230    29A     -0.947107    30A     -0.857950
      31A     -0.842140    32A     -0.828712    33A     -0.771867
      34A     -0.759552    35A     -0.747520    36A     -0.734855
      37A     -0.716630    38A     -0.692388    39A     -0.684095
      40A     -0.665965    41A     -0.652716    42A     -0.647439
      43A     -0.632979    44A     -0.612144    45A     -0.600732
      46A     -0.596562    47A     -0.581991    48A     -0.577900
      49A     -0.569768    50A     -0.561231    51A     -0.543066
      52A     -0.531669    53A     -0.526899    54A     -0.512700
      55A     -0.490108    56A     -0.488594    57A     -0.475134
      58A     -0.470009    59A     -0.466201    60A     -0.450919

  @DF-RHF Final Energy: -1135.82193768382172

   => Energetics <=

    Nuclear Repulsion Energy =           1216.0401163844321673
    One-Electron Energy =               -3985.3881885508812957
    Two-Electron Energy =                1633.5261344826274126
    Total Energy =                      -1135.8219376838217158
  Basis Set: (AUG-CC-PVTZ AUX)
    Blend: AUG-CC-PVTZ-RI
    Molecular point group: c1

    Geometry (in Angstrom), charge = 0, multiplicity = 1:

       Center              X                  Y                   Z               Mass
    ------------   -----------------  -----------------  -----------------  -----------------
         P            2.559859695965     0.050221968593    -0.170307351460    30.973761998420
         O           -0.793162304035    -0.509588031407    -0.856718351460    15.994914619570
         O           -3.198892304035     1.759137968593     0.205025648540    15.994914619570
         O           -3.608939304035    -0.546114031407    -0.936199351460    15.994914619570
         O           -0.977075304035    -1.690459031407     1.170117648540    15.994914619570
         O            1.449748695965     1.230221968593    -0.300770351460    15.994914619570
         O            1.689687695965    -1.292520031407    -0.337012351460    15.994914619570
         O            2.907659695965    -0.058708031407     1.410402648540    15.994914619570
         O            3.723617695965     0.291213968593    -1.046157351460    15.994914619570
         C           -2.230211304035     0.776157968593     0.561741648540    12.000000000000
         C           -0.946469304035     0.820439968593    -0.297151351460    12.000000000000
         C           -2.834092304035    -0.599301031407     0.242806648540    12.000000000000
         C           -1.604610504035    -1.391477531407    -0.060024351460    12.000000000000
         C            0.270934695965     1.199250968593     0.527493648540    12.000000000000
         H           -1.989213304035     0.835734968593     1.631104648540     1.007825032230
         H           -1.068350304035     1.502609968593    -1.143482351460     1.007825032230
         H           -3.392393304035    -1.015970031407     1.090578648540     1.007825032230
         H           -1.758938304035    -2.287920031407    -0.683256351460     1.007825032230
         H            0.389985695965     0.503666968593     1.362616648540     1.007825032230
         H            0.145933695965     2.211281968593     0.928910648540     1.007825032230
         H           -2.943106304035     2.611546968593     0.594979648540     1.007825032230
         H           -4.094467304035     0.300043968593    -0.905962351460     1.007825032230
         H           -0.092565304035    -2.066364031407     0.992172648540     1.007825032230
         H            0.855864695965    -1.074858031407    -0.834030351460     1.007825032230
         H            3.795340695965     0.314357968593     1.564525648540     1.007825032230

  Basis Set: AUG-CC-PVTZ
    Blend: AUG-CC-PVTZ
  Basis Set: (AUG-CC-PVTZ AUX)
    Blend: AUG-CC-PVTZ-JKFIT
	 Reference Energy          =   -1135.8219376838217158 [Eh]
	 Singles Energy            =      -0.0000000000000000 [Eh]
	 Same-Spin Energy          =      -0.8163860855349994 [Eh]
	 Opposite-Spin Energy      =      -2.4220425158012242 [Eh]
	 Correlation Energy        =      -3.2384286013362233 [Eh]
	 Total Energy              =   -1139.0603662851578974 [Eh]

	 ================> DF-SCS-MP2 Energies <==================
	-----------------------------------------------------------
	 SCS Same-Spin Scale       =       0.3333333333333333 [-]
	 SCS Opposite-Spin Scale   =       1.2000000000000000 [-]
	 SCS Same-Spin Energy      =      -0.2721286951783331 [Eh]
	 SCS Opposite-Spin Energy  =      -2.9064510189614690 [Eh]
	 SCS Correlation Energy    =      -3.1785797141398020 [Eh]
	 SCS Total Energy          =   -1139.0005173979616302 [Eh]
	-----------------------------------------------------------

  Dipole Moment: [D]
     X:    -3.5338      Y:     2.3231      Z:     4.0313     Total:     5.8426

*** Psi4 exiting successfully. Buy a developer a beer!
