                               Psi4 1.3.2 release

  ==> Input File <==

--------------------------------------------------------------------------
#psi4
#
memory 32 gb

molecule  {
0 1
  P        2.6114510     0.0433530    -0.1897960
  O       -0.7415730    -0.5166550    -0.8759300
  O       -3.1471200     1.7525200     0.1857420
  O       -3.6549336    -0.4723950    -0.8790897
  O       -0.9262260    -1.6975490     1.1507850
  O        1.5012860     1.2233130    -0.3203930
  O        1.7414800    -1.2994450    -0.3567160
  O        2.9590140    -0.0653000     1.3909990
  O        3.7753660     0.2843820    -1.0654240
  C       -2.1786680     0.7692630     0.5423480
  C       -0.8949230     0.8134730    -0.3165700
  C       -2.7827930    -0.6059770     0.2231310
  C       -1.5369320    -1.4089660    -0.0835960
  C        0.3225300     1.1924080     0.5079200
  H       -1.9376650     0.8286140     1.6117160
  H       -1.0169450     1.4955040    -1.1629930
  H       -3.3413290    -1.0227480     1.0706890
  H       -1.7077950    -2.2947630    -0.7028010
  H        0.4416350     0.4968690     1.3430810
  H        0.1975530     2.2044650     0.9092850
  H       -2.8909940     2.6048820     0.5755830
  H       -4.0423210     0.2940670    -0.9260900
  H       -0.0419210    -2.0739930     0.9730340
  H        0.9072950    -1.0817680    -0.8531670
  H        3.8470510     0.3069850     1.5449930
units angstrom
no_reorient  #important for SAPT in psi4, default
symmetry c1  #important for SAPT in psi4, default
}

set PROPERTIES_ORIGIN ["COM"]
properties('MP2/aug-cc-pvtz', properties = ['dipole'])
--------------------------------------------------------------------------

    Molecular point group: c1
  Charge       = 0
  Multiplicity = 1
  Basis Set: AUG-CC-PVTZ
    Blend: AUG-CC-PVTZ
  Basis Set: (AUG-CC-PVTZ AUX)
    Blend: AUG-CC-PVTZ-JKFIT

    Orbital Energies [Eh]
    ---------------------

    Doubly Occupied:

       1A    -80.115682     2A    -20.611833     3A    -20.605727
       4A    -20.605718     5A    -20.603958     6A    -20.599557
       7A    -20.598325     8A    -20.559845     9A    -20.515255
      10A    -11.366692    11A    -11.322544    12A    -11.321835
      13A    -11.318869    14A    -11.310587    15A     -7.630634
      16A     -5.529052    17A     -5.528974    18A     -5.527471
      19A     -1.465036    20A     -1.449994    21A     -1.418023
      22A     -1.391661    23A     -1.385776    24A     -1.379144
      25A     -1.372875    26A     -1.296596    27A     -1.086287
      28A     -1.054095    29A     -0.947870    30A     -0.858214
      31A     -0.850681    32A     -0.834304    33A     -0.776262
      34A     -0.767413    35A     -0.747829    36A     -0.734536
      37A     -0.717657    38A     -0.694659    39A     -0.688743
      40A     -0.677455    41A     -0.654366    42A     -0.649713
      43A     -0.632669    44A     -0.616572    45A     -0.600963
      46A     -0.598050    47A     -0.583297    48A     -0.579216
      49A     -0.569331    50A     -0.562603    51A     -0.544255
      52A     -0.533912    53A     -0.529096    54A     -0.509548
      55A     -0.491572    56A     -0.488763    57A     -0.475593
      58A     -0.468949    59A     -0.465178    60A     -0.452031

  @DF-RHF Final Energy: -1135.81249648818971

   => Energetics <=

    Nuclear Repulsion Energy =           1215.5716861185189828
    One-Electron Energy =               -3984.2216776908521751
    Two-Electron Energy =                1632.8374950841437112
    Total Energy =                      -1135.8124964881897085
  Basis Set: (AUG-CC-PVTZ AUX)
    Blend: AUG-CC-PVTZ-RI
    Molecular point group: c1

    Geometry (in Angstrom), charge = 0, multiplicity = 1:

       Center              X                  Y                   Z               Mass
    ------------   -----------------  -----------------  -----------------  -----------------
         P            2.565865158812     0.045165683847    -0.175454664971    30.973761998420
         O           -0.787158841188    -0.514842316153    -0.861588664971    15.994914619570
         O           -3.192705841188     1.754332683847     0.200083335029    15.994914619570
         O           -3.700519441188    -0.470582316153    -0.864748364971    15.994914619570
         O           -0.971811841188    -1.695736316153     1.165126335029    15.994914619570
         O            1.455700158812     1.225125683847    -0.306051664971    15.994914619570
         O            1.695894158812    -1.297632316153    -0.342374664971    15.994914619570
         O            2.913428158812    -0.063487316153     1.405340335029    15.994914619570
         O            3.729780158812     0.286194683847    -1.051082664971    15.994914619570
         C           -2.224253841188     0.771075683847     0.556689335029    12.000000000000
         C           -0.940508841188     0.815285683847    -0.302228664971    12.000000000000
         C           -2.828378841188    -0.604164316153     0.237472335029    12.000000000000
         C           -1.582517841188    -1.407153316153    -0.069254664971    12.000000000000
         C            0.276944158812     1.194220683847     0.522261335029    12.000000000000
         H           -1.983250841188     0.830426683847     1.626057335029     1.007825032230
         H           -1.062530841188     1.497316683847    -1.148651664971     1.007825032230
         H           -3.386914841188    -1.020935316153     1.085030335029     1.007825032230
         H           -1.753380841188    -2.292950316153    -0.688459664971     1.007825032230
         H            0.396049158812     0.498681683847     1.357422335029     1.007825032230
         H            0.151967158812     2.206277683847     0.923626335029     1.007825032230
         H           -2.936579841188     2.606694683847     0.589924335029     1.007825032230
         H           -4.087906841188     0.295879683847    -0.911748664971     1.007825032230
         H           -0.087506841188    -2.072180316153     0.987375335029     1.007825032230
         H            0.861709158812    -1.079955316153    -0.838825664971     1.007825032230
         H            3.801465158812     0.308797683847     1.559334335029     1.007825032230

  Basis Set: AUG-CC-PVTZ
    Blend: AUG-CC-PVTZ
  Basis Set: (AUG-CC-PVTZ AUX)
    Blend: AUG-CC-PVTZ-JKFIT
	 Reference Energy          =   -1135.8124964881897085 [Eh]
	 Singles Energy            =      -0.0000000000000000 [Eh]
	 Same-Spin Energy          =      -0.8145058884232468 [Eh]
	 Opposite-Spin Energy      =      -2.4179176896136134 [Eh]
	 Correlation Energy        =      -3.2324235780368600 [Eh]
	 Total Energy              =   -1139.0449200662264957 [Eh]

	 ================> DF-SCS-MP2 Energies <==================
	-----------------------------------------------------------
	 SCS Same-Spin Scale       =       0.3333333333333333 [-]
	 SCS Opposite-Spin Scale   =       1.2000000000000000 [-]
	 SCS Same-Spin Energy      =      -0.2715019628077489 [Eh]
	 SCS Opposite-Spin Energy  =      -2.9015012275363361 [Eh]
	 SCS Correlation Energy    =      -3.1730031903440850 [Eh]
	 SCS Total Energy          =   -1138.9854996785338699 [Eh]
	-----------------------------------------------------------

  Dipole Moment: [D]
     X:    -3.2180      Y:     2.1684      Z:     3.9547     Total:     5.5405

*** Psi4 exiting successfully. Buy a developer a beer!
