                               Psi4 1.3.2 release

  ==> Input File <==

--------------------------------------------------------------------------
#psi4
#
memory 32 gb

molecule  {
0 1
  P        2.6114510     0.0433530    -0.1897960
  O       -0.7415730    -0.5166550    -0.8759300
  O       -3.1471200     1.7525200     0.1857420
  O       -3.5574290    -0.5524670    -0.9560380
  O       -0.9262260    -1.6975490     1.1507850
  O        1.5012860     1.2233130    -0.3203930
  O        1.7414800    -1.2994450    -0.3567160
  O        2.9590140    -0.0653000     1.3909990
  O        3.7753660     0.2843820    -1.0654240
  C       -2.1786680     0.7692630     0.5423480
  C       -0.8793442     0.8225147    -0.3343730
  C       -2.7827930    -0.6059770     0.2231310
  C       -1.5369320    -1.4089660    -0.0835960
  C        0.3225300     1.1924080     0.5079200
  H       -1.9376650     0.8286140     1.6117160
  H       -1.0169450     1.4955040    -1.1629930
  H       -3.3413290    -1.0227480     1.0706890
  H       -1.7077950    -2.2947630    -0.7028010
  H        0.4416350     0.4968690     1.3430810
  H        0.1975530     2.2044650     0.9092850
  H       -2.8909940     2.6048820     0.5755830
  H       -4.0423210     0.2940670    -0.9260900
  H       -0.0419210    -2.0739930     0.9730340
  H        0.9072950    -1.0817680    -0.8531670
  H        3.8470510     0.3069850     1.5449930
units angstrom
no_reorient  #important for SAPT in psi4, default
symmetry c1  #important for SAPT in psi4, default
}

set PROPERTIES_ORIGIN ["COM"]
properties('MP2/aug-cc-pvtz', properties = ['dipole'])
--------------------------------------------------------------------------

    Molecular point group: c1
  Charge       = 0
  Multiplicity = 1
  Basis Set: AUG-CC-PVTZ
    Blend: AUG-CC-PVTZ
  Basis Set: (AUG-CC-PVTZ AUX)
    Blend: AUG-CC-PVTZ-JKFIT

    Orbital Energies [Eh]
    ---------------------

    Doubly Occupied:

       1A    -80.114802     2A    -20.611194     3A    -20.605763
       4A    -20.604564     5A    -20.602859     6A    -20.598344
       7A    -20.594603     8A    -20.574512     9A    -20.514483
      10A    -11.362270    11A    -11.323796    12A    -11.321214
      13A    -11.317823    14A    -11.306856    15A     -7.629758
      16A     -5.528178    17A     -5.528094    18A     -5.526598
      19A     -1.462662    20A     -1.447793    21A     -1.410864
      22A     -1.390729    23A     -1.378126    24A     -1.373254
      25A     -1.368239    26A     -1.295848    27A     -1.081541
      28A     -1.047422    29A     -0.946082    30A     -0.858378
      31A     -0.842742    32A     -0.828200    33A     -0.771718
      34A     -0.758861    35A     -0.747045    36A     -0.733578
      37A     -0.716626    38A     -0.693479    39A     -0.684679
      40A     -0.667328    41A     -0.653137    42A     -0.647825
      43A     -0.632832    44A     -0.613708    45A     -0.601066
      46A     -0.596199    47A     -0.582057    48A     -0.577039
      49A     -0.570080    50A     -0.560190    51A     -0.543255
      52A     -0.532488    53A     -0.526895    54A     -0.511699
      55A     -0.489946    56A     -0.486324    57A     -0.475832
      58A     -0.469469    59A     -0.465835    60A     -0.448753

  @DF-RHF Final Energy: -1135.82236346799482

   => Energetics <=

    Nuclear Repulsion Energy =           1215.6861301551432462
    One-Electron Energy =               -3984.7059231921689388
    Two-Electron Energy =                1633.1974295690311010
    Total Energy =                      -1135.8223634679948191
  Basis Set: (AUG-CC-PVTZ AUX)
    Blend: AUG-CC-PVTZ-RI
    Molecular point group: c1

    Geometry (in Angstrom), charge = 0, multiplicity = 1:

       Center              X                  Y                   Z               Mass
    ------------   -----------------  -----------------  -----------------  -----------------
         P            2.558272211358     0.050261974227    -0.169175111892    30.973761998420
         O           -0.794751788642    -0.509746025773    -0.855309111892    15.994914619570
         O           -3.200298788642     1.759428974227     0.206362888108    15.994914619570
         O           -3.610607788642    -0.545558025773    -0.935417111892    15.994914619570
         O           -0.979404788642    -1.690640025773     1.171405888108    15.994914619570
         O            1.448107211358     1.230221974227    -0.299772111892    15.994914619570
         O            1.688301211358    -1.292536025773    -0.336095111892    15.994914619570
         O            2.905835211358    -0.058391025773     1.411619888108    15.994914619570
         O            3.722187211358     0.291290974227    -1.044803111892    15.994914619570
         C           -2.231846788642     0.776171974227     0.562968888108    12.000000000000
         C           -0.932522988642     0.829423674227    -0.313752111892    12.000000000000
         C           -2.835971788642    -0.599068025773     0.243751888108    12.000000000000
         C           -1.590110788642    -1.402057025773    -0.062975111892    12.000000000000
         C            0.269351211358     1.199316974227     0.528540888108    12.000000000000
         H           -1.990843788642     0.835522974227     1.632336888108     1.007825032230
         H           -1.070123788642     1.502412974227    -1.142372111892     1.007825032230
         H           -3.394507788642    -1.015839025773     1.091309888108     1.007825032230
         H           -1.760973788642    -2.287854025773    -0.682180111892     1.007825032230
         H            0.388456211358     0.503777974227     1.363701888108     1.007825032230
         H            0.144374211358     2.211373974227     0.929905888108     1.007825032230
         H           -2.944172788642     2.611790974227     0.596203888108     1.007825032230
         H           -4.095499788642     0.300975974227    -0.905469111892     1.007825032230
         H           -0.095099788642    -2.067084025773     0.993654888108     1.007825032230
         H            0.854116211358    -1.074859025773    -0.832546111892     1.007825032230
         H            3.793872211358     0.313893974227     1.565613888108     1.007825032230

  Basis Set: AUG-CC-PVTZ
    Blend: AUG-CC-PVTZ
  Basis Set: (AUG-CC-PVTZ AUX)
    Blend: AUG-CC-PVTZ-JKFIT
	 Reference Energy          =   -1135.8223634679948191 [Eh]
	 Singles Energy            =      -0.0000000000000000 [Eh]
	 Same-Spin Energy          =      -0.8161161004915780 [Eh]
	 Opposite-Spin Energy      =      -2.4216459217792496 [Eh]
	 Correlation Energy        =      -3.2377620222708279 [Eh]
	 Total Energy              =   -1139.0601254902655910 [Eh]

	 ================> DF-SCS-MP2 Energies <==================
	-----------------------------------------------------------
	 SCS Same-Spin Scale       =       0.3333333333333333 [-]
	 SCS Opposite-Spin Scale   =       1.2000000000000000 [-]
	 SCS Same-Spin Energy      =      -0.2720387001638593 [Eh]
	 SCS Opposite-Spin Energy  =      -2.9059751061350996 [Eh]
	 SCS Correlation Energy    =      -3.1780138062989591 [Eh]
	 SCS Total Energy          =   -1139.0003772742936690 [Eh]
	-----------------------------------------------------------

  Dipole Moment: [D]
     X:    -3.4801      Y:     2.3177      Z:     4.0295     Total:     5.8069

*** Psi4 exiting successfully. Buy a developer a beer!
