                               Psi4 1.3.2 release

  ==> Input File <==

--------------------------------------------------------------------------
#psi4
#
memory 32 gb

molecule  {
0 1
  P        2.6114510     0.0433530    -0.1897960
  O       -0.7415730    -0.5166550    -0.8759300
  O       -3.1471200     1.7525200     0.1857420
  O       -3.5574290    -0.5524670    -0.9560380
  O       -0.9258729    -1.7213638     1.1447984
  O        1.5012860     1.2233130    -0.3203930
  O        1.7414800    -1.2994450    -0.3567160
  O        2.9590140    -0.0653000     1.3909990
  O        3.7753660     0.2843820    -1.0654240
  C       -2.1786680     0.7692630     0.5423480
  C       -0.8949230     0.8134730    -0.3165700
  C       -2.7827930    -0.6059770     0.2231310
  C       -1.5369320    -1.4089660    -0.0835960
  C        0.3225300     1.1924080     0.5079200
  H       -1.9376650     0.8286140     1.6117160
  H       -1.0169450     1.4955040    -1.1629930
  H       -3.3413290    -1.0227480     1.0706890
  H       -1.7077950    -2.2947630    -0.7028010
  H        0.4416350     0.4968690     1.3430810
  H        0.1975530     2.2044650     0.9092850
  H       -2.8909940     2.6048820     0.5755830
  H       -4.0423210     0.2940670    -0.9260900
  H       -0.0419210    -2.0739930     0.9730340
  H        0.9072950    -1.0817680    -0.8531670
  H        3.8470510     0.3069850     1.5449930
units angstrom
no_reorient  #important for SAPT in psi4, default
symmetry c1  #important for SAPT in psi4, default
}

set PROPERTIES_ORIGIN ["COM"]
properties('MP2/aug-cc-pvtz', properties = ['dipole'])
--------------------------------------------------------------------------

    Molecular point group: c1
  Charge       = 0
  Multiplicity = 1
  Basis Set: AUG-CC-PVTZ
    Blend: AUG-CC-PVTZ
  Basis Set: (AUG-CC-PVTZ AUX)
    Blend: AUG-CC-PVTZ-JKFIT

    Orbital Energies [Eh]
    ---------------------

    Doubly Occupied:

       1A    -80.115135     2A    -20.611368     3A    -20.606555
       4A    -20.605423     5A    -20.604123     6A    -20.598620
       7A    -20.593397     8A    -20.575152     9A    -20.514760
      10A    -11.362234    11A    -11.323702    12A    -11.321796
      13A    -11.318602    14A    -11.307677    15A     -7.630087
      16A     -5.528508    17A     -5.528424    18A     -5.526924
      19A     -1.463363    20A     -1.448476    21A     -1.411830
      22A     -1.391010    23A     -1.378375    24A     -1.374465
      25A     -1.369563    26A     -1.296098    27A     -1.084602
      28A     -1.047551    29A     -0.947338    30A     -0.858314
      31A     -0.842142    32A     -0.829765    33A     -0.772337
      34A     -0.760423    35A     -0.748155    36A     -0.734607
      37A     -0.717000    38A     -0.693178    39A     -0.685048
      40A     -0.667134    41A     -0.653303    42A     -0.647810
      43A     -0.633154    44A     -0.613907    45A     -0.601575
      46A     -0.596598    47A     -0.582182    48A     -0.577863
      49A     -0.570254    50A     -0.560500    51A     -0.543607
      52A     -0.531958    53A     -0.527344    54A     -0.512596
      55A     -0.489609    56A     -0.488268    57A     -0.475388
      58A     -0.469478    59A     -0.466080    60A     -0.450823

  @DF-RHF Final Energy: -1135.82341943069173

   => Energetics <=

    Nuclear Repulsion Energy =           1215.5550194415623082
    One-Electron Energy =               -3984.3857658545539380
    Two-Electron Energy =                1633.0073269822999009
    Total Energy =                      -1135.8234194306917288
  Basis Set: (AUG-CC-PVTZ AUX)
    Blend: AUG-CC-PVTZ-RI
    Molecular point group: c1

    Geometry (in Angstrom), charge = 0, multiplicity = 1:

       Center              X                  Y                   Z               Mass
    ------------   -----------------  -----------------  -----------------  -----------------
         P            2.559060397004     0.052389693087    -0.169687594622    30.973761998420
         O           -0.793963602996    -0.507618306913    -0.855821594622    15.994914619570
         O           -3.199510602996     1.761556693087     0.205850405378    15.994914619570
         O           -3.609819602996    -0.543430306913    -0.935929594622    15.994914619570
         O           -0.978263502996    -1.712327106913     1.164906805378    15.994914619570
         O            1.448895397004     1.232349693087    -0.300284594622    15.994914619570
         O            1.689089397004    -1.290408306913    -0.336607594622    15.994914619570
         O            2.906623397004    -0.056263306913     1.411107405378    15.994914619570
         O            3.722975397004     0.293418693087    -1.045315594622    15.994914619570
         C           -2.231058602996     0.778299693087     0.562456405378    12.000000000000
         C           -0.947313602996     0.822509693087    -0.296461594622    12.000000000000
         C           -2.835183602996    -0.596940306913     0.243239405378    12.000000000000
         C           -1.589322602996    -1.399929306913    -0.063487594622    12.000000000000
         C            0.270139397004     1.201444693087     0.528028405378    12.000000000000
         H           -1.990055602996     0.837650693087     1.631824405378     1.007825032230
         H           -1.069335602996     1.504540693087    -1.142884594622     1.007825032230
         H           -3.393719602996    -1.013711306913     1.090797405378     1.007825032230
         H           -1.760185602996    -2.285726306913    -0.682692594622     1.007825032230
         H            0.389244397004     0.505905693087     1.363189405378     1.007825032230
         H            0.145162397004     2.213501693087     0.929393405378     1.007825032230
         H           -2.943384602996     2.613918693087     0.595691405378     1.007825032230
         H           -4.094711602996     0.303103693087    -0.905981594622     1.007825032230
         H           -0.094311602996    -2.064956306913     0.993142405378     1.007825032230
         H            0.854904397004    -1.072731306913    -0.833058594622     1.007825032230
         H            3.794660397004     0.316021693087     1.565101405378     1.007825032230

  Basis Set: AUG-CC-PVTZ
    Blend: AUG-CC-PVTZ
  Basis Set: (AUG-CC-PVTZ AUX)
    Blend: AUG-CC-PVTZ-JKFIT
	 Reference Energy          =   -1135.8234194306917288 [Eh]
	 Singles Energy            =      -0.0000000000000000 [Eh]
	 Same-Spin Energy          =      -0.8160484000967989 [Eh]
	 Opposite-Spin Energy      =      -2.4213948708085948 [Eh]
	 Correlation Energy        =      -3.2374432709053940 [Eh]
	 Total Energy              =   -1139.0608627015972161 [Eh]

	 ================> DF-SCS-MP2 Energies <==================
	-----------------------------------------------------------
	 SCS Same-Spin Scale       =       0.3333333333333333 [-]
	 SCS Opposite-Spin Scale   =       1.2000000000000000 [-]
	 SCS Same-Spin Energy      =      -0.2720161333655996 [Eh]
	 SCS Opposite-Spin Energy  =      -2.9056738449703139 [Eh]
	 SCS Correlation Energy    =      -3.1776899783359136 [Eh]
	 SCS Total Energy          =   -1139.0011094090275492 [Eh]
	-----------------------------------------------------------

  Dipole Moment: [D]
     X:    -3.4779      Y:     2.3609      Z:     4.0313     Total:     5.8241

*** Psi4 exiting successfully. Buy a developer a beer!
