                               Psi4 1.4a3.dev225

  ==> Input File <==

--------------------------------------------------------------------------
#psi4
#
memory 32 gb

molecule  {
0 1
  P        2.6113660     0.0433910    -0.1897900
  O       -0.7416560    -0.5164190    -0.8762010
  O       -3.1473860     1.7523070     0.1855430
  O       -3.5574330    -0.5529450    -0.9556820
  O       -0.9255690    -1.6972900     1.1506350
  O        1.5012550     1.2233910    -0.3202530
  O        1.7411940    -1.2993510    -0.3564950
  O        2.9591660    -0.0655390     1.3909200
  O        3.7751240     0.2843830    -1.0656400
  C       -2.1787050     0.7693270     0.5422590
  C       -0.8949630     0.8136090    -0.3166340
  C       -2.7551448    -0.6080156     0.2650784
  C       -1.5366410    -1.4089160    -0.0835620
  C        0.3224410     1.1924200     0.5080110
  H       -1.9377070     0.8289040     1.6116220
  H       -1.0168440     1.4957790    -1.1629650
  H       -3.3408870    -1.0228010     1.0710960
  H       -1.7074320    -2.2947510    -0.7027390
  H        0.4414920     0.4968360     1.3431340
  H        0.1974400     2.2044510     0.9094280
  H       -2.8916000     2.6047160     0.5754970
  H       -4.0429610     0.2932130    -0.9254450
  H       -0.0410590    -2.0731950     0.9726900
  H        0.9073710    -1.0816890    -0.8535130
  H        3.8468470     0.3075270     1.5450430
units angstrom
no_reorient  #important for SAPT in psi4, default
symmetry c1  #important for SAPT in psi4, default
}

set PROPERTIES_ORIGIN ["COM"]
properties('MP2/aug-cc-pvtz', properties = ['dipole'])
--------------------------------------------------------------------------

    Molecular point group: c1
  Charge       = 0
  Multiplicity = 1
  Basis Set: AUG-CC-PVTZ
    Blend: AUG-CC-PVTZ
  Basis Set: (AUG-CC-PVTZ AUX)
    Blend: AUG-CC-PVTZ-JKFIT

    Orbital Energies [Eh]
    ---------------------

    Doubly Occupied:

       1A    -80.115391     2A    -20.611596     3A    -20.606882
       4A    -20.605635     5A    -20.604571     6A    -20.598995
       7A    -20.595186     8A    -20.569747     9A    -20.514977
      10A    -11.363590    11A    -11.324593    12A    -11.321920
      13A    -11.319288    14A    -11.306912    15A     -7.630341
      16A     -5.528761    17A     -5.528680    18A     -5.527177
      19A     -1.463930    20A     -1.448799    21A     -1.410035
      22A     -1.391164    23A     -1.378692    24A     -1.371850
      25A     -1.354706    26A     -1.296310    27A     -1.087659
      28A     -1.051346    29A     -0.948293    30A     -0.859589
      31A     -0.842515    32A     -0.830568    33A     -0.772524
      34A     -0.756248    35A     -0.749188    36A     -0.735209
      37A     -0.717294    38A     -0.693573    39A     -0.682997
      40A     -0.662769    41A     -0.653213    42A     -0.647692
      43A     -0.633072    44A     -0.613266    45A     -0.601492
      46A     -0.591999    47A     -0.581247    48A     -0.577108
      49A     -0.568380    50A     -0.556658    51A     -0.543426
      52A     -0.532425    53A     -0.526834    54A     -0.512110
      55A     -0.494093    56A     -0.488877    57A     -0.476240
      58A     -0.471373    59A     -0.467349    60A     -0.452989

  @DF-RHF Final Energy: -1135.81934858482600

   => Energetics <=

    Nuclear Repulsion Energy =           1216.0111864036646239
    One-Electron Energy =               -3985.3223890402609868
    Two-Electron Energy =                1633.4918540517701331
    Total Energy =                      -1135.8193485848260025
  Basis Set: (AUG-CC-PVTZ AUX)
    Blend: AUG-CC-PVTZ-RI
    Molecular point group: c1

    Geometry (in Angstrom), charge = 0, multiplicity = 1:

       Center              X                  Y                   Z               Mass
    ------------   -----------------  -----------------  -----------------  -----------------
         P            2.557569222367     0.050873623888    -0.172274112887    30.973761998420
         O           -0.795452777633    -0.508936376112    -0.858685112887    15.994914619570
         O           -3.201182777633     1.759789623888     0.203058887113    15.994914619570
         O           -3.611229777633    -0.545462376112    -0.938166112887    15.994914619570
         O           -0.979365777633    -1.689807376112     1.168150887113    15.994914619570
         O            1.447458222367     1.230873623888    -0.302737112887    15.994914619570
         O            1.687397222367    -1.291868376112    -0.338979112887    15.994914619570
         O            2.905369222367    -0.058056376112     1.408435887113    15.994914619570
         O            3.721327222367     0.291865623888    -1.048124112887    15.994914619570
         C           -2.232501777633     0.776809623888     0.559774887113    12.000000000000
         C           -0.948759777633     0.821091623888    -0.299118112887    12.000000000000
         C           -2.808941577633    -0.600532976112     0.282594287113    12.000000000000
         C           -1.590437777633    -1.401433376112    -0.066046112887    12.000000000000
         C            0.268644222367     1.199902623888     0.525526887113    12.000000000000
         H           -1.991503777633     0.836386623888     1.629137887113     1.007825032230
         H           -1.070640777633     1.503261623888    -1.145449112887     1.007825032230
         H           -3.394683777633    -1.015318376112     1.088611887113     1.007825032230
         H           -1.761228777633    -2.287268376112    -0.685223112887     1.007825032230
         H            0.387695222367     0.504318623888     1.360649887113     1.007825032230
         H            0.143643222367     2.211933623888     0.926943887113     1.007825032230
         H           -2.945396777633     2.612198623888     0.593012887113     1.007825032230
         H           -4.096757777633     0.300695623888    -0.907929112887     1.007825032230
         H           -0.094855777633    -2.065712376112     0.990205887113     1.007825032230
         H            0.853574222367    -1.074206376112    -0.835997112887     1.007825032230
         H            3.793050222367     0.315009623888     1.562558887113     1.007825032230

  Basis Set: AUG-CC-PVTZ
    Blend: AUG-CC-PVTZ
  Basis Set: (AUG-CC-PVTZ AUX)
    Blend: AUG-CC-PVTZ-JKFIT
	 Reference Energy          =   -1135.8193485848260025 [Eh]
	 Singles Energy            =      -0.0000000000000000 [Eh]
	 Same-Spin Energy          =      -0.8164478894705832 [Eh]
	 Opposite-Spin Energy      =      -2.4227475813774659 [Eh]
	 Correlation Energy        =      -3.2391954708480490 [Eh]
	 Total Energy              =   -1139.0585440556740195 [Eh]

	 ================> DF-SCS-MP2 Energies <==================
	-----------------------------------------------------------
	 SCS Same-Spin Scale       =       0.3333333333333333 [-]
	 SCS Opposite-Spin Scale   =       1.2000000000000000 [-]
	 SCS Same-Spin Energy      =      -0.2721492964901944 [Eh]
	 SCS Opposite-Spin Energy  =      -2.9072970976529589 [Eh]
	 SCS Correlation Energy    =      -3.1794463941431532 [Eh]
	 SCS Total Energy          =   -1138.9987949789690447 [Eh]
	-----------------------------------------------------------

  Dipole Moment: [D]
     X:    -3.3677      Y:     2.2850      Z:     4.1503     Total:     5.8128

*** Psi4 exiting successfully. Buy a developer a beer!
