                               Psi4 1.4a3.dev225

  ==> Input File <==

--------------------------------------------------------------------------
#psi4
#
memory 32 gb

molecule  {
0 1
  P        2.6113660     0.0433910    -0.1897900
  O       -0.7416560    -0.5164190    -0.8762010
  O       -3.1473860     1.7523070     0.1855430
  O       -3.5574330    -0.5529450    -0.9556820
  O       -0.9255690    -1.6972900     1.1506350
  O        1.5012550     1.2233910    -0.3202530
  O        1.7411940    -1.2993510    -0.3564950
  O        2.9591660    -0.0655390     1.3909200
  O        3.7751240     0.2843830    -1.0656400
  C       -2.1787050     0.7693270     0.5422590
  C       -0.8949630     0.8136090    -0.3166340
  C       -2.7825860    -0.6061320     0.2233240
  C       -1.4954830    -1.4354348    -0.0936995
  C        0.3224410     1.1924200     0.5080110
  H       -1.9377070     0.8289040     1.6116220
  H       -1.0168440     1.4957790    -1.1629650
  H       -3.3408870    -1.0228010     1.0710960
  H       -1.7074320    -2.2947510    -0.7027390
  H        0.4414920     0.4968360     1.3431340
  H        0.1974400     2.2044510     0.9094280
  H       -2.8916000     2.6047160     0.5754970
  H       -4.0429610     0.2932130    -0.9254450
  H       -0.0410590    -2.0731950     0.9726900
  H        0.9073710    -1.0816890    -0.8535130
  H        3.8468470     0.3075270     1.5450430
units angstrom
no_reorient  #important for SAPT in psi4, default
symmetry c1  #important for SAPT in psi4, default
}

set PROPERTIES_ORIGIN ["COM"]
properties('MP2/aug-cc-pvtz', properties = ['dipole'])
--------------------------------------------------------------------------

    Molecular point group: c1
  Charge       = 0
  Multiplicity = 1
  Basis Set: AUG-CC-PVTZ
    Blend: AUG-CC-PVTZ
  Basis Set: (AUG-CC-PVTZ AUX)
    Blend: AUG-CC-PVTZ-JKFIT

    Orbital Energies [Eh]
    ---------------------

    Doubly Occupied:

       1A    -80.115478     2A    -20.611656     3A    -20.605449
       4A    -20.605231     5A    -20.603875     6A    -20.599320
       7A    -20.597872     8A    -20.572593     9A    -20.515044
      10A    -11.361199    11A    -11.321792    12A    -11.321625
      13A    -11.318752    14A    -11.306410    15A     -7.630427
      16A     -5.528844    17A     -5.528769    18A     -5.527264
      19A     -1.465271    20A     -1.449780    21A     -1.411072
      22A     -1.391500    23A     -1.379057    24A     -1.375966
      25A     -1.368586    26A     -1.296381    27A     -1.083508
      28A     -1.038945    29A     -0.946001    30A     -0.857787
      31A     -0.840984    32A     -0.830511    33A     -0.772203
      34A     -0.759587    35A     -0.747833    36A     -0.732531
      37A     -0.717244    38A     -0.693957    39A     -0.684846
      40A     -0.670301    41A     -0.654283    42A     -0.648451
      43A     -0.633047    44A     -0.617771    45A     -0.601266
      46A     -0.595176    47A     -0.582109    48A     -0.576898
      49A     -0.569739    50A     -0.557160    51A     -0.544236
      52A     -0.533982    53A     -0.527609    54A     -0.510565
      55A     -0.491979    56A     -0.485490    57A     -0.474660
      58A     -0.468007    59A     -0.461411    60A     -0.449246

  @DF-RHF Final Energy: -1135.82053566712830

   => Energetics <=

    Nuclear Repulsion Energy =           1215.6896084202710426
    One-Electron Energy =               -3984.6832218256131455
    Two-Electron Energy =                1633.1730777382140332
    Total Energy =                      -1135.8205356671282971
  Basis Set: (AUG-CC-PVTZ AUX)
    Blend: AUG-CC-PVTZ-RI
    Molecular point group: c1

    Geometry (in Angstrom), charge = 0, multiplicity = 1:

       Center              X                  Y                   Z               Mass
    ------------   -----------------  -----------------  -----------------  -----------------
         P            2.556853622831     0.052158831639    -0.169566934861    30.973761998420
         O           -0.796168377169    -0.507651168361    -0.855977934861    15.994914619570
         O           -3.201898377169     1.761074831639     0.205766065139    15.994914619570
         O           -3.611945377169    -0.544177168361    -0.935458934861    15.994914619570
         O           -0.980081377169    -1.688522168361     1.170858065139    15.994914619570
         O            1.446742622831     1.232158831639    -0.300029934861    15.994914619570
         O            1.686681622831    -1.290583168361    -0.336271934861    15.994914619570
         O            2.904653622831    -0.056771168361     1.411143065139    15.994914619570
         O            3.720611622831     0.293150831639    -1.045416934861    15.994914619570
         C           -2.233217377169     0.778094831639     0.562482065139    12.000000000000
         C           -0.949475377169     0.822376831639    -0.296410934861    12.000000000000
         C           -2.837098377169    -0.597364168361     0.243547065139    12.000000000000
         C           -1.549995377169    -1.426666968361    -0.073476434861    12.000000000000
         C            0.267928622831     1.201187831639     0.528234065139    12.000000000000
         H           -1.992219377169     0.837671831639     1.631845065139     1.007825032230
         H           -1.071356377169     1.504546831639    -1.142741934861     1.007825032230
         H           -3.395399377169    -1.014033168361     1.091319065139     1.007825032230
         H           -1.761944377169    -2.285983168361    -0.682515934861     1.007825032230
         H            0.386979622831     0.505603831639     1.363357065139     1.007825032230
         H            0.142927622831     2.213218831639     0.929651065139     1.007825032230
         H           -2.946112377169     2.613483831639     0.595720065139     1.007825032230
         H           -4.097473377169     0.301980831639    -0.905221934861     1.007825032230
         H           -0.095571377169    -2.064427168361     0.992913065139     1.007825032230
         H            0.852858622831    -1.072921168361    -0.833289934861     1.007825032230
         H            3.792334622831     0.316294831639     1.565266065139     1.007825032230

  Basis Set: AUG-CC-PVTZ
    Blend: AUG-CC-PVTZ
  Basis Set: (AUG-CC-PVTZ AUX)
    Blend: AUG-CC-PVTZ-JKFIT
	 Reference Energy          =   -1135.8205356671282971 [Eh]
	 Singles Energy            =      -0.0000000000000000 [Eh]
	 Same-Spin Energy          =      -0.8161715667694255 [Eh]
	 Opposite-Spin Energy      =      -2.4216734177647536 [Eh]
	 Correlation Energy        =      -3.2378449845341790 [Eh]
	 Total Energy              =   -1139.0583806516624463 [Eh]

	 ================> DF-SCS-MP2 Energies <==================
	-----------------------------------------------------------
	 SCS Same-Spin Scale       =       0.3333333333333333 [-]
	 SCS Opposite-Spin Scale   =       1.2000000000000000 [-]
	 SCS Same-Spin Energy      =      -0.2720571889231418 [Eh]
	 SCS Opposite-Spin Energy  =      -2.9060081013177044 [Eh]
	 SCS Correlation Energy    =      -3.1780652902408462 [Eh]
	 SCS Total Energy          =   -1138.9986009573690353 [Eh]
	-----------------------------------------------------------

  Dipole Moment: [D]
     X:    -3.3563      Y:     2.2425      Z:     4.0398     Total:     5.7108

*** Psi4 exiting successfully. Buy a developer a beer!
