                               Psi4 1.3.2 release

  ==> Input File <==

--------------------------------------------------------------------------
#psi4
#
memory 32 gb

molecule  {
0 1
  P        2.6114510     0.0433530    -0.1897960
  O       -0.7415730    -0.5166550    -0.8759300
  O       -3.1471200     1.7525200     0.1857420
  O       -3.5574290    -0.5524670    -0.9560380
  O       -0.9262260    -1.6975490     1.1507850
  O        1.4728635     1.2103028    -0.3597988
  O        1.7414800    -1.2994450    -0.3567160
  O        2.9590140    -0.0653000     1.3909990
  O        3.7753660     0.2843820    -1.0654240
  C       -2.1786680     0.7692630     0.5423480
  C       -0.8949230     0.8134730    -0.3165700
  C       -2.7827930    -0.6059770     0.2231310
  C       -1.5369320    -1.4089660    -0.0835960
  C        0.3225300     1.1924080     0.5079200
  H       -1.9376650     0.8286140     1.6117160
  H       -1.0169450     1.4955040    -1.1629930
  H       -3.3413290    -1.0227480     1.0706890
  H       -1.7077950    -2.2947630    -0.7028010
  H        0.4416350     0.4968690     1.3430810
  H        0.1975530     2.2044650     0.9092850
  H       -2.8909940     2.6048820     0.5755830
  H       -4.0423210     0.2940670    -0.9260900
  H       -0.0419210    -2.0739930     0.9730340
  H        0.9072950    -1.0817680    -0.8531670
  H        3.8470510     0.3069850     1.5449930
units angstrom
no_reorient  #important for SAPT in psi4, default
symmetry c1  #important for SAPT in psi4, default
}

set PROPERTIES_ORIGIN ["COM"]
properties('MP2/aug-cc-pvtz', properties = ['dipole'])
--------------------------------------------------------------------------

    Molecular point group: c1
  Charge       = 0
  Multiplicity = 1
  Basis Set: AUG-CC-PVTZ
    Blend: AUG-CC-PVTZ
  Basis Set: (AUG-CC-PVTZ AUX)
    Blend: AUG-CC-PVTZ-JKFIT

    Orbital Energies [Eh]
    ---------------------

    Doubly Occupied:

       1A    -80.116838     2A    -20.614643     3A    -20.605433
       4A    -20.605157     5A    -20.602586     6A    -20.597606
       7A    -20.594374     8A    -20.574193     9A    -20.515711
      10A    -11.361513    11A    -11.322090    12A    -11.320389
      13A    -11.316670    14A    -11.306442    15A     -7.631556
      16A     -5.529926    17A     -5.529904    18A     -5.528401
      19A     -1.462401    20A     -1.447436    21A     -1.410672
      22A     -1.391749    23A     -1.377082    24A     -1.372927
      25A     -1.367897    26A     -1.296923    27A     -1.082967
      28A     -1.045855    29A     -0.945086    30A     -0.856802
      31A     -0.842269    32A     -0.829082    33A     -0.770828
      34A     -0.758607    35A     -0.746366    36A     -0.733789
      37A     -0.717462    38A     -0.693209    39A     -0.683346
      40A     -0.667027    41A     -0.654701    42A     -0.646148
      43A     -0.631607    44A     -0.613027    45A     -0.600591
      46A     -0.594962    47A     -0.582425    48A     -0.577581
      49A     -0.569156    50A     -0.560234    51A     -0.544579
      52A     -0.531189    53A     -0.526076    54A     -0.511176
      55A     -0.489651    56A     -0.487169    57A     -0.476257
      58A     -0.469620    59A     -0.465955    60A     -0.448924

  @DF-RHF Final Energy: -1135.82089589205680

   => Energetics <=

    Nuclear Repulsion Energy =           1215.9309299538670075
    One-Electron Energy =               -3985.1951686120482918
    Two-Electron Energy =                1633.4433427661242604
    Total Energy =                      -1135.8208958920567966
  Basis Set: (AUG-CC-PVTZ AUX)
    Blend: AUG-CC-PVTZ-RI
    Molecular point group: c1

    Geometry (in Angstrom), charge = 0, multiplicity = 1:

       Center              X                  Y                   Z               Mass
    ------------   -----------------  -----------------  -----------------  -----------------
         P            2.561061374994     0.051638370202    -0.167363713151    30.973761998420
         O           -0.791962625006    -0.508369629798    -0.853497713151    15.994914619570
         O           -3.197509625006     1.760805370202     0.208174286849    15.994914619570
         O           -3.607818625006    -0.544181629798    -0.933605713151    15.994914619570
         O           -0.976615625006    -1.689263629798     1.173217286849    15.994914619570
         O            1.422473874994     1.218588170202    -0.337366513151    15.994914619570
         O            1.691090374994    -1.291159629798    -0.334283713151    15.994914619570
         O            2.908624374994    -0.057014629798     1.413431286849    15.994914619570
         O            3.724976374994     0.292667370202    -1.042991713151    15.994914619570
         C           -2.229057625006     0.777548370202     0.564780286849    12.000000000000
         C           -0.945312625006     0.821758370202    -0.294137713151    12.000000000000
         C           -2.833182625006    -0.597691629798     0.245563286849    12.000000000000
         C           -1.587321625006    -1.400680629798    -0.061163713151    12.000000000000
         C            0.272140374994     1.200693370202     0.530352286849    12.000000000000
         H           -1.988054625006     0.836899370202     1.634148286849     1.007825032230
         H           -1.067334625006     1.503789370202    -1.140560713151     1.007825032230
         H           -3.391718625006    -1.014462629798     1.093121286849     1.007825032230
         H           -1.758184625006    -2.286477629798    -0.680368713151     1.007825032230
         H            0.391245374994     0.505154370202     1.365513286849     1.007825032230
         H            0.147163374994     2.212750370202     0.931717286849     1.007825032230
         H           -2.941383625006     2.613167370202     0.598015286849     1.007825032230
         H           -4.092710625006     0.302352370202    -0.903657713151     1.007825032230
         H           -0.092310625006    -2.065707629798     0.995466286849     1.007825032230
         H            0.856905374994    -1.073482629798    -0.830734713151     1.007825032230
         H            3.796661374994     0.315270370202     1.567425286849     1.007825032230

  Basis Set: AUG-CC-PVTZ
    Blend: AUG-CC-PVTZ
  Basis Set: (AUG-CC-PVTZ AUX)
    Blend: AUG-CC-PVTZ-JKFIT
	 Reference Energy          =   -1135.8208958920567966 [Eh]
	 Singles Energy            =      -0.0000000000000000 [Eh]
	 Same-Spin Energy          =      -0.8165258785740386 [Eh]
	 Opposite-Spin Energy      =      -2.4225061741261102 [Eh]
	 Correlation Energy        =      -3.2390320527001490 [Eh]
	 Total Energy              =   -1139.0599279447569643 [Eh]

	 ================> DF-SCS-MP2 Energies <==================
	-----------------------------------------------------------
	 SCS Same-Spin Scale       =       0.3333333333333333 [-]
	 SCS Opposite-Spin Scale   =       1.2000000000000000 [-]
	 SCS Same-Spin Energy      =      -0.2721752928580128 [Eh]
	 SCS Opposite-Spin Energy  =      -2.9070074089513320 [Eh]
	 SCS Correlation Energy    =      -3.1791827018093448 [Eh]
	 SCS Total Energy          =   -1139.0000785938661920 [Eh]
	-----------------------------------------------------------

  Dipole Moment: [D]
     X:    -3.3408      Y:     2.3039      Z:     4.1090     Total:     5.7752

*** Psi4 exiting successfully. Buy a developer a beer!
