                               Psi4 1.3.2 release

  ==> Input File <==

--------------------------------------------------------------------------
#psi4
#
memory 32 gb

molecule  {
0 1
  P        2.6114510     0.0433530    -0.1897960
  O       -0.7415730    -0.5166550    -0.8759300
  O       -3.1471200     1.7525200     0.1857420
  O       -3.5574290    -0.5524670    -0.9560380
  O       -0.9262260    -1.6975490     1.1507850
  O        1.5012860     1.2233130    -0.3203930
  O        1.7414800    -1.2994450    -0.3567160
  O        2.9590140    -0.0653000     1.3909990
  O        3.7753660     0.2843820    -1.0654240
  C       -2.1786680     0.7692630     0.5423480
  C       -0.8949230     0.8134730    -0.3165700
  C       -2.7827930    -0.6059770     0.2231310
  C       -1.5369320    -1.4089660    -0.0835960
  C        0.1621710     1.1424959     0.3993208
  H       -1.9376650     0.8286140     1.6117160
  H       -1.0169450     1.4955040    -1.1629930
  H       -3.3413290    -1.0227480     1.0706890
  H       -1.7077950    -2.2947630    -0.7028010
  H        0.4416350     0.4968690     1.3430810
  H        0.1975530     2.2044650     0.9092850
  H       -2.8909940     2.6048820     0.5755830
  H       -4.0423210     0.2940670    -0.9260900
  H       -0.0419210    -2.0739930     0.9730340
  H        0.9072950    -1.0817680    -0.8531670
  H        3.8470510     0.3069850     1.5449930
units angstrom
no_reorient  #important for SAPT in psi4, default
symmetry c1  #important for SAPT in psi4, default
}

set PROPERTIES_ORIGIN ["COM"]
properties('MP2/aug-cc-pvtz', properties = ['dipole'])
--------------------------------------------------------------------------

    Molecular point group: c1
  Charge       = 0
  Multiplicity = 1
  Basis Set: AUG-CC-PVTZ
    Blend: AUG-CC-PVTZ
  Basis Set: (AUG-CC-PVTZ AUX)
    Blend: AUG-CC-PVTZ-JKFIT

    Orbital Energies [Eh]
    ---------------------

    Doubly Occupied:

       1A    -80.109242     2A    -20.610969     3A    -20.607202
       4A    -20.606264     5A    -20.595489     6A    -20.594893
       7A    -20.594726     8A    -20.578148     9A    -20.510370
      10A    -11.364995    11A    -11.331552    12A    -11.331147
      13A    -11.312807    14A    -11.311501    15A     -7.624109
      16A     -5.522558    17A     -5.522463    18A     -5.520942
      19A     -1.465170    20A     -1.441651    21A     -1.415761
      22A     -1.382167    23A     -1.376852    24A     -1.372875
      25A     -1.362524    26A     -1.290845    27A     -1.126003
      28A     -1.060406    29A     -0.942708    30A     -0.858237
      31A     -0.844865    32A     -0.825563    33A     -0.775543
      34A     -0.761937    35A     -0.755265    36A     -0.732072
      37A     -0.716288    38A     -0.692570    39A     -0.682858
      40A     -0.666054    41A     -0.651302    42A     -0.645608
      43A     -0.637746    44A     -0.611597    45A     -0.606815
      46A     -0.595709    47A     -0.580504    48A     -0.572358
      49A     -0.564400    50A     -0.562467    51A     -0.536820
      52A     -0.528272    53A     -0.522736    54A     -0.506779
      55A     -0.495069    56A     -0.486907    57A     -0.477213
      58A     -0.466526    59A     -0.461633    60A     -0.456846

  @DF-RHF Final Energy: -1135.77056136099418

   => Energetics <=

    Nuclear Repulsion Energy =           1218.1754756327695759
    One-Electron Energy =               -3989.5622779824170721
    Two-Electron Energy =                1635.6162409886533169
    Total Energy =                      -1135.7705613609941793
  Basis Set: (AUG-CC-PVTZ AUX)
    Blend: AUG-CC-PVTZ-RI
    Molecular point group: c1

    Geometry (in Angstrom), charge = 0, multiplicity = 1:

       Center              X                  Y                   Z               Mass
    ------------   -----------------  -----------------  -----------------  -----------------
         P            2.567450810447     0.053337568528    -0.164438313328    30.973761998420
         O           -0.785573189553    -0.506670431472    -0.850572313328    15.994914619570
         O           -3.191120189553     1.762504568528     0.211099686672    15.994914619570
         O           -3.601429189553    -0.542482431472    -0.930680313328    15.994914619570
         O           -0.970226189553    -1.687564431472     1.176142686672    15.994914619570
         O            1.457285810447     1.233297568528    -0.295035313328    15.994914619570
         O            1.697479810447    -1.289460431472    -0.331358313328    15.994914619570
         O            2.915013810447    -0.055315431472     1.416356686672    15.994914619570
         O            3.731365810447     0.294366568528    -1.040066313328    15.994914619570
         C           -2.222668189553     0.779247568528     0.567705686672    12.000000000000
         C           -0.938923189553     0.823457568528    -0.291212313328    12.000000000000
         C           -2.826793189553    -0.595992431472     0.248488686672    12.000000000000
         C           -1.580932189553    -1.398981431472    -0.058238313328    12.000000000000
         C            0.118170810447     1.152480468528     0.424678486672    12.000000000000
         H           -1.981665189553     0.838598568528     1.637073686672     1.007825032230
         H           -1.060945189553     1.505488568528    -1.137635313328     1.007825032230
         H           -3.385329189553    -1.012763431472     1.096046686672     1.007825032230
         H           -1.751795189553    -2.284778431472    -0.677443313328     1.007825032230
         H            0.397634810447     0.506853568528     1.368438686672     1.007825032230
         H            0.153552810447     2.214449568528     0.934642686672     1.007825032230
         H           -2.934994189553     2.614866568528     0.600940686672     1.007825032230
         H           -4.086321189553     0.304051568528    -0.900732313328     1.007825032230
         H           -0.085921189553    -2.064008431472     0.998391686672     1.007825032230
         H            0.863294810447    -1.071783431472    -0.827809313328     1.007825032230
         H            3.803050810447     0.316969568528     1.570350686672     1.007825032230

  Basis Set: AUG-CC-PVTZ
    Blend: AUG-CC-PVTZ
  Basis Set: (AUG-CC-PVTZ AUX)
    Blend: AUG-CC-PVTZ-JKFIT
	 Reference Energy          =   -1135.7705613609941793 [Eh]
	 Singles Energy            =      -0.0000000000000000 [Eh]
	 Same-Spin Energy          =      -0.8198396936553555 [Eh]
	 Opposite-Spin Energy      =      -2.4269411677290433 [Eh]
	 Correlation Energy        =      -3.2467808613843987 [Eh]
	 Total Energy              =   -1139.0173422223786019 [Eh]

	 ================> DF-SCS-MP2 Energies <==================
	-----------------------------------------------------------
	 SCS Same-Spin Scale       =       0.3333333333333333 [-]
	 SCS Opposite-Spin Scale   =       1.2000000000000000 [-]
	 SCS Same-Spin Energy      =      -0.2732798978851185 [Eh]
	 SCS Opposite-Spin Energy  =      -2.9123294012748517 [Eh]
	 SCS Correlation Energy    =      -3.1856092991599700 [Eh]
	 SCS Total Energy          =   -1138.9561706601541573 [Eh]
	-----------------------------------------------------------

  Dipole Moment: [D]
     X:    -4.0327      Y:     2.2746      Z:     4.0500     Total:     6.1513

*** Psi4 exiting successfully. Buy a developer a beer!
