                               Psi4 1.4a3.dev225

  ==> Input File <==

--------------------------------------------------------------------------
#psi4
#
memory 32 gb

molecule  {
0 1
  P        2.6113660     0.0433910    -0.1897900
  O       -0.7416560    -0.5164190    -0.8762010
  O       -3.1473860     1.7523070     0.1855430
  O       -3.5574330    -0.5529450    -0.9556820
  O       -0.9255690    -1.6972900     1.1506350
  O        1.5012550     1.2233910    -0.3202530
  O        1.7411940    -1.2993510    -0.3564950
  O        2.9591660    -0.0655390     1.3909200
  O        3.7751240     0.2843830    -1.0656400
  C       -2.1787050     0.7693270     0.5422590
  C       -0.8949630     0.8136090    -0.3166340
  C       -2.7825860    -0.6061320     0.2233240
  C       -1.5366410    -1.4089160    -0.0835620
  C        0.3224410     1.1924200     0.5080110
  H       -1.9377070     0.8289040     1.6116220
  H       -1.0168440     1.4957790    -1.1629650
  H       -3.3408870    -1.0228010     1.0710960
  H       -1.6996276    -2.2542720    -0.6744452
  H        0.4414920     0.4968360     1.3431340
  H        0.1974400     2.2044510     0.9094280
  H       -2.8916000     2.6047160     0.5754970
  H       -4.0429610     0.2932130    -0.9254450
  H       -0.0410590    -2.0731950     0.9726900
  H        0.9073710    -1.0816890    -0.8535130
  H        3.8468470     0.3075270     1.5450430
units angstrom
no_reorient  #important for SAPT in psi4, default
symmetry c1  #important for SAPT in psi4, default
}

set PROPERTIES_ORIGIN ["COM"]
properties('MP2/aug-cc-pvtz', properties = ['dipole'])
--------------------------------------------------------------------------

    Molecular point group: c1
  Charge       = 0
  Multiplicity = 1
  Basis Set: AUG-CC-PVTZ
    Blend: AUG-CC-PVTZ
  Basis Set: (AUG-CC-PVTZ AUX)
    Blend: AUG-CC-PVTZ-JKFIT

    Orbital Energies [Eh]
    ---------------------

    Doubly Occupied:

       1A    -80.114917     2A    -20.611162     3A    -20.606069
       4A    -20.605007     5A    -20.603037     6A    -20.598452
       7A    -20.594184     8A    -20.574904     9A    -20.514576
      10A    -11.356584    11A    -11.323059    12A    -11.321108
      13A    -11.317975    14A    -11.306916    15A     -7.629867
      16A     -5.528286    17A     -5.528205    18A     -5.526704
      19A     -1.463102    20A     -1.448229    21A     -1.411295
      22A     -1.390598    23A     -1.378166    24A     -1.373516
      25A     -1.368427    26A     -1.295911    27A     -1.084083
      28A     -1.047882    29A     -0.949063    30A     -0.858367
      31A     -0.842151    32A     -0.831838    33A     -0.772785
      34A     -0.760330    35A     -0.749405    36A     -0.734302
      37A     -0.716845    38A     -0.692743    39A     -0.684236
      40A     -0.669306    41A     -0.653600    42A     -0.647789
      43A     -0.633146    44A     -0.613720    45A     -0.601112
      46A     -0.596100    47A     -0.581983    48A     -0.577494
      49A     -0.569823    50A     -0.560090    51A     -0.543470
      52A     -0.533132    53A     -0.527060    54A     -0.511802
      55A     -0.492947    56A     -0.487791    57A     -0.475047
      58A     -0.469271    59A     -0.465707    60A     -0.450369

  @DF-RHF Final Energy: -1135.82210428880239

   => Energetics <=

    Nuclear Repulsion Energy =           1216.2829686110167131
    One-Electron Energy =               -3985.8600527508583582
    Two-Electron Energy =                1633.7549798510392520
    Total Energy =                      -1135.8221042888023931
  Basis Set: (AUG-CC-PVTZ AUX)
    Blend: AUG-CC-PVTZ-RI
    Molecular point group: c1

    Geometry (in Angstrom), charge = 0, multiplicity = 1:

       Center              X                  Y                   Z               Mass
    ------------   -----------------  -----------------  -----------------  -----------------
         P            2.558966623080     0.050597999236    -0.170219772666    30.973761998420
         O           -0.794055376920    -0.509212000764    -0.856630772666    15.994914619570
         O           -3.199785376920     1.759513999236     0.205113227334    15.994914619570
         O           -3.609832376920    -0.545738000764    -0.936111772666    15.994914619570
         O           -0.977968376920    -1.690083000764     1.170205227334    15.994914619570
         O            1.448855623080     1.230597999236    -0.300682772666    15.994914619570
         O            1.688794623080    -1.292144000764    -0.336924772666    15.994914619570
         O            2.906766623080    -0.058332000764     1.410490227334    15.994914619570
         O            3.722724623080     0.291589999236    -1.046069772666    15.994914619570
         C           -2.231104376920     0.776533999236     0.561829227334    12.000000000000
         C           -0.947362376920     0.820815999236    -0.297063772666    12.000000000000
         C           -2.834985376920    -0.598925000764     0.242894227334    12.000000000000
         C           -1.589040376920    -1.401709000764    -0.063991772666    12.000000000000
         C            0.270041623080     1.199626999236     0.527581227334    12.000000000000
         H           -1.990106376920     0.836110999236     1.631192227334     1.007825032230
         H           -1.069243376920     1.502985999236    -1.143394772666     1.007825032230
         H           -3.393286376920    -1.015594000764     1.090666227334     1.007825032230
         H           -1.752026976920    -2.247065000764    -0.654874972666     1.007825032230
         H            0.389092623080     0.504042999236     1.362704227334     1.007825032230
         H            0.145040623080     2.211657999236     0.928998227334     1.007825032230
         H           -2.943999376920     2.611922999236     0.595067227334     1.007825032230
         H           -4.095360376920     0.300419999236    -0.905874772666     1.007825032230
         H           -0.093458376920    -2.065988000764     0.992260227334     1.007825032230
         H            0.854971623080    -1.074482000764    -0.833942772666     1.007825032230
         H            3.794447623080     0.314733999236     1.564613227334     1.007825032230

  Basis Set: AUG-CC-PVTZ
    Blend: AUG-CC-PVTZ
  Basis Set: (AUG-CC-PVTZ AUX)
    Blend: AUG-CC-PVTZ-JKFIT
	 Reference Energy          =   -1135.8221042888023931 [Eh]
	 Singles Energy            =      -0.0000000000000000 [Eh]
	 Same-Spin Energy          =      -0.8161326163948237 [Eh]
	 Opposite-Spin Energy      =      -2.4214100653015267 [Eh]
	 Correlation Energy        =      -3.2375426816963504 [Eh]
	 Total Energy              =   -1139.0596469704987612 [Eh]

	 ================> DF-SCS-MP2 Energies <==================
	-----------------------------------------------------------
	 SCS Same-Spin Scale       =       0.3333333333333333 [-]
	 SCS Opposite-Spin Scale   =       1.2000000000000000 [-]
	 SCS Same-Spin Energy      =      -0.2720442054649412 [Eh]
	 SCS Opposite-Spin Energy  =      -2.9056920783618319 [Eh]
	 SCS Correlation Energy    =      -3.1777362838267731 [Eh]
	 SCS Total Energy          =   -1138.9998405726291821 [Eh]
	-----------------------------------------------------------

  Dipole Moment: [D]
     X:    -3.4907      Y:     2.2875      Z:     4.0242     Total:     5.7975

*** Psi4 exiting successfully. Buy a developer a beer!
