                               Psi4 1.3.2 release

  ==> Input File <==

--------------------------------------------------------------------------
#psi4
#
memory 32 gb

molecule  {
0 1
  P        2.6114510     0.0433530    -0.1897960
  O       -0.7415730    -0.5166550    -0.8759300
  O       -3.1471200     1.7525200     0.1857420
  O       -3.5574290    -0.5524670    -0.9560380
  O       -0.9262260    -1.6975490     1.1507850
  O        1.5012860     1.2233130    -0.3203930
  O        1.7414800    -1.2994450    -0.3567160
  O        2.9590140    -0.0653000     1.3909990
  O        3.7753660     0.2843820    -1.0654240
  C       -2.1786680     0.7692630     0.5423480
  C       -0.8949230     0.8134730    -0.3165700
  C       -2.7827930    -0.6059770     0.2231310
  C       -1.4967958    -1.4257412    -0.1063980
  C        0.3225300     1.1924080     0.5079200
  H       -1.9376650     0.8286140     1.6117160
  H       -1.0169450     1.4955040    -1.1629930
  H       -3.3413290    -1.0227480     1.0706890
  H       -1.7077950    -2.2947630    -0.7028010
  H        0.4416350     0.4968690     1.3430810
  H        0.1975530     2.2044650     0.9092850
  H       -2.8909940     2.6048820     0.5755830
  H       -4.0423210     0.2940670    -0.9260900
  H       -0.0419210    -2.0739930     0.9730340
  H        0.9072950    -1.0817680    -0.8531670
  H        3.8470510     0.3069850     1.5449930
units angstrom
no_reorient  #important for SAPT in psi4, default
symmetry c1  #important for SAPT in psi4, default
}

set PROPERTIES_ORIGIN ["COM"]
properties('MP2/aug-cc-pvtz', properties = ['dipole'])
--------------------------------------------------------------------------

    Molecular point group: c1
  Charge       = 0
  Multiplicity = 1
  Basis Set: AUG-CC-PVTZ
    Blend: AUG-CC-PVTZ
  Basis Set: (AUG-CC-PVTZ AUX)
    Blend: AUG-CC-PVTZ-JKFIT

    Orbital Energies [Eh]
    ---------------------

    Doubly Occupied:

       1A    -80.115634     2A    -20.611706     3A    -20.606006
       4A    -20.605773     5A    -20.605553     6A    -20.599509
       7A    -20.595114     8A    -20.572695     9A    -20.515185
      10A    -11.360760    11A    -11.322183    12A    -11.322071
      13A    -11.319780    14A    -11.306318    15A     -7.630585
      16A     -5.529003    17A     -5.528925    18A     -5.527421
      19A     -1.466336    20A     -1.450036    21A     -1.410904
      22A     -1.391292    23A     -1.379099    24A     -1.374093
      25A     -1.369071    26A     -1.296534    27A     -1.084823
      28A     -1.039641    29A     -0.946377    30A     -0.857889
      31A     -0.842196    32A     -0.830377    33A     -0.772057
      34A     -0.757818    35A     -0.748507    36A     -0.733231
      37A     -0.717381    38A     -0.693799    39A     -0.685229
      40A     -0.669780    41A     -0.654471    42A     -0.648451
      43A     -0.633115    44A     -0.616591    45A     -0.601530
      46A     -0.595370    47A     -0.582437    48A     -0.577008
      49A     -0.569961    50A     -0.557791    51A     -0.544146
      52A     -0.533439    53A     -0.527636    54A     -0.510830
      55A     -0.492185    56A     -0.486473    57A     -0.474842
      58A     -0.468171    59A     -0.462013    60A     -0.449860

  @DF-RHF Final Energy: -1135.82086121286125

   => Energetics <=

    Nuclear Repulsion Energy =           1215.8170880722739184
    One-Electron Energy =               -3984.9218754495477697
    Two-Electron Energy =                1633.2839261644128328
    Total Energy =                      -1135.8208612128612458
  Basis Set: (AUG-CC-PVTZ AUX)
    Blend: AUG-CC-PVTZ-RI
    Molecular point group: c1

    Geometry (in Angstrom), charge = 0, multiplicity = 1:

       Center              X                  Y                   Z               Mass
    ------------   -----------------  -----------------  -----------------  -----------------
         P            2.556991062400     0.051608830757    -0.168914316220    30.973761998420
         O           -0.796032937600    -0.508399169243    -0.855048316220    15.994914619570
         O           -3.201579937600     1.760775830757     0.206623683780    15.994914619570
         O           -3.611888937600    -0.544211169243    -0.935156316220    15.994914619570
         O           -0.980685937600    -1.689293169243     1.171666683780    15.994914619570
         O            1.446826062400     1.231568830757    -0.299511316220    15.994914619570
         O            1.687020062400    -1.291189169243    -0.335834316220    15.994914619570
         O            2.904554062400    -0.057044169243     1.411880683780    15.994914619570
         O            3.720906062400     0.292637830757    -1.044542316220    15.994914619570
         C           -2.233127937600     0.777518830757     0.563229683780    12.000000000000
         C           -0.949382937600     0.821728830757    -0.295688316220    12.000000000000
         C           -2.837252937600    -0.597721169243     0.244012683780    12.000000000000
         C           -1.551255737600    -1.417485369243    -0.085516316220    12.000000000000
         C            0.268070062400     1.200663830757     0.528801683780    12.000000000000
         H           -1.992124937600     0.836869830757     1.632597683780     1.007825032230
         H           -1.071404937600     1.503759830757    -1.142111316220     1.007825032230
         H           -3.395788937600    -1.014492169243     1.091570683780     1.007825032230
         H           -1.762254937600    -2.286507169243    -0.681919316220     1.007825032230
         H            0.387175062400     0.505124830757     1.363962683780     1.007825032230
         H            0.143093062400     2.212720830757     0.930166683780     1.007825032230
         H           -2.945453937600     2.613137830757     0.596464683780     1.007825032230
         H           -4.096780937600     0.302322830757    -0.905208316220     1.007825032230
         H           -0.096380937600    -2.065737169243     0.993915683780     1.007825032230
         H            0.852835062400    -1.073512169243    -0.832285316220     1.007825032230
         H            3.792591062400     0.315240830757     1.565874683780     1.007825032230

  Basis Set: AUG-CC-PVTZ
    Blend: AUG-CC-PVTZ
  Basis Set: (AUG-CC-PVTZ AUX)
    Blend: AUG-CC-PVTZ-JKFIT
	 Reference Energy          =   -1135.8208612128612458 [Eh]
	 Singles Energy            =      -0.0000000000000000 [Eh]
	 Same-Spin Energy          =      -0.8161391560320574 [Eh]
	 Opposite-Spin Energy      =      -2.4216583956620155 [Eh]
	 Correlation Energy        =      -3.2377975516940731 [Eh]
	 Total Energy              =   -1139.0586587645552754 [Eh]

	 ================> DF-SCS-MP2 Energies <==================
	-----------------------------------------------------------
	 SCS Same-Spin Scale       =       0.3333333333333333 [-]
	 SCS Opposite-Spin Scale   =       1.2000000000000000 [-]
	 SCS Same-Spin Energy      =      -0.2720463853440191 [Eh]
	 SCS Opposite-Spin Energy  =      -2.9059900747944183 [Eh]
	 SCS Correlation Energy    =      -3.1780364601384372 [Eh]
	 SCS Total Energy          =   -1138.9988976729996466 [Eh]
	-----------------------------------------------------------

  Dipole Moment: [D]
     X:    -3.3568      Y:     2.3028      Z:     3.9802     Total:     5.6932

*** Psi4 exiting successfully. Buy a developer a beer!
