                               Psi4 1.3.2 release

  ==> Input File <==

--------------------------------------------------------------------------
#psi4
#
memory 32 gb

molecule  {
0 1
  P        2.6114510     0.0433530    -0.1897960
  O       -0.7870921    -0.5118212    -0.8976105
  O       -3.1471200     1.7525200     0.1857420
  O       -3.5574290    -0.5524670    -0.9560380
  O       -0.9262260    -1.6975490     1.1507850
  O        1.5012860     1.2233130    -0.3203930
  O        1.7414800    -1.2994450    -0.3567160
  O        2.9590140    -0.0653000     1.3909990
  O        3.7753660     0.2843820    -1.0654240
  C       -2.1786680     0.7692630     0.5423480
  C       -0.8949230     0.8134730    -0.3165700
  C       -2.7827930    -0.6059770     0.2231310
  C       -1.5369320    -1.4089660    -0.0835960
  C        0.3225300     1.1924080     0.5079200
  H       -1.9376650     0.8286140     1.6117160
  H       -1.0169450     1.4955040    -1.1629930
  H       -3.3413290    -1.0227480     1.0706890
  H       -1.7077950    -2.2947630    -0.7028010
  H        0.4416350     0.4968690     1.3430810
  H        0.1975530     2.2044650     0.9092850
  H       -2.8909940     2.6048820     0.5755830
  H       -4.0423210     0.2940670    -0.9260900
  H       -0.0419210    -2.0739930     0.9730340
  H        0.9072950    -1.0817680    -0.8531670
  H        3.8470510     0.3069850     1.5449930
units angstrom
no_reorient  #important for SAPT in psi4, default
symmetry c1  #important for SAPT in psi4, default
}

set PROPERTIES_ORIGIN ["COM"]
properties('MP2/aug-cc-pvtz', properties = ['dipole'])
--------------------------------------------------------------------------

    Molecular point group: c1
  Charge       = 0
  Multiplicity = 1
  Basis Set: AUG-CC-PVTZ
    Blend: AUG-CC-PVTZ
  Basis Set: (AUG-CC-PVTZ AUX)
    Blend: AUG-CC-PVTZ-JKFIT

    Orbital Energies [Eh]
    ---------------------

    Doubly Occupied:

       1A    -80.116444     2A    -20.612353     3A    -20.606170
       4A    -20.605089     5A    -20.603112     6A    -20.601851
       7A    -20.595840     8A    -20.573103     9A    -20.515825
      10A    -11.360383    11A    -11.322544    12A    -11.321897
      13A    -11.317820    14A    -11.305092    15A     -7.631402
      16A     -5.529812    17A     -5.529748    18A     -5.528234
      19A     -1.463904    20A     -1.449899    21A     -1.410229
      22A     -1.391685    23A     -1.380331    24A     -1.373921
      25A     -1.368451    26A     -1.297168    27A     -1.083775
      28A     -1.046075    29A     -0.947970    30A     -0.857135
      31A     -0.842162    32A     -0.828368    33A     -0.771760
      34A     -0.759554    35A     -0.747515    36A     -0.734504
      37A     -0.718220    38A     -0.694310    39A     -0.684318
      40A     -0.666412    41A     -0.653664    42A     -0.648541
      43A     -0.631427    44A     -0.615421    45A     -0.600305
      46A     -0.596404    47A     -0.583479    48A     -0.577991
      49A     -0.569043    50A     -0.559074    51A     -0.544844
      52A     -0.532984    53A     -0.527662    54A     -0.510958
      55A     -0.491139    56A     -0.487097    57A     -0.475734
      58A     -0.469490    59A     -0.466034    60A     -0.449592

  @DF-RHF Final Energy: -1135.82204512851831

   => Energetics <=

    Nuclear Repulsion Energy =           1215.4633186490777916
    One-Electron Energy =               -3984.2001918517926242
    Two-Electron Energy =                1632.9148280741965209
    Total Energy =                      -1135.8220451285183117
  Basis Set: (AUG-CC-PVTZ AUX)
    Blend: AUG-CC-PVTZ-RI
    Molecular point group: c1

    Geometry (in Angstrom), charge = 0, multiplicity = 1:

       Center              X                  Y                   Z               Mass
    ------------   -----------------  -----------------  -----------------  -----------------
         P            2.562250226671     0.050397546335    -0.168596282939    30.973761998420
         O           -0.836292873329    -0.504776653665    -0.876410782939    15.994914619570
         O           -3.196320773329     1.759564546335     0.206941717061    15.994914619570
         O           -3.606629773329    -0.545422453665    -0.934838282939    15.994914619570
         O           -0.975426773329    -1.690504453665     1.171984717061    15.994914619570
         O            1.452085226671     1.230357546335    -0.299193282939    15.994914619570
         O            1.692279226671    -1.292400453665    -0.335516282939    15.994914619570
         O            2.909813226671    -0.058255453665     1.412198717061    15.994914619570
         O            3.726165226671     0.291426546335    -1.044224282939    15.994914619570
         C           -2.227868773329     0.776307546335     0.563547717061    12.000000000000
         C           -0.944123773329     0.820517546335    -0.295370282939    12.000000000000
         C           -2.831993773329    -0.598932453665     0.244330717061    12.000000000000
         C           -1.586132773329    -1.401921453665    -0.062396282939    12.000000000000
         C            0.273329226671     1.199452546335     0.529119717061    12.000000000000
         H           -1.986865773329     0.835658546335     1.632915717061     1.007825032230
         H           -1.066145773329     1.502548546335    -1.141793282939     1.007825032230
         H           -3.390529773329    -1.015703453665     1.091888717061     1.007825032230
         H           -1.756995773329    -2.287718453665    -0.681601282939     1.007825032230
         H            0.392434226671     0.503913546335     1.364280717061     1.007825032230
         H            0.148352226671     2.211509546335     0.930484717061     1.007825032230
         H           -2.940194773329     2.611926546335     0.596782717061     1.007825032230
         H           -4.091521773329     0.301111546335    -0.904890282939     1.007825032230
         H           -0.091121773329    -2.066948453665     0.994233717061     1.007825032230
         H            0.858094226671    -1.074723453665    -0.831967282939     1.007825032230
         H            3.797850226671     0.314029546335     1.566192717061     1.007825032230

  Basis Set: AUG-CC-PVTZ
    Blend: AUG-CC-PVTZ
  Basis Set: (AUG-CC-PVTZ AUX)
    Blend: AUG-CC-PVTZ-JKFIT
	 Reference Energy          =   -1135.8220451285183117 [Eh]
	 Singles Energy            =      -0.0000000000000000 [Eh]
	 Same-Spin Energy          =      -0.8162526860645934 [Eh]
	 Opposite-Spin Energy      =      -2.4217660407782704 [Eh]
	 Correlation Energy        =      -3.2380187268428640 [Eh]
	 Total Energy              =   -1139.0600638553612498 [Eh]

	 ================> DF-SCS-MP2 Energies <==================
	-----------------------------------------------------------
	 SCS Same-Spin Scale       =       0.3333333333333333 [-]
	 SCS Opposite-Spin Scale   =       1.2000000000000000 [-]
	 SCS Same-Spin Energy      =      -0.2720842286881978 [Eh]
	 SCS Opposite-Spin Energy  =      -2.9061192489339245 [Eh]
	 SCS Correlation Energy    =      -3.1782034776221222 [Eh]
	 SCS Total Energy          =   -1139.0002486061405307 [Eh]
	-----------------------------------------------------------

  Dipole Moment: [D]
     X:    -3.2909      Y:     2.2949      Z:     4.0548     Total:     5.7042

*** Psi4 exiting successfully. Buy a developer a beer!
