                               Psi4 1.3.2 release

  ==> Input File <==

--------------------------------------------------------------------------
#psi4
#
memory 32 gb

molecule  {
0 1
  P        2.6114510     0.0433530    -0.1897960
  O       -0.7415730    -0.5166550    -0.8759300
  O       -3.1471200     1.7525200     0.1857420
  O       -3.5574290    -0.5524670    -0.9560380
  O       -0.9268998    -1.8388664     1.1092932
  O        1.5012860     1.2233130    -0.3203930
  O        1.7414800    -1.2994450    -0.3567160
  O        2.9590140    -0.0653000     1.3909990
  O        3.7753660     0.2843820    -1.0654240
  C       -2.1786680     0.7692630     0.5423480
  C       -0.8949230     0.8134730    -0.3165700
  C       -2.7827930    -0.6059770     0.2231310
  C       -1.5369320    -1.4089660    -0.0835960
  C        0.3225300     1.1924080     0.5079200
  H       -1.9376650     0.8286140     1.6117160
  H       -1.0169450     1.4955040    -1.1629930
  H       -3.3413290    -1.0227480     1.0706890
  H       -1.7077950    -2.2947630    -0.7028010
  H        0.4416350     0.4968690     1.3430810
  H        0.1975530     2.2044650     0.9092850
  H       -2.8909940     2.6048820     0.5755830
  H       -4.0423210     0.2940670    -0.9260900
  H       -0.0419210    -2.0739930     0.9730340
  H        0.9072950    -1.0817680    -0.8531670
  H        3.8470510     0.3069850     1.5449930
units angstrom
no_reorient  #important for SAPT in psi4, default
symmetry c1  #important for SAPT in psi4, default
}

set PROPERTIES_ORIGIN ["COM"]
properties('MP2/aug-cc-pvtz', properties = ['dipole'])
--------------------------------------------------------------------------

    Molecular point group: c1
  Charge       = 0
  Multiplicity = 1
  Basis Set: AUG-CC-PVTZ
    Blend: AUG-CC-PVTZ
  Basis Set: (AUG-CC-PVTZ AUX)
    Blend: AUG-CC-PVTZ-JKFIT

    Orbital Energies [Eh]
    ---------------------

    Doubly Occupied:

       1A    -80.116036     2A    -20.612237     3A    -20.608099
       4A    -20.607236     5A    -20.607022     6A    -20.599410
       7A    -20.586903     8A    -20.576515     9A    -20.515518
      10A    -11.362161    11A    -11.325595    12A    -11.324390
      13A    -11.320496    14A    -11.309659    15A     -7.630996
      16A     -5.529421    17A     -5.529327    18A     -5.527831
      19A     -1.464327    20A     -1.449472    21A     -1.413733
      22A     -1.392749    23A     -1.379696    24A     -1.378860
      25A     -1.372166    26A     -1.296865    27A     -1.086504
      28A     -1.050109    29A     -0.950262    30A     -0.860678
      31A     -0.843442    32A     -0.832644    33A     -0.774043
      34A     -0.765047    35A     -0.749028    36A     -0.736539
      37A     -0.717924    38A     -0.695038    39A     -0.687948
      40A     -0.666401    41A     -0.653981    42A     -0.648337
      43A     -0.634228    44A     -0.615860    45A     -0.604103
      46A     -0.597709    47A     -0.582904    48A     -0.579671
      49A     -0.572225    50A     -0.562333    51A     -0.544771
      52A     -0.531541    53A     -0.528575    54A     -0.515847
      55A     -0.491300    56A     -0.483172    57A     -0.476458
      58A     -0.470320    59A     -0.467329    60A     -0.452334

  @DF-RHF Final Energy: -1135.82177250049949

   => Energetics <=

    Nuclear Repulsion Energy =           1213.7754693278395735
    One-Electron Energy =               -3980.6638272889626933
    Two-Electron Energy =                1631.0665854606234006
    Total Energy =                      -1135.8217725004994918
  Basis Set: (AUG-CC-PVTZ AUX)
    Blend: AUG-CC-PVTZ-RI
    Molecular point group: c1

    Geometry (in Angstrom), charge = 0, multiplicity = 1:

       Center              X                  Y                   Z               Mass
    ------------   -----------------  -----------------  -----------------  -----------------
         P            2.559131804874     0.060560508514    -0.167218658310    30.973761998420
         O           -0.793892195126    -0.499447491486    -0.853352658310    15.994914619570
         O           -3.199439195126     1.769727508514     0.208319341690    15.994914619570
         O           -3.609748195126    -0.535259491486    -0.933460658310    15.994914619570
         O           -0.979218995126    -1.821658891486     1.131870541690    15.994914619570
         O            1.448966804874     1.240520508514    -0.297815658310    15.994914619570
         O            1.689160804874    -1.282237491486    -0.334138658310    15.994914619570
         O            2.906694804874    -0.048092491486     1.413576341690    15.994914619570
         O            3.723046804874     0.301589508514    -1.042846658310    15.994914619570
         C           -2.230987195126     0.786470508514     0.564925341690    12.000000000000
         C           -0.947242195126     0.830680508514    -0.293992658310    12.000000000000
         C           -2.835112195126    -0.588769491486     0.245708341690    12.000000000000
         C           -1.589251195126    -1.391758491486    -0.061018658310    12.000000000000
         C            0.270210804874     1.209615508514     0.530497341690    12.000000000000
         H           -1.989984195126     0.845821508514     1.634293341690     1.007825032230
         H           -1.069264195126     1.512711508514    -1.140415658310     1.007825032230
         H           -3.393648195126    -1.005540491486     1.093266341690     1.007825032230
         H           -1.760114195126    -2.277555491486    -0.680223658310     1.007825032230
         H            0.389315804874     0.514076508514     1.365658341690     1.007825032230
         H            0.145233804874     2.221672508514     0.931862341690     1.007825032230
         H           -2.943313195126     2.622089508514     0.598160341690     1.007825032230
         H           -4.094640195126     0.311274508514    -0.903512658310     1.007825032230
         H           -0.094240195126    -2.056785491486     0.995611341690     1.007825032230
         H            0.854975804874    -1.064560491486    -0.830589658310     1.007825032230
         H            3.794731804874     0.324192508514     1.567570341690     1.007825032230

  Basis Set: AUG-CC-PVTZ
    Blend: AUG-CC-PVTZ
  Basis Set: (AUG-CC-PVTZ AUX)
    Blend: AUG-CC-PVTZ-JKFIT
	 Reference Energy          =   -1135.8217725004994918 [Eh]
	 Singles Energy            =      -0.0000000000000000 [Eh]
	 Same-Spin Energy          =      -0.8152405457562750 [Eh]
	 Opposite-Spin Energy      =      -2.4198244422289981 [Eh]
	 Correlation Energy        =      -3.2350649879852731 [Eh]
	 Total Energy              =   -1139.0568374884846889 [Eh]

	 ================> DF-SCS-MP2 Energies <==================
	-----------------------------------------------------------
	 SCS Same-Spin Scale       =       0.3333333333333333 [-]
	 SCS Opposite-Spin Scale   =       1.2000000000000000 [-]
	 SCS Same-Spin Energy      =      -0.2717468485854250 [Eh]
	 SCS Opposite-Spin Energy  =      -2.9037893306747975 [Eh]
	 SCS Correlation Energy    =      -3.1755361792602224 [Eh]
	 SCS Total Energy          =   -1138.9973086797597261 [Eh]
	-----------------------------------------------------------

  Dipole Moment: [D]
     X:    -3.4445      Y:     2.6845      Z:     4.0383     Total:     5.9480

*** Psi4 exiting successfully. Buy a developer a beer!
