                               Psi4 1.3.2 release

  ==> Input File <==

--------------------------------------------------------------------------
#psi4
#
memory 32 gb

molecule  {
0 1
  P        2.6114510     0.0433530    -0.1897960
  O       -0.7415730    -0.5166550    -0.8759300
  O       -3.1471200     1.7525200     0.1857420
  O       -3.5574290    -0.5524670    -0.9560380
  O       -0.9262260    -1.6975490     1.1507850
  O        1.5012860     1.2233130    -0.3203930
  O        1.7414800    -1.2994450    -0.3567160
  O        2.9590140    -0.0653000     1.3909990
  O        3.7753660     0.2843820    -1.0654240
  C       -2.1786680     0.7692630     0.5423480
  C       -0.8949230     0.8134730    -0.3165700
  C       -2.8008829    -0.5619745     0.2359819
  C       -1.5369320    -1.4089660    -0.0835960
  C        0.3225300     1.1924080     0.5079200
  H       -1.9376650     0.8286140     1.6117160
  H       -1.0169450     1.4955040    -1.1629930
  H       -3.3413290    -1.0227480     1.0706890
  H       -1.7077950    -2.2947630    -0.7028010
  H        0.4416350     0.4968690     1.3430810
  H        0.1975530     2.2044650     0.9092850
  H       -2.8909940     2.6048820     0.5755830
  H       -4.0423210     0.2940670    -0.9260900
  H       -0.0419210    -2.0739930     0.9730340
  H        0.9072950    -1.0817680    -0.8531670
  H        3.8470510     0.3069850     1.5449930
units angstrom
no_reorient  #important for SAPT in psi4, default
symmetry c1  #important for SAPT in psi4, default
}

set PROPERTIES_ORIGIN ["COM"]
properties('MP2/aug-cc-pvtz', properties = ['dipole'])
--------------------------------------------------------------------------

    Molecular point group: c1
  Charge       = 0
  Multiplicity = 1
  Basis Set: AUG-CC-PVTZ
    Blend: AUG-CC-PVTZ
  Basis Set: (AUG-CC-PVTZ AUX)
    Blend: AUG-CC-PVTZ-JKFIT

    Orbital Energies [Eh]
    ---------------------

    Doubly Occupied:

       1A    -80.115010     2A    -20.611236     3A    -20.606283
       4A    -20.605351     5A    -20.603044     6A    -20.598369
       7A    -20.593746     8A    -20.575927     9A    -20.514657
      10A    -11.362528    11A    -11.322677    12A    -11.321631
      13A    -11.318852    14A    -11.306661    15A     -7.629960
      16A     -5.528382    17A     -5.528296    18A     -5.526797
      19A     -1.462520    20A     -1.447737    21A     -1.412810
      22A     -1.390730    23A     -1.378155    24A     -1.373900
      25A     -1.368321    26A     -1.295989    27A     -1.086975
      28A     -1.044187    29A     -0.944806    30A     -0.859049
      31A     -0.840776    32A     -0.830110    33A     -0.772344
      34A     -0.757393    35A     -0.747428    36A     -0.734915
      37A     -0.716906    38A     -0.692610    39A     -0.684205
      40A     -0.666740    41A     -0.653294    42A     -0.647493
      43A     -0.631881    44A     -0.614325    45A     -0.601021
      46A     -0.596470    47A     -0.582090    48A     -0.576678
      49A     -0.570801    50A     -0.559867    51A     -0.543408
      52A     -0.531964    53A     -0.526678    54A     -0.512956
      55A     -0.492117    56A     -0.486338    57A     -0.474757
      58A     -0.468063    59A     -0.463825    60A     -0.452674

  @DF-RHF Final Energy: -1135.81991138320950

   => Energetics <=

    Nuclear Repulsion Energy =           1215.8365568469296250
    One-Electron Energy =               -3984.9835113833742071
    Two-Electron Energy =                1633.3270431532348539
    Total Energy =                      -1135.8199113832095009
  Basis Set: (AUG-CC-PVTZ AUX)
    Blend: AUG-CC-PVTZ-RI
    Molecular point group: c1

    Geometry (in Angstrom), charge = 0, multiplicity = 1:

       Center              X                  Y                   Z               Mass
    ------------   -----------------  -----------------  -----------------  -----------------
         P            2.560028692905     0.048438084381    -0.170774312625    30.973761998420
         O           -0.792995307095    -0.511569915619    -0.856908312625    15.994914619570
         O           -3.198542307095     1.757605084381     0.204763687375    15.994914619570
         O           -3.608851307095    -0.547381915619    -0.937016312625    15.994914619570
         O           -0.977648307095    -1.692463915619     1.169806687375    15.994914619570
         O            1.449863692905     1.228398084381    -0.301371312625    15.994914619570
         O            1.690057692905    -1.294359915619    -0.337694312625    15.994914619570
         O            2.907591692905    -0.060214915619     1.410020687375    15.994914619570
         O            3.723943692905     0.289467084381    -1.046402312625    15.994914619570
         C           -2.230090307095     0.774348084381     0.561369687375    12.000000000000
         C           -0.946345307095     0.818558084381    -0.297548312625    12.000000000000
         C           -2.852305207095    -0.556889415619     0.255003587375    12.000000000000
         C           -1.588354307095    -1.403880915619    -0.064574312625    12.000000000000
         C            0.271107692905     1.197493084381     0.526941687375    12.000000000000
         H           -1.989087307095     0.833699084381     1.630737687375     1.007825032230
         H           -1.068367307095     1.500589084381    -1.143971312625     1.007825032230
         H           -3.392751307095    -1.017662915619     1.089710687375     1.007825032230
         H           -1.759217307095    -2.289677915619    -0.683779312625     1.007825032230
         H            0.390212692905     0.501954084381     1.362102687375     1.007825032230
         H            0.146130692905     2.209550084381     0.928306687375     1.007825032230
         H           -2.942416307095     2.609967084381     0.594604687375     1.007825032230
         H           -4.093743307095     0.299152084381    -0.907068312625     1.007825032230
         H           -0.093343307095    -2.068907915619     0.992055687375     1.007825032230
         H            0.855872692905    -1.076682915619    -0.834145312625     1.007825032230
         H            3.795628692905     0.312070084381     1.564014687375     1.007825032230

  Basis Set: AUG-CC-PVTZ
    Blend: AUG-CC-PVTZ
  Basis Set: (AUG-CC-PVTZ AUX)
    Blend: AUG-CC-PVTZ-JKFIT
	 Reference Energy          =   -1135.8199113832095009 [Eh]
	 Singles Energy            =      -0.0000000000000000 [Eh]
	 Same-Spin Energy          =      -0.8164479289276513 [Eh]
	 Opposite-Spin Energy      =      -2.4223066543530765 [Eh]
	 Correlation Energy        =      -3.2387545832807279 [Eh]
	 Total Energy              =   -1139.0586659664902527 [Eh]

	 ================> DF-SCS-MP2 Energies <==================
	-----------------------------------------------------------
	 SCS Same-Spin Scale       =       0.3333333333333333 [-]
	 SCS Opposite-Spin Scale   =       1.2000000000000000 [-]
	 SCS Same-Spin Energy      =      -0.2721493096425504 [Eh]
	 SCS Opposite-Spin Energy  =      -2.9067679852236918 [Eh]
	 SCS Correlation Energy    =      -3.1789172948662423 [Eh]
	 SCS Total Energy          =   -1138.9988286780758244 [Eh]
	-----------------------------------------------------------

  Dipole Moment: [D]
     X:    -3.4735      Y:     2.3273      Z:     4.0257     Total:     5.8041

*** Psi4 exiting successfully. Buy a developer a beer!
