                               Psi4 1.3.2 release

  ==> Input File <==

--------------------------------------------------------------------------
#psi4
#
memory 32 gb

molecule  {
0 1
  P        2.6114510     0.0433530    -0.1897960
  O       -0.7415730    -0.5166550    -0.8759300
  O       -3.1471200     1.7525200     0.1857420
  O       -3.5574290    -0.5524670    -0.9560380
  O       -0.9262260    -1.6975490     1.1507850
  O        1.5012860     1.2233130    -0.3203930
  O        1.7414800    -1.2994450    -0.3567160
  O        2.9590140    -0.0653000     1.3909990
  O        3.7753660     0.2843820    -1.0654240
  C       -2.1786680     0.7692630     0.5423480
  C       -0.8949230     0.8134730    -0.3165700
  C       -2.7827930    -0.6059770     0.2231310
  C       -1.6526853    -1.3608297    -0.0062869
  C        0.3225300     1.1924080     0.5079200
  H       -1.9376650     0.8286140     1.6117160
  H       -1.0169450     1.4955040    -1.1629930
  H       -3.3413290    -1.0227480     1.0706890
  H       -1.7077950    -2.2947630    -0.7028010
  H        0.4416350     0.4968690     1.3430810
  H        0.1975530     2.2044650     0.9092850
  H       -2.8909940     2.6048820     0.5755830
  H       -4.0423210     0.2940670    -0.9260900
  H       -0.0419210    -2.0739930     0.9730340
  H        0.9072950    -1.0817680    -0.8531670
  H        3.8470510     0.3069850     1.5449930
units angstrom
no_reorient  #important for SAPT in psi4, default
symmetry c1  #important for SAPT in psi4, default
}

set PROPERTIES_ORIGIN ["COM"]
properties('MP2/aug-cc-pvtz', properties = ['dipole'])
--------------------------------------------------------------------------

    Molecular point group: c1
  Charge       = 0
  Multiplicity = 1
  Basis Set: AUG-CC-PVTZ
    Blend: AUG-CC-PVTZ
  Basis Set: (AUG-CC-PVTZ AUX)
    Blend: AUG-CC-PVTZ-JKFIT

    Orbital Energies [Eh]
    ---------------------

    Doubly Occupied:

       1A    -80.112987     2A    -20.609750     3A    -20.608426
       4A    -20.603033     5A    -20.595708     6A    -20.595510
       7A    -20.593969     8A    -20.581722     9A    -20.512920
      10A    -11.370199    11A    -11.327446    12A    -11.318829
      13A    -11.313358    14A    -11.307884    15A     -7.627936
      16A     -5.526363    17A     -5.526268    18A     -5.524778
      19A     -1.456827    20A     -1.443318    21A     -1.412422
      22A     -1.388924    23A     -1.379405    24A     -1.375480
      25A     -1.358729    26A     -1.294203    27A     -1.097285
      28A     -1.062440    29A     -0.949817    30A     -0.857577
      31A     -0.839153    32A     -0.825973    33A     -0.773844
      34A     -0.765564    35A     -0.744864    36A     -0.736989
      37A     -0.715152    38A     -0.690134    39A     -0.682603
      40A     -0.660849    41A     -0.652804    42A     -0.645614
      43A     -0.634951    44A     -0.614099    45A     -0.598500
      46A     -0.594411    47A     -0.580235    48A     -0.578520
      49A     -0.569298    50A     -0.561381    51A     -0.541204
      52A     -0.531341    53A     -0.526520    54A     -0.513859
      55A     -0.494488    56A     -0.477475    57A     -0.472010
      58A     -0.470856    59A     -0.465778    60A     -0.450639

  @DF-RHF Final Energy: -1135.79381865767118

   => Energetics <=

    Nuclear Repulsion Energy =           1216.2434285999638632
    One-Electron Energy =               -3985.7892527448516375
    Two-Electron Energy =                1633.7520054872165929
    Total Energy =                      -1135.7938186576711814
  Basis Set: (AUG-CC-PVTZ AUX)
    Blend: AUG-CC-PVTZ-RI
    Molecular point group: c1

    Geometry (in Angstrom), charge = 0, multiplicity = 1:

       Center              X                  Y                   Z               Mass
    ------------   -----------------  -----------------  -----------------  -----------------
         P            2.565123750330     0.048222425819    -0.174137069097    30.973761998420
         O           -0.787900249670    -0.511785574181    -0.860271069097    15.994914619570
         O           -3.193447249670     1.757389425819     0.201400930903    15.994914619570
         O           -3.603756249670    -0.547597574181    -0.940379069097    15.994914619570
         O           -0.972553249670    -1.692679574181     1.166443930903    15.994914619570
         O            1.454958750330     1.228182425819    -0.304734069097    15.994914619570
         O            1.695152750330    -1.294575574181    -0.341057069097    15.994914619570
         O            2.912686750330    -0.060430574181     1.406657930903    15.994914619570
         O            3.729038750330     0.289251425819    -1.049765069097    15.994914619570
         C           -2.224995249670     0.774132425819     0.558006930903    12.000000000000
         C           -0.941250249670     0.818342425819    -0.300911069097    12.000000000000
         C           -2.829120249670    -0.601107574181     0.238789930903    12.000000000000
         C           -1.699012549670    -1.355960274181     0.009372030903    12.000000000000
         C            0.276202750330     1.197277425819     0.523578930903    12.000000000000
         H           -1.983992249670     0.833483425819     1.627374930903     1.007825032230
         H           -1.063272249670     1.500373425819    -1.147334069097     1.007825032230
         H           -3.387656249670    -1.017878574181     1.086347930903     1.007825032230
         H           -1.754122249670    -2.289893574181    -0.687142069097     1.007825032230
         H            0.395307750330     0.501738425819     1.358739930903     1.007825032230
         H            0.151225750330     2.209334425819     0.924943930903     1.007825032230
         H           -2.937321249670     2.609751425819     0.591241930903     1.007825032230
         H           -4.088648249670     0.298936425819    -0.910431069097     1.007825032230
         H           -0.088248249670    -2.069123574181     0.988692930903     1.007825032230
         H            0.860967750330    -1.076898574181    -0.837508069097     1.007825032230
         H            3.800723750330     0.311854425819     1.560651930903     1.007825032230

  Basis Set: AUG-CC-PVTZ
    Blend: AUG-CC-PVTZ
  Basis Set: (AUG-CC-PVTZ AUX)
    Blend: AUG-CC-PVTZ-JKFIT
	 Reference Energy          =   -1135.7938186576711814 [Eh]
	 Singles Energy            =      -0.0000000000000000 [Eh]
	 Same-Spin Energy          =      -0.8183411447059453 [Eh]
	 Opposite-Spin Energy      =      -2.4251550324272229 [Eh]
	 Correlation Energy        =      -3.2434961771331681 [Eh]
	 Total Energy              =   -1139.0373148348044197 [Eh]

	 ================> DF-SCS-MP2 Energies <==================
	-----------------------------------------------------------
	 SCS Same-Spin Scale       =       0.3333333333333333 [-]
	 SCS Opposite-Spin Scale   =       1.2000000000000000 [-]
	 SCS Same-Spin Energy      =      -0.2727803815686484 [Eh]
	 SCS Opposite-Spin Energy  =      -2.9101860389126673 [Eh]
	 SCS Correlation Energy    =      -3.1829664204813155 [Eh]
	 SCS Total Energy          =   -1138.9767850781524885 [Eh]
	-----------------------------------------------------------

  Dipole Moment: [D]
     X:    -3.8596      Y:     2.2956      Z:     4.2327     Total:     6.1711

*** Psi4 exiting successfully. Buy a developer a beer!
