                               Psi4 1.3.2 release

  ==> Input File <==

--------------------------------------------------------------------------
#psi4
#
memory 32 gb

molecule  {
0 1
  P        2.6114510     0.0433530    -0.1897960
  O       -0.7415730    -0.5166550    -0.8759300
  O       -3.1471200     1.7525200     0.1857420
  O       -3.5574290    -0.5524670    -0.9560380
  O       -0.9262260    -1.6975490     1.1507850
  O        1.5012860     1.2233130    -0.3203930
  O        1.7414800    -1.2994450    -0.3567160
  O        2.9590140    -0.0653000     1.3909990
  O        3.7753660     0.2843820    -1.0654240
  C       -2.1786680     0.7692630     0.5423480
  C       -0.8949230     0.8134730    -0.3165700
  C       -2.7219181    -0.5395516     0.2783003
  C       -1.5369320    -1.4089660    -0.0835960
  C        0.3225300     1.1924080     0.5079200
  H       -1.9376650     0.8286140     1.6117160
  H       -1.0169450     1.4955040    -1.1629930
  H       -3.3413290    -1.0227480     1.0706890
  H       -1.7077950    -2.2947630    -0.7028010
  H        0.4416350     0.4968690     1.3430810
  H        0.1975530     2.2044650     0.9092850
  H       -2.8909940     2.6048820     0.5755830
  H       -4.0423210     0.2940670    -0.9260900
  H       -0.0419210    -2.0739930     0.9730340
  H        0.9072950    -1.0817680    -0.8531670
  H        3.8470510     0.3069850     1.5449930
units angstrom
no_reorient  #important for SAPT in psi4, default
symmetry c1  #important for SAPT in psi4, default
}

set PROPERTIES_ORIGIN ["COM"]
properties('MP2/aug-cc-pvtz', properties = ['dipole'])
--------------------------------------------------------------------------

    Molecular point group: c1
  Charge       = 0
  Multiplicity = 1
  Basis Set: AUG-CC-PVTZ
    Blend: AUG-CC-PVTZ
  Basis Set: (AUG-CC-PVTZ AUX)
    Blend: AUG-CC-PVTZ-JKFIT

    Orbital Energies [Eh]
    ---------------------

    Doubly Occupied:

       1A    -80.115758     2A    -20.611924     3A    -20.608465
       4A    -20.606202     5A    -20.604253     6A    -20.599289
       7A    -20.595153     8A    -20.568190     9A    -20.515295
      10A    -11.365085    11A    -11.323103    12A    -11.322795
      13A    -11.320431    14A    -11.306895    15A     -7.630707
      16A     -5.529129    17A     -5.529045    18A     -5.527543
      19A     -1.464810    20A     -1.449508    21A     -1.412429
      22A     -1.391589    23A     -1.379043    24A     -1.372221
      25A     -1.346560    26A     -1.296628    27A     -1.098651
      28A     -1.053608    29A     -0.949550    30A     -0.863725
      31A     -0.841371    32A     -0.828029    33A     -0.774758
      34A     -0.753360    35A     -0.751096    36A     -0.737978
      37A     -0.717902    38A     -0.694244    39A     -0.681248
      40A     -0.660941    41A     -0.653860    42A     -0.648326
      43A     -0.629381    44A     -0.614455    45A     -0.602357
      46A     -0.590923    47A     -0.581042    48A     -0.576381
      49A     -0.568985    50A     -0.552933    51A     -0.543095
      52A     -0.532644    53A     -0.525581    54A     -0.518487
      55A     -0.498023    56A     -0.489707    57A     -0.476314
      58A     -0.469597    59A     -0.465784    60A     -0.454944

  @DF-RHF Final Energy: -1135.80949737447781

   => Energetics <=

    Nuclear Repulsion Energy =           1217.1039156709973668
    One-Electron Energy =               -3987.4441596157907952
    Two-Electron Energy =                1634.5307465703158414
    Total Energy =                      -1135.8094973744778144
  Basis Set: (AUG-CC-PVTZ AUX)
    Blend: AUG-CC-PVTZ-RI
    Molecular point group: c1

    Geometry (in Angstrom), charge = 0, multiplicity = 1:

       Center              X                  Y                   Z               Mass
    ------------   -----------------  -----------------  -----------------  -----------------
         P            2.555909133372     0.047268291366    -0.172982045287    30.973761998420
         O           -0.797114866628    -0.512739708634    -0.859116045287    15.994914619570
         O           -3.202661866628     1.756435291366     0.202555954713    15.994914619570
         O           -3.612970866628    -0.548551708634    -0.939224045287    15.994914619570
         O           -0.981767866628    -1.693633708634     1.167598954713    15.994914619570
         O            1.445744133372     1.227228291366    -0.303579045287    15.994914619570
         O            1.685938133372    -1.295529708634    -0.339902045287    15.994914619570
         O            2.903472133372    -0.061384708634     1.407812954713    15.994914619570
         O            3.719824133372     0.288297291366    -1.048610045287    15.994914619570
         C           -2.234209866628     0.773178291366     0.559161954713    12.000000000000
         C           -0.950464866628     0.817388291366    -0.299756045287    12.000000000000
         C           -2.777459966628    -0.535636308634     0.295114254713    12.000000000000
         C           -1.592473866628    -1.405050708634    -0.066782045287    12.000000000000
         C            0.266988133372     1.196323291366     0.524733954713    12.000000000000
         H           -1.993206866628     0.832529291366     1.628529954713     1.007825032230
         H           -1.072486866628     1.499419291366    -1.146179045287     1.007825032230
         H           -3.396870866628    -1.018832708634     1.087502954713     1.007825032230
         H           -1.763336866628    -2.290847708634    -0.685987045287     1.007825032230
         H            0.386093133372     0.500784291366     1.359894954713     1.007825032230
         H            0.142011133372     2.208380291366     0.926098954713     1.007825032230
         H           -2.946535866628     2.608797291366     0.592396954713     1.007825032230
         H           -4.097862866628     0.297982291366    -0.909276045287     1.007825032230
         H           -0.097462866628    -2.070077708634     0.989847954713     1.007825032230
         H            0.851753133372    -1.077852708634    -0.836353045287     1.007825032230
         H            3.791509133372     0.310900291366     1.561806954713     1.007825032230

  Basis Set: AUG-CC-PVTZ
    Blend: AUG-CC-PVTZ
  Basis Set: (AUG-CC-PVTZ AUX)
    Blend: AUG-CC-PVTZ-JKFIT
	 Reference Energy          =   -1135.8094973744778144 [Eh]
	 Singles Energy            =      -0.0000000000000000 [Eh]
	 Same-Spin Energy          =      -0.8172628890321868 [Eh]
	 Opposite-Spin Energy      =      -2.4242391352497425 [Eh]
	 Correlation Energy        =      -3.2415020242819295 [Eh]
	 Total Energy              =   -1139.0509993987598136 [Eh]

	 ================> DF-SCS-MP2 Energies <==================
	-----------------------------------------------------------
	 SCS Same-Spin Scale       =       0.3333333333333333 [-]
	 SCS Opposite-Spin Scale   =       1.2000000000000000 [-]
	 SCS Same-Spin Energy      =      -0.2724209630107289 [Eh]
	 SCS Opposite-Spin Energy  =      -2.9090869622996909 [Eh]
	 SCS Correlation Energy    =      -3.1815079253104197 [Eh]
	 SCS Total Energy          =   -1138.9910052997881849 [Eh]
	-----------------------------------------------------------

  Dipole Moment: [D]
     X:    -3.2553      Y:     2.3329      Z:     4.1661     Total:     5.7789

*** Psi4 exiting successfully. Buy a developer a beer!
