                               Psi4 1.3.2 release

  ==> Input File <==

--------------------------------------------------------------------------
#psi4
#
memory 32 gb

molecule  {
0 1
  P        2.6114510     0.0433530    -0.1897960
  O       -0.7415730    -0.5166550    -0.8759300
  O       -3.1471200     1.7525200     0.1857420
  O       -3.5574290    -0.5524670    -0.9560380
  O       -0.9262260    -1.6975490     1.1507850
  O        1.5012860     1.2233130    -0.3203930
  O        1.7414800    -1.2994450    -0.3567160
  O        2.9590140    -0.0653000     1.3909990
  O        3.7753660     0.2843820    -1.0654240
  C       -2.1786680     0.7692630     0.5423480
  C       -0.8949230     0.8134730    -0.3165700
  C       -2.7827930    -0.6059770     0.2231310
  C       -1.5369320    -1.4089660    -0.0835960
  C        0.3225300     1.1924080     0.5079200
  H       -1.9376650     0.8286140     1.6117160
  H       -1.0169450     1.4955040    -1.1629930
  H       -3.3413290    -1.0227480     1.0706890
  H       -1.7390260    -2.4566726    -0.8159818
  H        0.4416350     0.4968690     1.3430810
  H        0.1975530     2.2044650     0.9092850
  H       -2.8909940     2.6048820     0.5755830
  H       -4.0423210     0.2940670    -0.9260900
  H       -0.0419210    -2.0739930     0.9730340
  H        0.9072950    -1.0817680    -0.8531670
  H        3.8470510     0.3069850     1.5449930
units angstrom
no_reorient  #important for SAPT in psi4, default
symmetry c1  #important for SAPT in psi4, default
}

set PROPERTIES_ORIGIN ["COM"]
properties('MP2/aug-cc-pvtz', properties = ['dipole'])
--------------------------------------------------------------------------

    Molecular point group: c1
  Charge       = 0
  Multiplicity = 1
  Basis Set: AUG-CC-PVTZ
    Blend: AUG-CC-PVTZ
  Basis Set: (AUG-CC-PVTZ AUX)
    Blend: AUG-CC-PVTZ-JKFIT

    Orbital Energies [Eh]
    ---------------------

    Doubly Occupied:

       1A    -80.115324     2A    -20.611583     3A    -20.607145
       4A    -20.605885     5A    -20.605734     6A    -20.598774
       7A    -20.598330     8A    -20.574711     9A    -20.514921
      10A    -11.382607    11A    -11.324718    12A    -11.322241
      13A    -11.319596    14A    -11.309134    15A     -7.630279
      16A     -5.528701    17A     -5.528615    18A     -5.527115
      19A     -1.464066    20A     -1.448992    21A     -1.412319
      22A     -1.391298    23A     -1.378557    24A     -1.374669
      25A     -1.369812    26A     -1.296259    27A     -1.085256
      28A     -1.045557    29A     -0.941637    30A     -0.857509
      31A     -0.842101    32A     -0.822900    33A     -0.770940
      34A     -0.758786    35A     -0.741017    36A     -0.732784
      37A     -0.716700    38A     -0.693472    39A     -0.685169
      40A     -0.661543    41A     -0.651138    42A     -0.646089
      43A     -0.631524    44A     -0.614083    45A     -0.600467
      46A     -0.596643    47A     -0.582382    48A     -0.577845
      49A     -0.570265    50A     -0.560505    51A     -0.543533
      52A     -0.530062    53A     -0.526337    54A     -0.512738
      55A     -0.489224    56A     -0.478501    57A     -0.474031
      58A     -0.467643    59A     -0.466065    60A     -0.451240

  @DF-RHF Final Energy: -1135.80098146986938

   => Energetics <=

    Nuclear Repulsion Energy =           1214.6902538822130282
    One-Electron Energy =               -3982.6483218532530373
    Two-Electron Energy =                1632.1570865011703972
    Total Energy =                      -1135.8009814698693845
  Basis Set: (AUG-CC-PVTZ AUX)
    Blend: AUG-CC-PVTZ-RI
    Molecular point group: c1

    Geometry (in Angstrom), charge = 0, multiplicity = 1:

       Center              X                  Y                   Z               Mass
    ------------   -----------------  -----------------  -----------------  -----------------
         P            2.559221788728     0.051443079986    -0.169607986958    30.973761998420
         O           -0.793802211272    -0.508564920014    -0.855741986958    15.994914619570
         O           -3.199349211272     1.760610079986     0.205930013042    15.994914619570
         O           -3.609658211272    -0.544376920014    -0.935849986958    15.994914619570
         O           -0.978455211272    -1.689458920014     1.170973013042    15.994914619570
         O            1.449056788728     1.231403079986    -0.300204986958    15.994914619570
         O            1.689250788728    -1.291354920014    -0.336527986958    15.994914619570
         O            2.906784788728    -0.057209920014     1.411187013042    15.994914619570
         O            3.723136788728     0.292472079986    -1.045235986958    15.994914619570
         C           -2.230897211272     0.777353079986     0.562536013042    12.000000000000
         C           -0.947152211272     0.821563079986    -0.296381986958    12.000000000000
         C           -2.835022211272    -0.597886920014     0.243319013042    12.000000000000
         C           -1.589161211272    -1.400875920014    -0.063407986958    12.000000000000
         C            0.270300788728     1.200498079986     0.528108013042    12.000000000000
         H           -1.989894211272     0.836704079986     1.631904013042     1.007825032230
         H           -1.069174211272     1.503594079986    -1.142804986958     1.007825032230
         H           -3.393558211272    -1.014657920014     1.090877013042     1.007825032230
         H           -1.791255211272    -2.448582520014    -0.795793786958     1.007825032230
         H            0.389405788728     0.504959079986     1.363269013042     1.007825032230
         H            0.145323788728     2.212555079986     0.929473013042     1.007825032230
         H           -2.943223211272     2.612972079986     0.595771013042     1.007825032230
         H           -4.094550211272     0.302157079986    -0.905901986958     1.007825032230
         H           -0.094150211272    -2.065902920014     0.993222013042     1.007825032230
         H            0.855065788728    -1.073677920014    -0.832978986958     1.007825032230
         H            3.794821788728     0.315075079986     1.565181013042     1.007825032230

  Basis Set: AUG-CC-PVTZ
    Blend: AUG-CC-PVTZ
  Basis Set: (AUG-CC-PVTZ AUX)
    Blend: AUG-CC-PVTZ-JKFIT
	 Reference Energy          =   -1135.8009814698693845 [Eh]
	 Singles Energy            =      -0.0000000000000000 [Eh]
	 Same-Spin Energy          =      -0.8169439339934014 [Eh]
	 Opposite-Spin Energy      =      -2.4241877809550592 [Eh]
	 Correlation Energy        =      -3.2411317149484606 [Eh]
	 Total Energy              =   -1139.0421131848179357 [Eh]

	 ================> DF-SCS-MP2 Energies <==================
	-----------------------------------------------------------
	 SCS Same-Spin Scale       =       0.3333333333333333 [-]
	 SCS Opposite-Spin Scale   =       1.2000000000000000 [-]
	 SCS Same-Spin Energy      =      -0.2723146446644671 [Eh]
	 SCS Opposite-Spin Energy  =      -2.9090253371460708 [Eh]
	 SCS Correlation Energy    =      -3.1813399818105381 [Eh]
	 SCS Total Energy          =   -1138.9823214516800363 [Eh]
	-----------------------------------------------------------

  Dipole Moment: [D]
     X:    -3.4369      Y:     2.3869      Z:     4.0970     Total:     5.8562

*** Psi4 exiting successfully. Buy a developer a beer!
