                               Psi4 1.4a3.dev225

  ==> Input File <==

--------------------------------------------------------------------------
#psi4
#
memory 32 gb

molecule  {
0 1
  P        2.6113660     0.0433910    -0.1897900
  O       -0.7416560    -0.5164190    -0.8762010
  O       -3.1473860     1.7523070     0.1855430
  O       -3.5574330    -0.5529450    -0.9556820
  O       -0.9255690    -1.6972900     1.1506350
  O        1.5012550     1.2233910    -0.3202530
  O        1.7411940    -1.2993510    -0.3564950
  O        2.9591660    -0.0655390     1.3909200
  O        3.7751240     0.2843830    -1.0656400
  C       -2.1787050     0.7693270     0.5422590
  C       -0.8949630     0.8136090    -0.3166340
  C       -2.7825860    -0.6061320     0.2233240
  C       -1.5089250    -1.3778004    -0.1111962
  C        0.3224410     1.1924200     0.5080110
  H       -1.9377070     0.8289040     1.6116220
  H       -1.0168440     1.4957790    -1.1629650
  H       -3.3408870    -1.0228010     1.0710960
  H       -1.7074320    -2.2947510    -0.7027390
  H        0.4414920     0.4968360     1.3431340
  H        0.1974400     2.2044510     0.9094280
  H       -2.8916000     2.6047160     0.5754970
  H       -4.0429610     0.2932130    -0.9254450
  H       -0.0410590    -2.0731950     0.9726900
  H        0.9073710    -1.0816890    -0.8535130
  H        3.8468470     0.3075270     1.5450430
units angstrom
no_reorient  #important for SAPT in psi4, default
symmetry c1  #important for SAPT in psi4, default
}

set PROPERTIES_ORIGIN ["COM"]
properties('MP2/aug-cc-pvtz', properties = ['dipole'])
--------------------------------------------------------------------------

    Molecular point group: c1
  Charge       = 0
  Multiplicity = 1
  Basis Set: AUG-CC-PVTZ
    Blend: AUG-CC-PVTZ
  Basis Set: (AUG-CC-PVTZ AUX)
    Blend: AUG-CC-PVTZ-JKFIT

    Orbital Energies [Eh]
    ---------------------

    Doubly Occupied:

       1A    -80.116111     2A    -20.612002     3A    -20.610786
       4A    -20.606663     5A    -20.606480     6A    -20.600098
       7A    -20.589540     8A    -20.574002     9A    -20.515609
      10A    -11.360438    11A    -11.323474    12A    -11.323204
      13A    -11.321552    14A    -11.305887    15A     -7.631067
      16A     -5.529487    17A     -5.529405    18A     -5.527901
      19A     -1.471815    20A     -1.451916    21A     -1.411678
      22A     -1.391430    23A     -1.379599    24A     -1.371646
      25A     -1.369357    26A     -1.296977    27A     -1.088336
      28A     -1.045412    29A     -0.946403    30A     -0.858605
      31A     -0.845645    32A     -0.828499    33A     -0.773036
      34A     -0.756132    35A     -0.749860    36A     -0.735721
      37A     -0.717857    38A     -0.694427    39A     -0.686563
      40A     -0.667098    41A     -0.653912    42A     -0.648811
      43A     -0.634128    44A     -0.613998    45A     -0.602555
      46A     -0.596409    47A     -0.583526    48A     -0.577900
      49A     -0.570742    50A     -0.561070    51A     -0.544002
      52A     -0.531892    53A     -0.527258    54A     -0.512013
      55A     -0.492103    56A     -0.485898    57A     -0.475604
      58A     -0.468951    59A     -0.465860    60A     -0.451686

  @DF-RHF Final Energy: -1135.82123319497532

   => Energetics <=

    Nuclear Repulsion Energy =           1216.7783476628628705
    One-Electron Energy =               -3986.7590879296781168
    Two-Electron Energy =                1634.1595070718399256
    Total Energy =                      -1135.8212331949753207
  Basis Set: (AUG-CC-PVTZ AUX)
    Blend: AUG-CC-PVTZ-RI
    Molecular point group: c1

    Geometry (in Angstrom), charge = 0, multiplicity = 1:

       Center              X                  Y                   Z               Mass
    ------------   -----------------  -----------------  -----------------  -----------------
         P            2.557554886169     0.049152069867    -0.168654139574    30.973761998420
         O           -0.795467113831    -0.510657930133    -0.855065139574    15.994914619570
         O           -3.201197113831     1.758068069867     0.206678860426    15.994914619570
         O           -3.611244113831    -0.547183930133    -0.934546139574    15.994914619570
         O           -0.979380113831    -1.691528930133     1.171770860426    15.994914619570
         O            1.447443886169     1.229152069867    -0.299117139574    15.994914619570
         O            1.687382886169    -1.293589930133    -0.335359139574    15.994914619570
         O            2.905354886169    -0.059777930133     1.412055860426    15.994914619570
         O            3.721312886169     0.290144069867    -1.044504139574    15.994914619570
         C           -2.232516113831     0.775088069867     0.563394860426    12.000000000000
         C           -0.948774113831     0.819370069867    -0.295498139574    12.000000000000
         C           -2.836397113831    -0.600370930133     0.244459860426    12.000000000000
         C           -1.562736113831    -1.372039330133    -0.090060339574    12.000000000000
         C            0.268629886169     1.198181069867     0.529146860426    12.000000000000
         H           -1.991518113831     0.834665069867     1.632757860426     1.007825032230
         H           -1.070655113831     1.501540069867    -1.141829139574     1.007825032230
         H           -3.394698113831    -1.017039930133     1.092231860426     1.007825032230
         H           -1.761243113831    -2.288989930133    -0.681603139574     1.007825032230
         H            0.387680886169     0.502597069867     1.364269860426     1.007825032230
         H            0.143628886169     2.210212069867     0.930563860426     1.007825032230
         H           -2.945411113831     2.610477069867     0.596632860426     1.007825032230
         H           -4.096772113831     0.298974069867    -0.904309139574     1.007825032230
         H           -0.094870113831    -2.067433930133     0.993825860426     1.007825032230
         H            0.853559886169    -1.075927930133    -0.832377139574     1.007825032230
         H            3.793035886169     0.313288069867     1.566178860426     1.007825032230

  Basis Set: AUG-CC-PVTZ
    Blend: AUG-CC-PVTZ
  Basis Set: (AUG-CC-PVTZ AUX)
    Blend: AUG-CC-PVTZ-JKFIT
	 Reference Energy          =   -1135.8212331949753207 [Eh]
	 Singles Energy            =      -0.0000000000000000 [Eh]
	 Same-Spin Energy          =      -0.8163121354089788 [Eh]
	 Opposite-Spin Energy      =      -2.4216805166443662 [Eh]
	 Correlation Energy        =      -3.2379926520533449 [Eh]
	 Total Energy              =   -1139.0592258470287561 [Eh]

	 ================> DF-SCS-MP2 Energies <==================
	-----------------------------------------------------------
	 SCS Same-Spin Scale       =       0.3333333333333333 [-]
	 SCS Opposite-Spin Scale   =       1.2000000000000000 [-]
	 SCS Same-Spin Energy      =      -0.2721040451363262 [Eh]
	 SCS Opposite-Spin Energy  =      -2.9060166199732396 [Eh]
	 SCS Correlation Energy    =      -3.1781206651095659 [Eh]
	 SCS Total Energy          =   -1138.9993538600849661 [Eh]
	-----------------------------------------------------------

  Dipole Moment: [D]
     X:    -3.3628      Y:     2.4857      Z:     3.9081     Total:     5.7237

*** Psi4 exiting successfully. Buy a developer a beer!
