                               Psi4 1.3.2 release

  ==> Input File <==

--------------------------------------------------------------------------
#psi4
#
memory 32 gb

molecule  {
0 1
  P        2.6114510     0.0433530    -0.1897960
  O       -0.7415730    -0.5166550    -0.8759300
  O       -3.1471200     1.7525200     0.1857420
  O       -3.5574290    -0.5524670    -0.9560380
  O       -0.9262260    -1.6975490     1.1507850
  O        1.5012860     1.2233130    -0.3203930
  O        1.7414800    -1.2994450    -0.3567160
  O        2.9590140    -0.0653000     1.3909990
  O        3.7753660     0.2843820    -1.0654240
  C       -2.1786680     0.7692630     0.5423480
  C       -0.8949230     0.8134730    -0.3165700
  C       -2.7827930    -0.6059770     0.2231310
  C       -1.4144877    -1.4602641    -0.1473809
  C        0.3225300     1.1924080     0.5079200
  H       -1.9376650     0.8286140     1.6117160
  H       -1.0169450     1.4955040    -1.1629930
  H       -3.3413290    -1.0227480     1.0706890
  H       -1.7077950    -2.2947630    -0.7028010
  H        0.4416350     0.4968690     1.3430810
  H        0.1975530     2.2044650     0.9092850
  H       -2.8909940     2.6048820     0.5755830
  H       -4.0423210     0.2940670    -0.9260900
  H       -0.0419210    -2.0739930     0.9730340
  H        0.9072950    -1.0817680    -0.8531670
  H        3.8470510     0.3069850     1.5449930
units angstrom
no_reorient  #important for SAPT in psi4, default
symmetry c1  #important for SAPT in psi4, default
}

set PROPERTIES_ORIGIN ["COM"]
properties('MP2/aug-cc-pvtz', properties = ['dipole'])
--------------------------------------------------------------------------

    Molecular point group: c1
  Charge       = 0
  Multiplicity = 1
  Basis Set: AUG-CC-PVTZ
    Blend: AUG-CC-PVTZ
  Basis Set: (AUG-CC-PVTZ AUX)
    Blend: AUG-CC-PVTZ-JKFIT

    Orbital Energies [Eh]
    ---------------------

    Doubly Occupied:

       1A    -80.117060     2A    -20.612784     3A    -20.610496
       4A    -20.607117     5A    -20.604224     6A    -20.601762
       7A    -20.596724     8A    -20.568580     9A    -20.516390
      10A    -11.360205    11A    -11.323772    12A    -11.322866
      13A    -11.319977    14A    -11.303147    15A     -7.632010
      16A     -5.530422    17A     -5.530355    18A     -5.528843
      19A     -1.474078    20A     -1.453071    21A     -1.409652
      22A     -1.392621    23A     -1.381059    24A     -1.378969
      25A     -1.365478    26A     -1.297755    27A     -1.087803
      28A     -1.026724    29A     -0.946670    30A     -0.858171
      31A     -0.841789    32A     -0.832415    33A     -0.772665
      34A     -0.756878    35A     -0.748327    36A     -0.731311
      37A     -0.718579    38A     -0.696914    39A     -0.688657
      40A     -0.672817    41A     -0.657958    42A     -0.650234
      43A     -0.633663    44A     -0.622796    45A     -0.602098
      46A     -0.594466    47A     -0.583234    48A     -0.576999
      49A     -0.569791    50A     -0.553220    51A     -0.545629
      52A     -0.536167    53A     -0.529106    54A     -0.511070
      55A     -0.493319    56A     -0.486839    57A     -0.474459
      58A     -0.468497    59A     -0.448880    60A     -0.438690

  @DF-RHF Final Energy: -1135.80306110364336

   => Energetics <=

    Nuclear Repulsion Energy =           1215.5943999815956431
    One-Electron Energy =               -3984.4024174483315619
    Two-Electron Energy =                1633.0049563630923330
    Total Energy =                      -1135.8030611036433584
  Basis Set: (AUG-CC-PVTZ AUX)
    Blend: AUG-CC-PVTZ-RI
    Molecular point group: c1

    Geometry (in Angstrom), charge = 0, multiplicity = 1:

       Center              X                  Y                   Z               Mass
    ------------   -----------------  -----------------  -----------------  -----------------
         P            2.552697084348     0.053409875549    -0.166776256016    30.973761998420
         O           -0.800326915652    -0.506598124451    -0.852910256016    15.994914619570
         O           -3.205873915652     1.762576875549     0.208761743984    15.994914619570
         O           -3.616182915652    -0.542410124451    -0.933018256016    15.994914619570
         O           -0.984979915652    -1.687492124451     1.173804743984    15.994914619570
         O            1.442532084348     1.233369875549    -0.297373256016    15.994914619570
         O            1.682726084348    -1.289388124451    -0.333696256016    15.994914619570
         O            2.900260084348    -0.055243124451     1.414018743984    15.994914619570
         O            3.716612084348     0.294438875549    -1.042404256016    15.994914619570
         C           -2.237421915652     0.779319875549     0.565367743984    12.000000000000
         C           -0.953676915652     0.823529875549    -0.293550256016    12.000000000000
         C           -2.841546915652    -0.595920124451     0.246150743984    12.000000000000
         C           -1.473241615652    -1.450207224451    -0.124361156016    12.000000000000
         C            0.263776084348     1.202464875549     0.530939743984    12.000000000000
         H           -1.996418915652     0.838670875549     1.634735743984     1.007825032230
         H           -1.075698915652     1.505560875549    -1.139973256016     1.007825032230
         H           -3.400082915652    -1.012691124451     1.093708743984     1.007825032230
         H           -1.766548915652    -2.284706124451    -0.679781256016     1.007825032230
         H            0.382881084348     0.506925875549     1.366100743984     1.007825032230
         H            0.138799084348     2.214521875549     0.932304743984     1.007825032230
         H           -2.949747915652     2.614938875549     0.598602743984     1.007825032230
         H           -4.101074915652     0.304123875549    -0.903070256016     1.007825032230
         H           -0.100674915652    -2.063936124451     0.996053743984     1.007825032230
         H            0.848541084348    -1.071711124451    -0.830147256016     1.007825032230
         H            3.788297084348     0.317041875549     1.568012743984     1.007825032230

  Basis Set: AUG-CC-PVTZ
    Blend: AUG-CC-PVTZ
  Basis Set: (AUG-CC-PVTZ AUX)
    Blend: AUG-CC-PVTZ-JKFIT
	 Reference Energy          =   -1135.8030611036433584 [Eh]
	 Singles Energy            =      -0.0000000000000000 [Eh]
	 Same-Spin Energy          =      -0.8167041144075792 [Eh]
	 Opposite-Spin Energy      =      -2.4227342582917260 [Eh]
	 Correlation Energy        =      -3.2394383726993050 [Eh]
	 Total Energy              =   -1139.0424994763427549 [Eh]

	 ================> DF-SCS-MP2 Energies <==================
	-----------------------------------------------------------
	 SCS Same-Spin Scale       =       0.3333333333333333 [-]
	 SCS Opposite-Spin Scale   =       1.2000000000000000 [-]
	 SCS Same-Spin Energy      =      -0.2722347048025264 [Eh]
	 SCS Opposite-Spin Energy  =      -2.9072811099500711 [Eh]
	 SCS Correlation Energy    =      -3.1795158147525973 [Eh]
	 SCS Total Energy          =   -1138.9825769183960347 [Eh]
	-----------------------------------------------------------

  Dipole Moment: [D]
     X:    -3.1009      Y:     2.3189      Z:     3.8932     Total:     5.4909

*** Psi4 exiting successfully. Buy a developer a beer!
