                               Psi4 1.3.2 release

  ==> Input File <==

--------------------------------------------------------------------------
#psi4
#
memory 32 gb

molecule  {
0 1
  P        2.6114510     0.0433530    -0.1897960
  O       -0.7415730    -0.5166550    -0.8759300
  O       -3.1471200     1.7525200     0.1857420
  O       -3.5574290    -0.5524670    -0.9560380
  O       -0.8908023    -1.7215480     1.1266715
  O        1.5012860     1.2233130    -0.3203930
  O        1.7414800    -1.2994450    -0.3567160
  O        2.9590140    -0.0653000     1.3909990
  O        3.7753660     0.2843820    -1.0654240
  C       -2.1786680     0.7692630     0.5423480
  C       -0.8949230     0.8134730    -0.3165700
  C       -2.7827930    -0.6059770     0.2231310
  C       -1.5369320    -1.4089660    -0.0835960
  C        0.3225300     1.1924080     0.5079200
  H       -1.9376650     0.8286140     1.6117160
  H       -1.0169450     1.4955040    -1.1629930
  H       -3.3413290    -1.0227480     1.0706890
  H       -1.7077950    -2.2947630    -0.7028010
  H        0.4416350     0.4968690     1.3430810
  H        0.1975530     2.2044650     0.9092850
  H       -2.8909940     2.6048820     0.5755830
  H       -4.0423210     0.2940670    -0.9260900
  H       -0.0419210    -2.0739930     0.9730340
  H        0.9072950    -1.0817680    -0.8531670
  H        3.8470510     0.3069850     1.5449930
units angstrom
no_reorient  #important for SAPT in psi4, default
symmetry c1  #important for SAPT in psi4, default
}

set PROPERTIES_ORIGIN ["COM"]
properties('MP2/aug-cc-pvtz', properties = ['dipole'])
--------------------------------------------------------------------------

    Molecular point group: c1
  Charge       = 0
  Multiplicity = 1
  Basis Set: AUG-CC-PVTZ
    Blend: AUG-CC-PVTZ
  Basis Set: (AUG-CC-PVTZ AUX)
    Blend: AUG-CC-PVTZ-JKFIT

    Orbital Energies [Eh]
    ---------------------

    Doubly Occupied:

       1A    -80.114570     2A    -20.610894     3A    -20.606864
       4A    -20.604944     5A    -20.602860     6A    -20.597679
       7A    -20.588807     8A    -20.576278     9A    -20.514279
      10A    -11.363320    11A    -11.324093    12A    -11.321305
      13A    -11.318338    14A    -11.309215    15A     -7.629520
      16A     -5.527944    17A     -5.527854    18A     -5.526358
      19A     -1.464085    20A     -1.448879    21A     -1.412912
      22A     -1.390903    23A     -1.377656    24A     -1.376866
      25A     -1.370667    26A     -1.295624    27A     -1.084630
      28A     -1.049361    29A     -0.948502    30A     -0.858754
      31A     -0.841972    32A     -0.831085    33A     -0.774886
      34A     -0.764046    35A     -0.748171    36A     -0.734713
      37A     -0.716513    38A     -0.692783    39A     -0.685944
      40A     -0.668639    41A     -0.653329    42A     -0.646993
      43A     -0.633589    44A     -0.613818    45A     -0.601300
      46A     -0.597628    47A     -0.581662    48A     -0.577595
      49A     -0.570155    50A     -0.560842    51A     -0.542919
      52A     -0.532134    53A     -0.527008    54A     -0.512576
      55A     -0.489868    56A     -0.487854    57A     -0.474941
      58A     -0.469678    59A     -0.466113    60A     -0.450917

  @DF-RHF Final Energy: -1135.82384311516716

   => Energetics <=

    Nuclear Repulsion Energy =           1216.1280268716136561
    One-Electron Energy =               -3985.5164820994327783
    Two-Electron Energy =                1633.5646121126519574
    Total Energy =                      -1135.8238431151671648
  Basis Set: (AUG-CC-PVTZ AUX)
    Blend: AUG-CC-PVTZ-RI
    Molecular point group: c1

    Geometry (in Angstrom), charge = 0, multiplicity = 1:

       Center              X                  Y                   Z               Mass
    ------------   -----------------  -----------------  -----------------  -----------------
         P            2.556621681609     0.052402501860    -0.168427098649    30.973761998420
         O           -0.796402318391    -0.507605498140    -0.854561098649    15.994914619570
         O           -3.201949318391     1.761569501860     0.207110901351    15.994914619570
         O           -3.612258318391    -0.543417498140    -0.934669098649    15.994914619570
         O           -0.945631618391    -1.712498498140     1.148040401351    15.994914619570
         O            1.446456681609     1.232362501860    -0.299024098649    15.994914619570
         O            1.686650681609    -1.290395498140    -0.335347098649    15.994914619570
         O            2.904184681609    -0.056250498140     1.412367901351    15.994914619570
         O            3.720536681609     0.293431501860    -1.044055098649    15.994914619570
         C           -2.233497318391     0.778312501860     0.563716901351    12.000000000000
         C           -0.949752318391     0.822522501860    -0.295201098649    12.000000000000
         C           -2.837622318391    -0.596927498140     0.244499901351    12.000000000000
         C           -1.591761318391    -1.399916498140    -0.062227098649    12.000000000000
         C            0.267700681609     1.201457501860     0.529288901351    12.000000000000
         H           -1.992494318391     0.837663501860     1.633084901351     1.007825032230
         H           -1.071774318391     1.504553501860    -1.141624098649     1.007825032230
         H           -3.396158318391    -1.013698498140     1.092057901351     1.007825032230
         H           -1.762624318391    -2.285713498140    -0.681432098649     1.007825032230
         H            0.386805681609     0.505918501860     1.364449901351     1.007825032230
         H            0.142723681609     2.213514501860     0.930653901351     1.007825032230
         H           -2.945823318391     2.613931501860     0.596951901351     1.007825032230
         H           -4.097150318391     0.303116501860    -0.904721098649     1.007825032230
         H           -0.096750318391    -2.064943498140     0.994402901351     1.007825032230
         H            0.852465681609    -1.072718498140    -0.831798098649     1.007825032230
         H            3.792221681609     0.316034501860     1.566361901351     1.007825032230

  Basis Set: AUG-CC-PVTZ
    Blend: AUG-CC-PVTZ
  Basis Set: (AUG-CC-PVTZ AUX)
    Blend: AUG-CC-PVTZ-JKFIT
	 Reference Energy          =   -1135.8238431151671648 [Eh]
	 Singles Energy            =      -0.0000000000000000 [Eh]
	 Same-Spin Energy          =      -0.8154608243577695 [Eh]
	 Opposite-Spin Energy      =      -2.4200473195965579 [Eh]
	 Correlation Energy        =      -3.2355081439543274 [Eh]
	 Total Energy              =   -1139.0593512591215131 [Eh]

	 ================> DF-SCS-MP2 Energies <==================
	-----------------------------------------------------------
	 SCS Same-Spin Scale       =       0.3333333333333333 [-]
	 SCS Opposite-Spin Scale   =       1.2000000000000000 [-]
	 SCS Same-Spin Energy      =      -0.2718202747859231 [Eh]
	 SCS Opposite-Spin Energy  =      -2.9040567835158693 [Eh]
	 SCS Correlation Energy    =      -3.1758770583017926 [Eh]
	 SCS Total Energy          =   -1138.9997201734688588 [Eh]
	-----------------------------------------------------------

  Dipole Moment: [D]
     X:    -3.5721      Y:     2.3501      Z:     4.0441     Total:     5.8854

*** Psi4 exiting successfully. Buy a developer a beer!
