                               Psi4 1.4a3.dev225

  ==> Input File <==

--------------------------------------------------------------------------
#psi4
#
memory 32 gb

molecule  {
0 1
  P        2.6113660     0.0433910    -0.1897900
  O       -0.7416560    -0.5164190    -0.8762010
  O       -3.1473860     1.7523070     0.1855430
  O       -3.5574330    -0.5529450    -0.9556820
  O       -0.9255690    -1.6972900     1.1506350
  O        1.5012550     1.2233910    -0.3202530
  O        1.7411940    -1.2993510    -0.3564950
  O        2.9591660    -0.0655390     1.3909200
  O        3.7751240     0.2843830    -1.0656400
  C       -2.1787050     0.7693270     0.5422590
  C       -0.8949630     0.8136090    -0.3166340
  C       -2.7825860    -0.6061320     0.2233240
  C       -1.5366410    -1.4089160    -0.0835620
  C        0.3064059     1.1874305     0.4971491
  H       -1.9377070     0.8289040     1.6116220
  H       -1.0168440     1.4957790    -1.1629650
  H       -3.3408870    -1.0228010     1.0710960
  H       -1.7074320    -2.2947510    -0.7027390
  H        0.4414920     0.4968360     1.3431340
  H        0.1974400     2.2044510     0.9094280
  H       -2.8916000     2.6047160     0.5754970
  H       -4.0429610     0.2932130    -0.9254450
  H       -0.0410590    -2.0731950     0.9726900
  H        0.9073710    -1.0816890    -0.8535130
  H        3.8468470     0.3075270     1.5450430
units angstrom
no_reorient  #important for SAPT in psi4, default
symmetry c1  #important for SAPT in psi4, default
}

set PROPERTIES_ORIGIN ["COM"]
properties('MP2/aug-cc-pvtz', properties = ['dipole'])
--------------------------------------------------------------------------

    Molecular point group: c1
  Charge       = 0
  Multiplicity = 1
  Basis Set: AUG-CC-PVTZ
    Blend: AUG-CC-PVTZ
  Basis Set: (AUG-CC-PVTZ AUX)
    Blend: AUG-CC-PVTZ-JKFIT

    Orbital Energies [Eh]
    ---------------------

    Doubly Occupied:

       1A    -80.114470     2A    -20.610839     3A    -20.606633
       4A    -20.604162     5A    -20.603718     6A    -20.598159
       7A    -20.594875     8A    -20.575134     9A    -20.514260
      10A    -11.362454    11A    -11.323974    12A    -11.321985
      13A    -11.317995    14A    -11.307614    15A     -7.629407
      16A     -5.527823    17A     -5.527756    18A     -5.526244
      19A     -1.463033    20A     -1.447758    21A     -1.411802
      22A     -1.389372    23A     -1.377485    24A     -1.373878
      25A     -1.368904    26A     -1.295520    27A     -1.086959
      28A     -1.048542    29A     -0.946162    30A     -0.858040
      31A     -0.841944    32A     -0.829163    33A     -0.772054
      34A     -0.759643    35A     -0.748131    36A     -0.733992
      37A     -0.716373    38A     -0.692286    39A     -0.684603
      40A     -0.667133    41A     -0.652469    42A     -0.647625
      43A     -0.633188    44A     -0.613715    45A     -0.601473
      46A     -0.596263    47A     -0.581468    48A     -0.577172
      49A     -0.569923    50A     -0.560469    51A     -0.542671
      52A     -0.531583    53A     -0.526823    54A     -0.511506
      55A     -0.490595    56A     -0.488431    57A     -0.475381
      58A     -0.469165    59A     -0.465718    60A     -0.452199

  @DF-RHF Final Energy: -1135.82201319370779

   => Energetics <=

    Nuclear Repulsion Energy =           1216.1485813730305381
    One-Electron Energy =               -3985.6049567754885175
    Two-Electron Energy =                1633.6343622087501899
    Total Energy =                      -1135.8220131937077895
  Basis Set: (AUG-CC-PVTZ AUX)
    Blend: AUG-CC-PVTZ-RI
    Molecular point group: c1

    Geometry (in Angstrom), charge = 0, multiplicity = 1:

       Center              X                  Y                   Z               Mass
    ------------   -----------------  -----------------  -----------------  -----------------
         P            2.559837362173     0.051035657351    -0.169529143226    30.973761998420
         O           -0.793184637827    -0.508774342649    -0.855940143226    15.994914619570
         O           -3.198914637827     1.759951657351     0.205803856774    15.994914619570
         O           -3.608961637827    -0.545300342649    -0.935421143226    15.994914619570
         O           -0.977097637827    -1.689645342649     1.170895856774    15.994914619570
         O            1.449726362173     1.231035657351    -0.299992143226    15.994914619570
         O            1.689665362173    -1.291706342649    -0.336234143226    15.994914619570
         O            2.907637362173    -0.057894342649     1.411180856774    15.994914619570
         O            3.723595362173     0.292027657351    -1.045379143226    15.994914619570
         C           -2.230233637827     0.776971657351     0.562519856774    12.000000000000
         C           -0.946491637827     0.821253657351    -0.296373143226    12.000000000000
         C           -2.834114637827    -0.598487342649     0.243584856774    12.000000000000
         C           -1.588169637827    -1.401271342649    -0.063301143226    12.000000000000
         C            0.254877262173     1.195075157351     0.517409956774    12.000000000000
         H           -1.989235637827     0.836548657351     1.631882856774     1.007825032230
         H           -1.068372637827     1.503423657351    -1.142704143226     1.007825032230
         H           -3.392415637827    -1.015156342649     1.091356856774     1.007825032230
         H           -1.758960637827    -2.287106342649    -0.682478143226     1.007825032230
         H            0.389963362173     0.504480657351     1.363394856774     1.007825032230
         H            0.145911362173     2.212095657351     0.929688856774     1.007825032230
         H           -2.943128637827     2.612360657351     0.595757856774     1.007825032230
         H           -4.094489637827     0.300857657351    -0.905184143226     1.007825032230
         H           -0.092587637827    -2.065550342649     0.992950856774     1.007825032230
         H            0.855842362173    -1.074044342649    -0.833252143226     1.007825032230
         H            3.795318362173     0.315171657351     1.565303856774     1.007825032230

  Basis Set: AUG-CC-PVTZ
    Blend: AUG-CC-PVTZ
  Basis Set: (AUG-CC-PVTZ AUX)
    Blend: AUG-CC-PVTZ-JKFIT
	 Reference Energy          =   -1135.8220131937077895 [Eh]
	 Singles Energy            =      -0.0000000000000000 [Eh]
	 Same-Spin Energy          =      -0.8164224428312105 [Eh]
	 Opposite-Spin Energy      =      -2.4220186343495249 [Eh]
	 Correlation Energy        =      -3.2384410771807355 [Eh]
	 Total Energy              =   -1139.0604542708886129 [Eh]

	 ================> DF-SCS-MP2 Energies <==================
	-----------------------------------------------------------
	 SCS Same-Spin Scale       =       0.3333333333333333 [-]
	 SCS Opposite-Spin Scale   =       1.2000000000000000 [-]
	 SCS Same-Spin Energy      =      -0.2721408142770702 [Eh]
	 SCS Opposite-Spin Energy  =      -2.9064223612194300 [Eh]
	 SCS Correlation Energy    =      -3.1785631754965000 [Eh]
	 SCS Total Energy          =   -1139.0005763692042819 [Eh]
	-----------------------------------------------------------

  Dipole Moment: [D]
     X:    -3.5319      Y:     2.2974      Z:     4.0358     Total:     5.8344

*** Psi4 exiting successfully. Buy a developer a beer!
