                               Psi4 1.4a3.dev225

  ==> Input File <==

--------------------------------------------------------------------------
#psi4
#
memory 32 gb

molecule  {
0 1
  P        2.6113660     0.0433910    -0.1897900
  O       -0.7416560    -0.5164190    -0.8762010
  O       -3.1473860     1.7523070     0.1855430
  O       -3.5574330    -0.5529450    -0.9556820
  O       -0.9255690    -1.6972900     1.1506350
  O        1.5012550     1.2233910    -0.3202530
  O        1.7411940    -1.2993510    -0.3564950
  O        2.9591660    -0.0655390     1.3909200
  O        3.7751240     0.2843830    -1.0656400
  C       -2.1787050     0.7693270     0.5422590
  C       -0.8949630     0.8136090    -0.3166340
  C       -2.7825860    -0.6061320     0.2233240
  C       -1.5149265    -1.4191634    -0.0397046
  C        0.3224410     1.1924200     0.5080110
  H       -1.9377070     0.8289040     1.6116220
  H       -1.0168440     1.4957790    -1.1629650
  H       -3.3408870    -1.0228010     1.0710960
  H       -1.7074320    -2.2947510    -0.7027390
  H        0.4414920     0.4968360     1.3431340
  H        0.1974400     2.2044510     0.9094280
  H       -2.8916000     2.6047160     0.5754970
  H       -4.0429610     0.2932130    -0.9254450
  H       -0.0410590    -2.0731950     0.9726900
  H        0.9073710    -1.0816890    -0.8535130
  H        3.8468470     0.3075270     1.5450430
units angstrom
no_reorient  #important for SAPT in psi4, default
symmetry c1  #important for SAPT in psi4, default
}

set PROPERTIES_ORIGIN ["COM"]
properties('MP2/aug-cc-pvtz', properties = ['dipole'])
--------------------------------------------------------------------------

    Molecular point group: c1
  Charge       = 0
  Multiplicity = 1
  Basis Set: AUG-CC-PVTZ
    Blend: AUG-CC-PVTZ
  Basis Set: (AUG-CC-PVTZ AUX)
    Blend: AUG-CC-PVTZ-JKFIT

    Orbital Energies [Eh]
    ---------------------

    Doubly Occupied:

       1A    -80.115117     2A    -20.611548     3A    -20.605123
       4A    -20.604878     5A    -20.603306     6A    -20.599532
       7A    -20.598795     8A    -20.574166     9A    -20.514717
      10A    -11.363121    11A    -11.321958    12A    -11.320824
      13A    -11.316085    14A    -11.306721    15A     -7.630066
      16A     -5.528482    17A     -5.528407    18A     -5.526903
      19A     -1.466384    20A     -1.451230    21A     -1.413055
      22A     -1.392166    23A     -1.379856    24A     -1.377586
      25A     -1.368653    26A     -1.296031    27A     -1.082063
      28A     -1.044031    29A     -0.944776    30A     -0.857951
      31A     -0.839653    32A     -0.829247    33A     -0.774907
      34A     -0.764611    35A     -0.746143    36A     -0.732772
      37A     -0.717009    38A     -0.694863    39A     -0.684811
      40A     -0.669021    41A     -0.653204    42A     -0.649371
      43A     -0.633705    44A     -0.619316    45A     -0.601503
      46A     -0.595811    47A     -0.581708    48A     -0.577486
      49A     -0.569972    50A     -0.558193    51A     -0.544153
      52A     -0.532401    53A     -0.527463    54A     -0.510484
      55A     -0.486837    56A     -0.484980    57A     -0.474729
      58A     -0.468203    59A     -0.464674    60A     -0.448948

  @DF-RHF Final Energy: -1135.82023862362735

   => Energetics <=

    Nuclear Repulsion Energy =           1216.1341213896887439
    One-Electron Energy =               -3985.5493058584074788
    Two-Electron Energy =                1633.5949458450911607
    Total Energy =                      -1135.8202386236273469
  Basis Set: (AUG-CC-PVTZ AUX)
    Blend: AUG-CC-PVTZ-RI
    Molecular point group: c1

    Geometry (in Angstrom), charge = 0, multiplicity = 1:

       Center              X                  Y                   Z               Mass
    ------------   -----------------  -----------------  -----------------  -----------------
         P            2.557867981834     0.051309959724    -0.172383825489    30.973761998420
         O           -0.795154018166    -0.508500040276    -0.858794825489    15.994914619570
         O           -3.200884018166     1.760225959724     0.202949174511    15.994914619570
         O           -3.610931018166    -0.545026040276    -0.938275825489    15.994914619570
         O           -0.979067018166    -1.689371040276     1.168041174511    15.994914619570
         O            1.447756981834     1.231309959724    -0.302846825489    15.994914619570
         O            1.687695981834    -1.291432040276    -0.339088825489    15.994914619570
         O            2.905667981834    -0.057620040276     1.408326174511    15.994914619570
         O            3.721625981834     0.292301959724    -1.048233825489    15.994914619570
         C           -2.232203018166     0.777245959724     0.559665174511    12.000000000000
         C           -0.948461018166     0.821527959724    -0.299227825489    12.000000000000
         C           -2.836084018166    -0.598213040276     0.240730174511    12.000000000000
         C           -1.568424518166    -1.411244440276    -0.022298425489    12.000000000000
         C            0.268942981834     1.200338959724     0.525417174511    12.000000000000
         H           -1.991205018166     0.836822959724     1.629028174511     1.007825032230
         H           -1.070342018166     1.503697959724    -1.145558825489     1.007825032230
         H           -3.394385018166    -1.014882040276     1.088502174511     1.007825032230
         H           -1.760930018166    -2.286832040276    -0.685332825489     1.007825032230
         H            0.387993981834     0.504754959724     1.360540174511     1.007825032230
         H            0.143941981834     2.212369959724     0.926834174511     1.007825032230
         H           -2.945098018166     2.612634959724     0.592903174511     1.007825032230
         H           -4.096459018166     0.301131959724    -0.908038825489     1.007825032230
         H           -0.094557018166    -2.065276040276     0.990096174511     1.007825032230
         H            0.853872981834    -1.073770040276    -0.836106825489     1.007825032230
         H            3.793348981834     0.315445959724     1.562449174511     1.007825032230

  Basis Set: AUG-CC-PVTZ
    Blend: AUG-CC-PVTZ
  Basis Set: (AUG-CC-PVTZ AUX)
    Blend: AUG-CC-PVTZ-JKFIT
	 Reference Energy          =   -1135.8202386236273469 [Eh]
	 Singles Energy            =      -0.0000000000000000 [Eh]
	 Same-Spin Energy          =      -0.8165214153852215 [Eh]
	 Opposite-Spin Energy      =      -2.4217615668458841 [Eh]
	 Correlation Energy        =      -3.2382829822311057 [Eh]
	 Total Energy              =   -1139.0585216058584592 [Eh]

	 ================> DF-SCS-MP2 Energies <==================
	-----------------------------------------------------------
	 SCS Same-Spin Scale       =       0.3333333333333333 [-]
	 SCS Opposite-Spin Scale   =       1.2000000000000000 [-]
	 SCS Same-Spin Energy      =      -0.2721738051284072 [Eh]
	 SCS Opposite-Spin Energy  =      -2.9061138802150608 [Eh]
	 SCS Correlation Energy    =      -3.1782876853434678 [Eh]
	 SCS Total Energy          =   -1138.9985263089708951 [Eh]
	-----------------------------------------------------------

  Dipole Moment: [D]
     X:    -3.3913      Y:     2.1812      Z:     4.2256     Total:     5.8407

*** Psi4 exiting successfully. Buy a developer a beer!
