                               Psi4 1.3.2 release

  ==> Input File <==

--------------------------------------------------------------------------
#psi4
#
memory 32 gb

molecule  {
0 1
  P        2.6114510     0.0433530    -0.1897960
  O       -0.7417505    -0.5333809    -0.8945492
  O       -3.1471200     1.7525200     0.1857420
  O       -3.5574290    -0.5524670    -0.9560380
  O       -0.9262260    -1.6975490     1.1507850
  O        1.5012860     1.2233130    -0.3203930
  O        1.7414800    -1.2994450    -0.3567160
  O        2.9590140    -0.0653000     1.3909990
  O        3.7753660     0.2843820    -1.0654240
  C       -2.1786680     0.7692630     0.5423480
  C       -0.8949230     0.8134730    -0.3165700
  C       -2.7827930    -0.6059770     0.2231310
  C       -1.5369320    -1.4089660    -0.0835960
  C        0.3225300     1.1924080     0.5079200
  H       -1.9376650     0.8286140     1.6117160
  H       -1.0169450     1.4955040    -1.1629930
  H       -3.3413290    -1.0227480     1.0706890
  H       -1.7077950    -2.2947630    -0.7028010
  H        0.4416350     0.4968690     1.3430810
  H        0.1975530     2.2044650     0.9092850
  H       -2.8909940     2.6048820     0.5755830
  H       -4.0423210     0.2940670    -0.9260900
  H       -0.0419210    -2.0739930     0.9730340
  H        0.9072950    -1.0817680    -0.8531670
  H        3.8470510     0.3069850     1.5449930
units angstrom
no_reorient  #important for SAPT in psi4, default
symmetry c1  #important for SAPT in psi4, default
}

set PROPERTIES_ORIGIN ["COM"]
properties('MP2/aug-cc-pvtz', properties = ['dipole'])
--------------------------------------------------------------------------

    Molecular point group: c1
  Charge       = 0
  Multiplicity = 1
  Basis Set: AUG-CC-PVTZ
    Blend: AUG-CC-PVTZ
  Basis Set: (AUG-CC-PVTZ AUX)
    Blend: AUG-CC-PVTZ-JKFIT

    Orbital Energies [Eh]
    ---------------------

    Doubly Occupied:

       1A    -80.114993     2A    -20.611277     3A    -20.606934
       4A    -20.605488     5A    -20.604389     6A    -20.598085
       7A    -20.594830     8A    -20.574758     9A    -20.514644
      10A    -11.361225    11A    -11.324326    12A    -11.322687
      13A    -11.320335    14A    -11.307365    15A     -7.629944
      16A     -5.528368    17A     -5.528278    18A     -5.526781
      19A     -1.461259    20A     -1.446940    21A     -1.411811
      22A     -1.390820    23A     -1.378070    24A     -1.373425
      25A     -1.366351    26A     -1.295979    27A     -1.085962
      28A     -1.045801    29A     -0.946147    30A     -0.858142
      31A     -0.841050    32A     -0.829002    33A     -0.771697
      34A     -0.759292    35A     -0.746554    36A     -0.734355
      37A     -0.716913    38A     -0.692985    39A     -0.684261
      40A     -0.666233    41A     -0.652889    42A     -0.646116
      43A     -0.632758    44A     -0.613180    45A     -0.601863
      46A     -0.594990    47A     -0.582112    48A     -0.577737
      49A     -0.569557    50A     -0.559714    51A     -0.543312
      52A     -0.532051    53A     -0.526613    54A     -0.512185
      55A     -0.489911    56A     -0.489439    57A     -0.475719
      58A     -0.469249    59A     -0.465947    60A     -0.451463

  @DF-RHF Final Energy: -1135.82116640190475

   => Energetics <=

    Nuclear Repulsion Energy =           1215.1948572015526224
    One-Electron Energy =               -3983.7029244390027998
    Two-Electron Energy =                1632.6869008355454298
    Total Energy =                      -1135.8211664019047475
  Basis Set: (AUG-CC-PVTZ AUX)
    Blend: AUG-CC-PVTZ-RI
    Molecular point group: c1

    Geometry (in Angstrom), charge = 0, multiplicity = 1:

       Center              X                  Y                   Z               Mass
    ------------   -----------------  -----------------  -----------------  -----------------
         P            2.559097293504     0.051896750007    -0.168809157524    30.973761998420
         O           -0.794104206496    -0.524837149993    -0.873562357524    15.994914619570
         O           -3.199473706496     1.761063750007     0.206728842476    15.994914619570
         O           -3.609782706496    -0.543923249993    -0.935051157524    15.994914619570
         O           -0.978579706496    -1.689005249993     1.171771842476    15.994914619570
         O            1.448932293504     1.231856750007    -0.299406157524    15.994914619570
         O            1.689126293504    -1.290901249993    -0.335729157524    15.994914619570
         O            2.906660293504    -0.056756249993     1.411985842476    15.994914619570
         O            3.723012293504     0.292925750007    -1.044437157524    15.994914619570
         C           -2.231021706496     0.777806750007     0.563334842476    12.000000000000
         C           -0.947276706496     0.822016750007    -0.295583157524    12.000000000000
         C           -2.835146706496    -0.597433249993     0.244117842476    12.000000000000
         C           -1.589285706496    -1.400422249993    -0.062609157524    12.000000000000
         C            0.270176293504     1.200951750007     0.528906842476    12.000000000000
         H           -1.990018706496     0.837157750007     1.632702842476     1.007825032230
         H           -1.069298706496     1.504047750007    -1.142006157524     1.007825032230
         H           -3.393682706496    -1.014204249993     1.091675842476     1.007825032230
         H           -1.760148706496    -2.286219249993    -0.681814157524     1.007825032230
         H            0.389281293504     0.505412750007     1.364067842476     1.007825032230
         H            0.145199293504     2.213008750007     0.930271842476     1.007825032230
         H           -2.943347706496     2.613425750007     0.596569842476     1.007825032230
         H           -4.094674706496     0.302610750007    -0.905103157524     1.007825032230
         H           -0.094274706496    -2.065449249993     0.994020842476     1.007825032230
         H            0.854941293504    -1.073224249993    -0.832180157524     1.007825032230
         H            3.794697293504     0.315528750007     1.565979842476     1.007825032230

  Basis Set: AUG-CC-PVTZ
    Blend: AUG-CC-PVTZ
  Basis Set: (AUG-CC-PVTZ AUX)
    Blend: AUG-CC-PVTZ-JKFIT
	 Reference Energy          =   -1135.8211664019047475 [Eh]
	 Singles Energy            =      -0.0000000000000000 [Eh]
	 Same-Spin Energy          =      -0.8164724265669840 [Eh]
	 Opposite-Spin Energy      =      -2.4225911945633376 [Eh]
	 Correlation Energy        =      -3.2390636211303216 [Eh]
	 Total Energy              =   -1139.0602300230350465 [Eh]

	 ================> DF-SCS-MP2 Energies <==================
	-----------------------------------------------------------
	 SCS Same-Spin Scale       =       0.3333333333333333 [-]
	 SCS Opposite-Spin Scale   =       1.2000000000000000 [-]
	 SCS Same-Spin Energy      =      -0.2721574755223280 [Eh]
	 SCS Opposite-Spin Energy  =      -2.9071094334760050 [Eh]
	 SCS Correlation Energy    =      -3.1792669089983332 [Eh]
	 SCS Total Energy          =   -1139.0004333109031904 [Eh]
	-----------------------------------------------------------

  Dipole Moment: [D]
     X:    -3.4826      Y:     2.3645      Z:     4.0731     Total:     5.8574

*** Psi4 exiting successfully. Buy a developer a beer!
