                               Psi4 1.3.2 release

  ==> Input File <==

--------------------------------------------------------------------------
#psi4
#
memory 32 gb

molecule  {
0 1
  P        2.6114510     0.0433530    -0.1897960
  O       -0.7432851    -0.4525192    -0.7990973
  O       -3.1471200     1.7525200     0.1857420
  O       -3.5574290    -0.5524670    -0.9560380
  O       -0.9262260    -1.6975490     1.1507850
  O        1.5012860     1.2233130    -0.3203930
  O        1.7414800    -1.2994450    -0.3567160
  O        2.9590140    -0.0653000     1.3909990
  O        3.7753660     0.2843820    -1.0654240
  C       -2.1786680     0.7692630     0.5423480
  C       -0.8949230     0.8134730    -0.3165700
  C       -2.7827930    -0.6059770     0.2231310
  C       -1.5369320    -1.4089660    -0.0835960
  C        0.3225300     1.1924080     0.5079200
  H       -1.9376650     0.8286140     1.6117160
  H       -1.0169450     1.4955040    -1.1629930
  H       -3.3413290    -1.0227480     1.0706890
  H       -1.7077950    -2.2947630    -0.7028010
  H        0.4416350     0.4968690     1.3430810
  H        0.1975530     2.2044650     0.9092850
  H       -2.8909940     2.6048820     0.5755830
  H       -4.0423210     0.2940670    -0.9260900
  H       -0.0419210    -2.0739930     0.9730340
  H        0.9072950    -1.0817680    -0.8531670
  H        3.8470510     0.3069850     1.5449930
units angstrom
no_reorient  #important for SAPT in psi4, default
symmetry c1  #important for SAPT in psi4, default
}

set PROPERTIES_ORIGIN ["COM"]
properties('MP2/aug-cc-pvtz', properties = ['dipole'])
--------------------------------------------------------------------------

    Molecular point group: c1
  Charge       = 0
  Multiplicity = 1
  Basis Set: AUG-CC-PVTZ
    Blend: AUG-CC-PVTZ
  Basis Set: (AUG-CC-PVTZ AUX)
    Blend: AUG-CC-PVTZ-JKFIT

    Orbital Energies [Eh]
    ---------------------

    Doubly Occupied:

       1A    -80.114898     2A    -20.610961     3A    -20.603593
       4A    -20.603333     5A    -20.600280     6A    -20.598921
       7A    -20.594896     8A    -20.575219     9A    -20.514549
      10A    -11.366623    11A    -11.319063    12A    -11.315409
      13A    -11.309864    14A    -11.306821    15A     -7.629851
      16A     -5.528255    17A     -5.528205    18A     -5.526690
      19A     -1.477033    20A     -1.451314    21A     -1.409801
      22A     -1.390691    23A     -1.379736    24A     -1.378281
      25A     -1.372221    26A     -1.295885    27A     -1.076964
      28A     -1.052767    29A     -0.949366    30A     -0.857312
      31A     -0.846285    32A     -0.829246    33A     -0.773867
      34A     -0.760380    35A     -0.753099    36A     -0.732962
      37A     -0.716594    38A     -0.692475    39A     -0.685835
      40A     -0.671425    41A     -0.658169    42A     -0.651733
      43A     -0.633240    44A     -0.615050    45A     -0.600870
      46A     -0.597064    47A     -0.581863    48A     -0.577014
      49A     -0.569232    50A     -0.562058    51A     -0.543694
      52A     -0.533403    53A     -0.527994    54A     -0.510768
      55A     -0.493238    56A     -0.480741    57A     -0.472634
      58A     -0.468654    59A     -0.463845    60A     -0.445375

  @DF-RHF Final Energy: -1135.82069799715146

   => Energetics <=

    Nuclear Repulsion Energy =           1218.8698425796435458
    One-Electron Energy =               -3991.0058652855914261
    Two-Electron Energy =                1636.3153247087961972
    Total Energy =                      -1135.8206979971514556
  Basis Set: (AUG-CC-PVTZ AUX)
    Blend: AUG-CC-PVTZ-RI
    Molecular point group: c1

    Geometry (in Angstrom), charge = 0, multiplicity = 1:

       Center              X                  Y                   Z               Mass
    ------------   -----------------  -----------------  -----------------  -----------------
         P            2.559204005469     0.046273844422    -0.175446626457    30.973761998420
         O           -0.795532094531    -0.449598355578    -0.784747926457    15.994914619570
         O           -3.199366994531     1.755440844422     0.200091373543    15.994914619570
         O           -3.609675994531    -0.549546155578    -0.941688626457    15.994914619570
         O           -0.978472994531    -1.694628155578     1.165134373543    15.994914619570
         O            1.449039005469     1.226233844422    -0.306043626457    15.994914619570
         O            1.689233005469    -1.296524155578    -0.342366626457    15.994914619570
         O            2.906767005469    -0.062379155578     1.405348373543    15.994914619570
         O            3.723119005469     0.287302844422    -1.051074626457    15.994914619570
         C           -2.230914994531     0.772183844422     0.556697373543    12.000000000000
         C           -0.947169994531     0.816393844422    -0.302220626457    12.000000000000
         C           -2.835039994531    -0.603056155578     0.237480373543    12.000000000000
         C           -1.589178994531    -1.406045155578    -0.069246626457    12.000000000000
         C            0.270283005469     1.195328844422     0.522269373543    12.000000000000
         H           -1.989911994531     0.831534844422     1.626065373543     1.007825032230
         H           -1.069191994531     1.498424844422    -1.148643626457     1.007825032230
         H           -3.393575994531    -1.019827155578     1.085038373543     1.007825032230
         H           -1.760041994531    -2.291842155578    -0.688451626457     1.007825032230
         H            0.389388005469     0.499789844422     1.357430373543     1.007825032230
         H            0.145306005469     2.207385844422     0.923634373543     1.007825032230
         H           -2.943240994531     2.607802844422     0.589932373543     1.007825032230
         H           -4.094567994531     0.296987844422    -0.911740626457     1.007825032230
         H           -0.094167994531    -2.071072155578     0.987383373543     1.007825032230
         H            0.855048005469    -1.078847155578    -0.838817626457     1.007825032230
         H            3.794804005469     0.309905844422     1.559342373543     1.007825032230

  Basis Set: AUG-CC-PVTZ
    Blend: AUG-CC-PVTZ
  Basis Set: (AUG-CC-PVTZ AUX)
    Blend: AUG-CC-PVTZ-JKFIT
	 Reference Energy          =   -1135.8206979971514556 [Eh]
	 Singles Energy            =      -0.0000000000000000 [Eh]
	 Same-Spin Energy          =      -0.8157426131456558 [Eh]
	 Opposite-Spin Energy      =      -2.4193357444448385 [Eh]
	 Correlation Energy        =      -3.2350783575904942 [Eh]
	 Total Energy              =   -1139.0557763547419654 [Eh]

	 ================> DF-SCS-MP2 Energies <==================
	-----------------------------------------------------------
	 SCS Same-Spin Scale       =       0.3333333333333333 [-]
	 SCS Opposite-Spin Scale   =       1.2000000000000000 [-]
	 SCS Same-Spin Energy      =      -0.2719142043818852 [Eh]
	 SCS Opposite-Spin Energy  =      -2.9032028933338059 [Eh]
	 SCS Correlation Energy    =      -3.1751170977156913 [Eh]
	 SCS Total Energy          =   -1138.9958150948671118 [Eh]
	-----------------------------------------------------------

  Dipole Moment: [D]
     X:    -3.4796      Y:     2.0096      Z:     3.8679     Total:     5.5774

*** Psi4 exiting successfully. Buy a developer a beer!
