                               Psi4 1.3.2 release

  ==> Input File <==

--------------------------------------------------------------------------
#psi4
#
memory 32 gb

molecule  {
0 1
  P        2.6114510     0.0433530    -0.1897960
  O       -0.7415730    -0.5166550    -0.8759300
  O       -3.1471200     1.7525200     0.1857420
  O       -3.5574290    -0.5524670    -0.9560380
  O       -1.0367842    -1.6235616     1.2139938
  O        1.5012860     1.2233130    -0.3203930
  O        1.7414800    -1.2994450    -0.3567160
  O        2.9590140    -0.0653000     1.3909990
  O        3.7753660     0.2843820    -1.0654240
  C       -2.1786680     0.7692630     0.5423480
  C       -0.8949230     0.8134730    -0.3165700
  C       -2.7827930    -0.6059770     0.2231310
  C       -1.5369320    -1.4089660    -0.0835960
  C        0.3225300     1.1924080     0.5079200
  H       -1.9376650     0.8286140     1.6117160
  H       -1.0169450     1.4955040    -1.1629930
  H       -3.3413290    -1.0227480     1.0706890
  H       -1.7077950    -2.2947630    -0.7028010
  H        0.4416350     0.4968690     1.3430810
  H        0.1975530     2.2044650     0.9092850
  H       -2.8909940     2.6048820     0.5755830
  H       -4.0423210     0.2940670    -0.9260900
  H       -0.0419210    -2.0739930     0.9730340
  H        0.9072950    -1.0817680    -0.8531670
  H        3.8470510     0.3069850     1.5449930
units angstrom
no_reorient  #important for SAPT in psi4, default
symmetry c1  #important for SAPT in psi4, default
}

set PROPERTIES_ORIGIN ["COM"]
properties('MP2/aug-cc-pvtz', properties = ['dipole'])
--------------------------------------------------------------------------

    Molecular point group: c1
  Charge       = 0
  Multiplicity = 1
  Basis Set: AUG-CC-PVTZ
    Blend: AUG-CC-PVTZ
  Basis Set: (AUG-CC-PVTZ AUX)
    Blend: AUG-CC-PVTZ-JKFIT

    Orbital Energies [Eh]
    ---------------------

    Doubly Occupied:

       1A    -80.116092     2A    -20.612085     3A    -20.609874
       4A    -20.605633     5A    -20.605595     6A    -20.604390
       7A    -20.600759     8A    -20.570543     9A    -20.515584
      10A    -11.360309    11A    -11.321334    12A    -11.321090
      13A    -11.317991    14A    -11.301765    15A     -7.631045
      16A     -5.529454    17A     -5.529393    18A     -5.527881
      19A     -1.462341    20A     -1.447191    21A     -1.408165
      22A     -1.390788    23A     -1.379935    24A     -1.368286
      25A     -1.360368    26A     -1.296892    27A     -1.083186
      28A     -1.040570    29A     -0.943244    30A     -0.856568
      31A     -0.842002    32A     -0.826898    33A     -0.769450
      34A     -0.750991    35A     -0.739762    36A     -0.731603
      37A     -0.717577    38A     -0.692478    39A     -0.679266
      40A     -0.662461    41A     -0.651906    42A     -0.649162
      43A     -0.631070    44A     -0.615146    45A     -0.600105
      46A     -0.590531    47A     -0.582057    48A     -0.576734
      49A     -0.568686    50A     -0.556113    51A     -0.544052
      52A     -0.532757    53A     -0.527127    54A     -0.509765
      55A     -0.491853    56A     -0.487168    57A     -0.475650
      58A     -0.469037    59A     -0.462845    60A     -0.449059

  @DF-RHF Final Energy: -1135.79473401812947

   => Energetics <=

    Nuclear Repulsion Energy =           1215.5358690661905712
    One-Electron Energy =               -3984.4578837400772500
    Two-Electron Energy =                1633.1272806557572039
    Total Energy =                      -1135.7947340181294749
  Basis Set: (AUG-CC-PVTZ AUX)
    Blend: AUG-CC-PVTZ-RI
    Molecular point group: c1

    Geometry (in Angstrom), charge = 0, multiplicity = 1:

       Center              X                  Y                   Z               Mass
    ------------   -----------------  -----------------  -----------------  -----------------
         P            2.566772871120     0.045588790600    -0.174499257018    30.973761998420
         O           -0.786251128880    -0.514419209400    -0.860633257018    15.994914619570
         O           -3.191798128880     1.754755790600     0.201038742982    15.994914619570
         O           -3.602107128880    -0.550231209400    -0.940741257018    15.994914619570
         O           -1.081462328880    -1.621325809400     1.229290542982    15.994914619570
         O            1.456607871120     1.225548790600    -0.305096257018    15.994914619570
         O            1.696801871120    -1.297209209400    -0.341419257018    15.994914619570
         O            2.914335871120    -0.063064209400     1.406295742982    15.994914619570
         O            3.730687871120     0.286617790600    -1.050127257018    15.994914619570
         C           -2.223346128880     0.771498790600     0.557644742982    12.000000000000
         C           -0.939601128880     0.815708790600    -0.301273257018    12.000000000000
         C           -2.827471128880    -0.603741209400     0.238427742982    12.000000000000
         C           -1.581610128880    -1.406730209400    -0.068299257018    12.000000000000
         C            0.277851871120     1.194643790600     0.523216742982    12.000000000000
         H           -1.982343128880     0.830849790600     1.627012742982     1.007825032230
         H           -1.061623128880     1.497739790600    -1.147696257018     1.007825032230
         H           -3.386007128880    -1.020512209400     1.085985742982     1.007825032230
         H           -1.752473128880    -2.292527209400    -0.687504257018     1.007825032230
         H            0.396956871120     0.499104790600     1.358377742982     1.007825032230
         H            0.152874871120     2.206700790600     0.924581742982     1.007825032230
         H           -2.935672128880     2.607117790600     0.590879742982     1.007825032230
         H           -4.086999128880     0.296302790600    -0.910793257018     1.007825032230
         H           -0.086599128880    -2.071757209400     0.988330742982     1.007825032230
         H            0.862616871120    -1.079532209400    -0.837870257018     1.007825032230
         H            3.802372871120     0.309220790600     1.560289742982     1.007825032230

  Basis Set: AUG-CC-PVTZ
    Blend: AUG-CC-PVTZ
  Basis Set: (AUG-CC-PVTZ AUX)
    Blend: AUG-CC-PVTZ-JKFIT
	 Reference Energy          =   -1135.7947340181294749 [Eh]
	 Singles Energy            =      -0.0000000000000000 [Eh]
	 Same-Spin Energy          =      -0.8190527884470874 [Eh]
	 Opposite-Spin Energy      =      -2.4283061702136997 [Eh]
	 Correlation Energy        =      -3.2473589586607869 [Eh]
	 Total Energy              =   -1139.0420929767901725 [Eh]

	 ================> DF-SCS-MP2 Energies <==================
	-----------------------------------------------------------
	 SCS Same-Spin Scale       =       0.3333333333333333 [-]
	 SCS Opposite-Spin Scale   =       1.2000000000000000 [-]
	 SCS Same-Spin Energy      =      -0.2730175961490291 [Eh]
	 SCS Opposite-Spin Energy  =      -2.9139674042564394 [Eh]
	 SCS Correlation Energy    =      -3.1869850004054685 [Eh]
	 SCS Total Energy          =   -1138.9817190185349318 [Eh]
	-----------------------------------------------------------

  Dipole Moment: [D]
     X:    -3.2361      Y:     2.1585      Z:     4.0016     Total:     5.5808

*** Psi4 exiting successfully. Buy a developer a beer!
