                               Psi4 1.3.2 release

  ==> Input File <==

--------------------------------------------------------------------------
#psi4
#
memory 32 gb

molecule  {
0 1
  P        2.6114510     0.0433530    -0.1897960
  O       -0.7415730    -0.5166550    -0.8759300
  O       -3.1471200     1.7525200     0.1857420
  O       -3.5574290    -0.5524670    -0.9560380
  O       -0.9262260    -1.6975490     1.1507850
  O        1.5012860     1.2233130    -0.3203930
  O        1.7414800    -1.2994450    -0.3567160
  O        2.9590140    -0.0653000     1.3909990
  O        3.7753660     0.2843820    -1.0654240
  C       -2.1786680     0.7692630     0.5423480
  C       -0.8949230     0.8134730    -0.3165700
  C       -2.7827930    -0.6059770     0.2231310
  C       -1.6149242    -1.3764905    -0.0335100
  C        0.3225300     1.1924080     0.5079200
  H       -1.9376650     0.8286140     1.6117160
  H       -1.0169450     1.4955040    -1.1629930
  H       -3.3413290    -1.0227480     1.0706890
  H       -1.7077950    -2.2947630    -0.7028010
  H        0.4416350     0.4968690     1.3430810
  H        0.1975530     2.2044650     0.9092850
  H       -2.8909940     2.6048820     0.5755830
  H       -4.0423210     0.2940670    -0.9260900
  H       -0.0419210    -2.0739930     0.9730340
  H        0.9072950    -1.0817680    -0.8531670
  H        3.8470510     0.3069850     1.5449930
units angstrom
no_reorient  #important for SAPT in psi4, default
symmetry c1  #important for SAPT in psi4, default
}

set PROPERTIES_ORIGIN ["COM"]
properties('MP2/aug-cc-pvtz', properties = ['dipole'])
--------------------------------------------------------------------------

    Molecular point group: c1
  Charge       = 0
  Multiplicity = 1
  Basis Set: AUG-CC-PVTZ
    Blend: AUG-CC-PVTZ
  Basis Set: (AUG-CC-PVTZ AUX)
    Blend: AUG-CC-PVTZ-JKFIT

    Orbital Energies [Eh]
    ---------------------

    Doubly Occupied:

       1A    -80.113649     2A    -20.610235     3A    -20.607656
       4A    -20.603745     5A    -20.597574     6A    -20.596494
       7A    -20.595146     8A    -20.579338     9A    -20.513491
      10A    -11.367033    11A    -11.325928    12A    -11.319653
      13A    -11.314999    14A    -11.307952    15A     -7.628599
      16A     -5.527023    17A     -5.526933    18A     -5.525439
      19A     -1.458504    20A     -1.444730    21A     -1.412196
      22A     -1.389510    23A     -1.377444    24A     -1.376196
      25A     -1.362620    26A     -1.294794    27A     -1.089113
      28A     -1.059646    29A     -0.948494    30A     -0.857753
      31A     -0.840273    32A     -0.826992    33A     -0.772596
      34A     -0.763784    35A     -0.745596    36A     -0.736103
      37A     -0.715706    38A     -0.690982    39A     -0.683270
      40A     -0.662423    41A     -0.651850    42A     -0.646383
      43A     -0.633617    44A     -0.612365    45A     -0.599484
      46A     -0.596117    47A     -0.580340    48A     -0.579224
      49A     -0.569468    50A     -0.562098    51A     -0.541927
      52A     -0.530875    53A     -0.526811    54A     -0.514061
      55A     -0.493072    56A     -0.482407    57A     -0.473281
      58A     -0.471445    59A     -0.466071    60A     -0.450920

  @DF-RHF Final Energy: -1135.80963497698849

   => Energetics <=

    Nuclear Repulsion Energy =           1216.1322175118355062
    One-Electron Energy =               -3985.5808462142108510
    Two-Electron Energy =                1633.6389937253870812
    Total Energy =                      -1135.8096349769884910
  Basis Set: (AUG-CC-PVTZ AUX)
    Blend: AUG-CC-PVTZ-RI
    Molecular point group: c1

    Geometry (in Angstrom), charge = 0, multiplicity = 1:

       Center              X                  Y                   Z               Mass
    ------------   -----------------  -----------------  -----------------  -----------------
         P            2.563153770041     0.049039442995    -0.172716851720    30.973761998420
         O           -0.789870229959    -0.510968557005    -0.858850851720    15.994914619570
         O           -3.195417229959     1.758206442995     0.202821148280    15.994914619570
         O           -3.605726229959    -0.546780557005    -0.938958851720    15.994914619570
         O           -0.974523229959    -1.691862557005     1.167864148280    15.994914619570
         O            1.452988770041     1.228999442995    -0.303313851720    15.994914619570
         O            1.693182770041    -1.293758557005    -0.339636851720    15.994914619570
         O            2.910716770041    -0.059613557005     1.408078148280    15.994914619570
         O            3.727068770041     0.290068442995    -1.048344851720    15.994914619570
         C           -2.226965229959     0.774949442995     0.559427148280    12.000000000000
         C           -0.943220229959     0.819159442995    -0.299490851720    12.000000000000
         C           -2.831090229959    -0.600290557005     0.240210148280    12.000000000000
         C           -1.663221429959    -1.370804057005    -0.016430851720    12.000000000000
         C            0.274232770041     1.198094442995     0.524999148280    12.000000000000
         H           -1.985962229959     0.834300442995     1.628795148280     1.007825032230
         H           -1.065242229959     1.501190442995    -1.145913851720     1.007825032230
         H           -3.389626229959    -1.017061557005     1.087768148280     1.007825032230
         H           -1.756092229959    -2.289076557005    -0.685721851720     1.007825032230
         H            0.393337770041     0.502555442995     1.360160148280     1.007825032230
         H            0.149255770041     2.210151442995     0.926364148280     1.007825032230
         H           -2.939291229959     2.610568442995     0.592662148280     1.007825032230
         H           -4.090618229959     0.299753442995    -0.909010851720     1.007825032230
         H           -0.090218229959    -2.068306557005     0.990113148280     1.007825032230
         H            0.858997770041    -1.076081557005    -0.836087851720     1.007825032230
         H            3.798753770041     0.312671442995     1.562072148280     1.007825032230

  Basis Set: AUG-CC-PVTZ
    Blend: AUG-CC-PVTZ
  Basis Set: (AUG-CC-PVTZ AUX)
    Blend: AUG-CC-PVTZ-JKFIT
	 Reference Energy          =   -1135.8096349769884910 [Eh]
	 Singles Energy            =      -0.0000000000000000 [Eh]
	 Same-Spin Energy          =      -0.8173621728919459 [Eh]
	 Opposite-Spin Energy      =      -2.4235820710009355 [Eh]
	 Correlation Energy        =      -3.2409442438928813 [Eh]
	 Total Energy              =   -1139.0505792208814455 [Eh]

	 ================> DF-SCS-MP2 Energies <==================
	-----------------------------------------------------------
	 SCS Same-Spin Scale       =       0.3333333333333333 [-]
	 SCS Opposite-Spin Scale   =       1.2000000000000000 [-]
	 SCS Same-Spin Energy      =      -0.2724540576306486 [Eh]
	 SCS Opposite-Spin Energy  =      -2.9082984852011227 [Eh]
	 SCS Correlation Energy    =      -3.1807525428317711 [Eh]
	 SCS Total Energy          =   -1138.9903875198201604 [Eh]
	-----------------------------------------------------------

  Dipole Moment: [D]
     X:    -3.7331      Y:     2.2932      Z:     4.1588     Total:     6.0407

*** Psi4 exiting successfully. Buy a developer a beer!
