                               Psi4 1.3.2 release

  ==> Input File <==

--------------------------------------------------------------------------
#psi4
#
memory 32 gb

molecule  {
0 1
  P        2.6114510     0.0433530    -0.1897960
  O       -0.7415730    -0.5166550    -0.8759300
  O       -3.1471200     1.7525200     0.1857420
  O       -3.5574290    -0.5524670    -0.9560380
  O       -0.9262260    -1.6975490     1.1507850
  O        1.5012860     1.2233130    -0.3203930
  O        1.7414800    -1.2994450    -0.3567160
  O        2.9590140    -0.0653000     1.3909990
  O        3.7753660     0.2843820    -1.0654240
  C       -2.1786680     0.7692630     0.5423480
  C       -0.8949230     0.8134730    -0.3165700
  C       -2.7041118    -0.4268658     0.2647058
  C       -1.5369320    -1.4089660    -0.0835960
  C        0.3225300     1.1924080     0.5079200
  H       -1.9376650     0.8286140     1.6117160
  H       -1.0169450     1.4955040    -1.1629930
  H       -3.3413290    -1.0227480     1.0706890
  H       -1.7077950    -2.2947630    -0.7028010
  H        0.4416350     0.4968690     1.3430810
  H        0.1975530     2.2044650     0.9092850
  H       -2.8909940     2.6048820     0.5755830
  H       -4.0423210     0.2940670    -0.9260900
  H       -0.0419210    -2.0739930     0.9730340
  H        0.9072950    -1.0817680    -0.8531670
  H        3.8470510     0.3069850     1.5449930
units angstrom
no_reorient  #important for SAPT in psi4, default
symmetry c1  #important for SAPT in psi4, default
}

set PROPERTIES_ORIGIN ["COM"]
properties('MP2/aug-cc-pvtz', properties = ['dipole'])
--------------------------------------------------------------------------

    Molecular point group: c1
  Charge       = 0
  Multiplicity = 1
  Basis Set: AUG-CC-PVTZ
    Blend: AUG-CC-PVTZ
  Basis Set: (AUG-CC-PVTZ AUX)
    Blend: AUG-CC-PVTZ-JKFIT

    Orbital Energies [Eh]
    ---------------------

    Doubly Occupied:

       1A    -80.116035     2A    -20.612174     3A    -20.610396
       4A    -20.606761     5A    -20.603050     6A    -20.599363
       7A    -20.594475     8A    -20.571189     9A    -20.515546
      10A    -11.367375    11A    -11.323792    12A    -11.321782
      13A    -11.318226    14A    -11.307814    15A     -7.630983
      16A     -5.529407    17A     -5.529318    18A     -5.527818
      19A     -1.465289    20A     -1.450011    21A     -1.417496
      22A     -1.391892    23A     -1.379201    24A     -1.371825
      25A     -1.347584    26A     -1.296877    27A     -1.118232
      28A     -1.054054    29A     -0.947661    30A     -0.869369
      31A     -0.840725    32A     -0.821786    33A     -0.779101
      34A     -0.753208    35A     -0.749677    36A     -0.741746
      37A     -0.718426    38A     -0.694768    39A     -0.681490
      40A     -0.664973    41A     -0.654210    42A     -0.649326
      43A     -0.624183    44A     -0.615819    45A     -0.603011
      46A     -0.590271    47A     -0.581678    48A     -0.575844
      49A     -0.571786    50A     -0.550614    51A     -0.542452
      52A     -0.534294    53A     -0.530434    54A     -0.520026
      55A     -0.497583    56A     -0.490036    57A     -0.476471
      58A     -0.469408    59A     -0.459261    60A     -0.446321

  @DF-RHF Final Energy: -1135.77094286561692

   => Energetics <=

    Nuclear Repulsion Energy =           1218.5977769781072766
    One-Electron Energy =               -3990.2896009857045101
    Two-Electron Energy =                1635.9208811419805443
    Total Energy =                      -1135.7709428656169166
  Basis Set: (AUG-CC-PVTZ AUX)
    Blend: AUG-CC-PVTZ-RI
    Molecular point group: c1

    Geometry (in Angstrom), charge = 0, multiplicity = 1:

       Center              X                  Y                   Z               Mass
    ------------   -----------------  -----------------  -----------------  -----------------
         P            2.554980186386     0.041389521817    -0.172272826090    30.973761998420
         O           -0.798043813614    -0.518618478183    -0.858406826090    15.994914619570
         O           -3.203590813614     1.750556521817     0.203265173910    15.994914619570
         O           -3.613899813614    -0.554430478183    -0.938514826090    15.994914619570
         O           -0.982696813614    -1.699512478183     1.168308173910    15.994914619570
         O            1.444815186386     1.221349521817    -0.302869826090    15.994914619570
         O            1.685009186386    -1.301408478183    -0.339192826090    15.994914619570
         O            2.902543186386    -0.067263478183     1.408522173910    15.994914619570
         O            3.718895186386     0.282418521817    -1.047900826090    15.994914619570
         C           -2.235138813614     0.767299521817     0.559871173910    12.000000000000
         C           -0.951393813614     0.811509521817    -0.299046826090    12.000000000000
         C           -2.760582613614    -0.428829278183     0.282228973910    12.000000000000
         C           -1.593402813614    -1.410929478183    -0.066072826090    12.000000000000
         C            0.266059186386     1.190444521817     0.525443173910    12.000000000000
         H           -1.994135813614     0.826650521817     1.629239173910     1.007825032230
         H           -1.073415813614     1.493540521817    -1.145469826090     1.007825032230
         H           -3.397799813614    -1.024711478183     1.088212173910     1.007825032230
         H           -1.764265813614    -2.296726478183    -0.685277826090     1.007825032230
         H            0.385164186386     0.494905521817     1.360604173910     1.007825032230
         H            0.141082186386     2.202501521817     0.926808173910     1.007825032230
         H           -2.947464813614     2.602918521817     0.593106173910     1.007825032230
         H           -4.098791813614     0.292103521817    -0.908566826090     1.007825032230
         H           -0.098391813614    -2.075956478183     0.990557173910     1.007825032230
         H            0.850824186386    -1.083731478183    -0.835643826090     1.007825032230
         H            3.790580186386     0.305021521817     1.562516173910     1.007825032230

  Basis Set: AUG-CC-PVTZ
    Blend: AUG-CC-PVTZ
  Basis Set: (AUG-CC-PVTZ AUX)
    Blend: AUG-CC-PVTZ-JKFIT
	 Reference Energy          =   -1135.7709428656169166 [Eh]
	 Singles Energy            =      -0.0000000000000000 [Eh]
	 Same-Spin Energy          =      -0.8193715296229451 [Eh]
	 Opposite-Spin Energy      =      -2.4275723001617275 [Eh]
	 Correlation Energy        =      -3.2469438297846729 [Eh]
	 Total Energy              =   -1139.0178866954015575 [Eh]

	 ================> DF-SCS-MP2 Energies <==================
	-----------------------------------------------------------
	 SCS Same-Spin Scale       =       0.3333333333333333 [-]
	 SCS Opposite-Spin Scale   =       1.2000000000000000 [-]
	 SCS Same-Spin Energy      =      -0.2731238432076484 [Eh]
	 SCS Opposite-Spin Energy  =      -2.9130867601940729 [Eh]
	 SCS Correlation Energy    =      -3.1862106034017215 [Eh]
	 SCS Total Energy          =   -1138.9571534690187491 [Eh]
	-----------------------------------------------------------

  Dipole Moment: [D]
     X:    -3.1663      Y:     2.4319      Z:     4.0840     Total:     5.7112

*** Psi4 exiting successfully. Buy a developer a beer!
