                               Psi4 1.4a3.dev225

  ==> Input File <==

--------------------------------------------------------------------------
#psi4
#
memory 32 gb

molecule  {
0 1
  P        2.6113660     0.0433910    -0.1897900
  O       -0.7416560    -0.5164190    -0.8762010
  O       -3.1473860     1.7523070     0.1855430
  O       -3.5574330    -0.5529450    -0.9556820
  O       -0.9255690    -1.6972900     1.1506350
  O        1.5012550     1.2233910    -0.3202530
  O        1.7411940    -1.2993510    -0.3564950
  O        2.9591660    -0.0655390     1.3909200
  O        3.7751240     0.2843830    -1.0656400
  C       -2.1787050     0.7693270     0.5422590
  C       -0.8949630     0.8136090    -0.3166340
  C       -2.7825860    -0.6061320     0.2233240
  C       -1.5366410    -1.4089160    -0.0835620
  C        0.2823532     1.1799462     0.4808564
  H       -1.9377070     0.8289040     1.6116220
  H       -1.0168440     1.4957790    -1.1629650
  H       -3.3408870    -1.0228010     1.0710960
  H       -1.7074320    -2.2947510    -0.7027390
  H        0.4414920     0.4968360     1.3431340
  H        0.1974400     2.2044510     0.9094280
  H       -2.8916000     2.6047160     0.5754970
  H       -4.0429610     0.2932130    -0.9254450
  H       -0.0410590    -2.0731950     0.9726900
  H        0.9073710    -1.0816890    -0.8535130
  H        3.8468470     0.3075270     1.5450430
units angstrom
no_reorient  #important for SAPT in psi4, default
symmetry c1  #important for SAPT in psi4, default
}

set PROPERTIES_ORIGIN ["COM"]
properties('MP2/aug-cc-pvtz', properties = ['dipole'])
--------------------------------------------------------------------------

    Molecular point group: c1
  Charge       = 0
  Multiplicity = 1
  Basis Set: AUG-CC-PVTZ
    Blend: AUG-CC-PVTZ
  Basis Set: (AUG-CC-PVTZ AUX)
    Blend: AUG-CC-PVTZ-JKFIT

    Orbital Energies [Eh]
    ---------------------

    Doubly Occupied:

       1A    -80.113695     2A    -20.610263     3A    -20.607271
       4A    -20.604098     5A    -20.602734     6A    -20.597643
       7A    -20.594981     8A    -20.575591     9A    -20.513697
      10A    -11.362844    11A    -11.325034    12A    -11.323219
      13A    -11.317545    14A    -11.308194    15A     -7.628614
      16A     -5.527023    17A     -5.526977    18A     -5.525450
      19A     -1.463002    20A     -1.446895    21A     -1.412391
      22A     -1.387543    23A     -1.376315    24A     -1.374187
      25A     -1.369199    26A     -1.294838    27A     -1.091651
      28A     -1.050839    29A     -0.945354    30A     -0.858300
      31A     -0.842130    32A     -0.828916    33A     -0.772355
      34A     -0.759863    35A     -0.749005    36A     -0.733627
      37A     -0.715845    38A     -0.691964    39A     -0.684660
      40A     -0.667022    41A     -0.651650    42A     -0.647499
      43A     -0.633697    44A     -0.613603    45A     -0.602297
      46A     -0.596375    47A     -0.580718    48A     -0.576556
      49A     -0.569841    50A     -0.561024    51A     -0.541595
      52A     -0.530723    53A     -0.526406    54A     -0.510758
      55A     -0.490993    56A     -0.488898    57A     -0.475966
      58A     -0.468992    59A     -0.465409    60A     -0.454246

  @DF-RHF Final Energy: -1135.81937524366072

   => Energetics <=

    Nuclear Repulsion Energy =           1216.4656817859795410
    One-Electron Energy =               -3986.2340735762409167
    Two-Electron Energy =                1633.9490165466006601
    Total Energy =                      -1135.8193752436607156
  Basis Set: (AUG-CC-PVTZ AUX)
    Blend: AUG-CC-PVTZ-RI
    Molecular point group: c1

    Geometry (in Angstrom), charge = 0, multiplicity = 1:

       Center              X                  Y                   Z               Mass
    ------------   -----------------  -----------------  -----------------  -----------------
         P            2.561092181150     0.051426110051    -0.168679160099    30.973761998420
         O           -0.791929818850    -0.508383889949    -0.855090160099    15.994914619570
         O           -3.197659818850     1.760342110051     0.206653839901    15.994914619570
         O           -3.607706818850    -0.544909889949    -0.934571160099    15.994914619570
         O           -0.975842818850    -1.689254889949     1.171745839901    15.994914619570
         O            1.450981181150     1.231426110051    -0.299142160099    15.994914619570
         O            1.690920181150    -1.291315889949    -0.335384160099    15.994914619570
         O            2.908892181150    -0.057503889949     1.412030839901    15.994914619570
         O            3.724850181150     0.292418110051    -1.044529160099    15.994914619570
         C           -2.228978818850     0.777362110051     0.563369839901    12.000000000000
         C           -0.945236818850     0.821644110051    -0.295523160099    12.000000000000
         C           -2.832859818850    -0.598096889949     0.244434839901    12.000000000000
         C           -1.586914818850    -1.400880889949    -0.062451160099    12.000000000000
         C            0.232079381150     1.187981310051     0.501967239901    12.000000000000
         H           -1.987980818850     0.836939110051     1.632732839901     1.007825032230
         H           -1.067117818850     1.503814110051    -1.141854160099     1.007825032230
         H           -3.391160818850    -1.014765889949     1.092206839901     1.007825032230
         H           -1.757705818850    -2.286715889949    -0.681628160099     1.007825032230
         H            0.391218181150     0.504871110051     1.364244839901     1.007825032230
         H            0.147166181150     2.212486110051     0.930538839901     1.007825032230
         H           -2.941873818850     2.612751110051     0.596607839901     1.007825032230
         H           -4.093234818850     0.301248110051    -0.904334160099     1.007825032230
         H           -0.091332818850    -2.065159889949     0.993800839901     1.007825032230
         H            0.857097181150    -1.073653889949    -0.832402160099     1.007825032230
         H            3.796573181150     0.315562110051     1.566153839901     1.007825032230

  Basis Set: AUG-CC-PVTZ
    Blend: AUG-CC-PVTZ
  Basis Set: (AUG-CC-PVTZ AUX)
    Blend: AUG-CC-PVTZ-JKFIT
	 Reference Energy          =   -1135.8193752436607156 [Eh]
	 Singles Energy            =      -0.0000000000000000 [Eh]
	 Same-Spin Energy          =      -0.8167327282383066 [Eh]
	 Opposite-Spin Energy      =      -2.4224233989254880 [Eh]
	 Correlation Energy        =      -3.2391561271637945 [Eh]
	 Total Energy              =   -1139.0585313708245394 [Eh]

	 ================> DF-SCS-MP2 Energies <==================
	-----------------------------------------------------------
	 SCS Same-Spin Scale       =       0.3333333333333333 [-]
	 SCS Opposite-Spin Scale   =       1.2000000000000000 [-]
	 SCS Same-Spin Energy      =      -0.2722442427461021 [Eh]
	 SCS Opposite-Spin Energy  =      -2.9069080787105857 [Eh]
	 SCS Correlation Energy    =      -3.1791523214566877 [Eh]
	 SCS Total Energy          =   -1138.9985275651174561 [Eh]
	-----------------------------------------------------------

  Dipole Moment: [D]
     X:    -3.6077      Y:     2.2946      Z:     4.0389     Total:     5.8816

*** Psi4 exiting successfully. Buy a developer a beer!
