                               Psi4 1.3.2 release

  ==> Input File <==

--------------------------------------------------------------------------
#psi4
#
memory 32 gb

molecule  {
0 1
  P        2.6114510     0.0433530    -0.1897960
  O       -0.8327426    -0.5053728    -0.9185831
  O       -3.1471200     1.7525200     0.1857420
  O       -3.5574290    -0.5524670    -0.9560380
  O       -0.9262260    -1.6975490     1.1507850
  O        1.5012860     1.2233130    -0.3203930
  O        1.7414800    -1.2994450    -0.3567160
  O        2.9590140    -0.0653000     1.3909990
  O        3.7753660     0.2843820    -1.0654240
  C       -2.1786680     0.7692630     0.5423480
  C       -0.8949230     0.8134730    -0.3165700
  C       -2.7827930    -0.6059770     0.2231310
  C       -1.5369320    -1.4089660    -0.0835960
  C        0.3225300     1.1924080     0.5079200
  H       -1.9376650     0.8286140     1.6117160
  H       -1.0169450     1.4955040    -1.1629930
  H       -3.3413290    -1.0227480     1.0706890
  H       -1.7077950    -2.2947630    -0.7028010
  H        0.4416350     0.4968690     1.3430810
  H        0.1975530     2.2044650     0.9092850
  H       -2.8909940     2.6048820     0.5755830
  H       -4.0423210     0.2940670    -0.9260900
  H       -0.0419210    -2.0739930     0.9730340
  H        0.9072950    -1.0817680    -0.8531670
  H        3.8470510     0.3069850     1.5449930
units angstrom
no_reorient  #important for SAPT in psi4, default
symmetry c1  #important for SAPT in psi4, default
}

set PROPERTIES_ORIGIN ["COM"]
properties('MP2/aug-cc-pvtz', properties = ['dipole'])
--------------------------------------------------------------------------

    Molecular point group: c1
  Charge       = 0
  Multiplicity = 1
  Basis Set: AUG-CC-PVTZ
    Blend: AUG-CC-PVTZ
  Basis Set: (AUG-CC-PVTZ AUX)
    Blend: AUG-CC-PVTZ-JKFIT

    Orbital Energies [Eh]
    ---------------------

    Doubly Occupied:

       1A    -80.117883     2A    -20.613471     3A    -20.607192
       4A    -20.605110     5A    -20.603932     6A    -20.602601
       7A    -20.597087     8A    -20.571329     9A    -20.517002
      10A    -11.358828    11A    -11.323796    12A    -11.320462
      13A    -11.317349    14A    -11.303003    15A     -7.632849
      16A     -5.531250    17A     -5.531202    18A     -5.529675
      19A     -1.464542    20A     -1.451376    21A     -1.409015
      22A     -1.392676    23A     -1.382455    24A     -1.375064
      25A     -1.367247    26A     -1.298346    27A     -1.083324
      28A     -1.045049    29A     -0.949225    30A     -0.856711
      31A     -0.842185    32A     -0.827396    33A     -0.771504
      34A     -0.759689    35A     -0.747345    36A     -0.734722
      37A     -0.719594    38A     -0.695932    39A     -0.684301
      40A     -0.665541    41A     -0.654176    42A     -0.649660
      43A     -0.629898    44A     -0.616967    45A     -0.599600
      46A     -0.596327    47A     -0.584934    48A     -0.578525
      49A     -0.568114    50A     -0.557771    51A     -0.546263
      52A     -0.533823    53A     -0.528061    54A     -0.509809
      55A     -0.492090    56A     -0.486607    57A     -0.476302
      58A     -0.469962    59A     -0.465535    60A     -0.448354

  @DF-RHF Final Energy: -1135.81975679491984

   => Energetics <=

    Nuclear Repulsion Energy =           1215.0188653240784333
    One-Electron Energy =               -3983.2771662046120582
    Two-Electron Energy =                1632.4385440856137848
    Total Energy =                      -1135.8197567949198401
  Basis Set: (AUG-CC-PVTZ AUX)
    Blend: AUG-CC-PVTZ-RI
    Molecular point group: c1

    Geometry (in Angstrom), charge = 0, multiplicity = 1:

       Center              X                  Y                   Z               Mass
    ------------   -----------------  -----------------  -----------------  -----------------
         P            2.565424639915     0.049949141907    -0.167137904625    30.973761998420
         O           -0.878768960085    -0.498776658093    -0.895925004625    15.994914619570
         O           -3.193146360085     1.759116141907     0.208400095375    15.994914619570
         O           -3.603455360085    -0.545870858093    -0.933379904625    15.994914619570
         O           -0.972252360085    -1.690952858093     1.173443095375    15.994914619570
         O            1.455259639915     1.229909141907    -0.297734904625    15.994914619570
         O            1.695453639915    -1.292848858093    -0.334057904625    15.994914619570
         O            2.912987639915    -0.058703858093     1.413657095375    15.994914619570
         O            3.729339639915     0.290978141907    -1.042765904625    15.994914619570
         C           -2.224694360085     0.775859141907     0.565006095375    12.000000000000
         C           -0.940949360085     0.820069141907    -0.293911904625    12.000000000000
         C           -2.828819360085    -0.599380858093     0.245789095375    12.000000000000
         C           -1.582958360085    -1.402369858093    -0.060937904625    12.000000000000
         C            0.276503639915     1.199004141907     0.530578095375    12.000000000000
         H           -1.983691360085     0.835210141907     1.634374095375     1.007825032230
         H           -1.062971360085     1.502100141907    -1.140334904625     1.007825032230
         H           -3.387355360085    -1.016151858093     1.093347095375     1.007825032230
         H           -1.753821360085    -2.288166858093    -0.680142904625     1.007825032230
         H            0.395608639915     0.503465141907     1.365739095375     1.007825032230
         H            0.151526639915     2.211061141907     0.931943095375     1.007825032230
         H           -2.937020360085     2.611478141907     0.598241095375     1.007825032230
         H           -4.088347360085     0.300663141907    -0.903431904625     1.007825032230
         H           -0.087947360085    -2.067396858093     0.995692095375     1.007825032230
         H            0.861268639915    -1.075171858093    -0.830508904625     1.007825032230
         H            3.801024639915     0.313581141907     1.567651095375     1.007825032230

  Basis Set: AUG-CC-PVTZ
    Blend: AUG-CC-PVTZ
  Basis Set: (AUG-CC-PVTZ AUX)
    Blend: AUG-CC-PVTZ-JKFIT
	 Reference Energy          =   -1135.8197567949198401 [Eh]
	 Singles Energy            =      -0.0000000000000000 [Eh]
	 Same-Spin Energy          =      -0.8163239467766723 [Eh]
	 Opposite-Spin Energy      =      -2.4218773280476857 [Eh]
	 Correlation Energy        =      -3.2382012748243580 [Eh]
	 Total Energy              =   -1139.0579580697442452 [Eh]

	 ================> DF-SCS-MP2 Energies <==================
	-----------------------------------------------------------
	 SCS Same-Spin Scale       =       0.3333333333333333 [-]
	 SCS Opposite-Spin Scale   =       1.2000000000000000 [-]
	 SCS Same-Spin Energy      =      -0.2721079822588908 [Eh]
	 SCS Opposite-Spin Energy  =      -2.9062527936572229 [Eh]
	 SCS Correlation Energy    =      -3.1783607759161137 [Eh]
	 SCS Total Energy          =   -1138.9981175708360297 [Eh]
	-----------------------------------------------------------

  Dipole Moment: [D]
     X:    -3.1007      Y:     2.2853      Z:     4.0772     Total:     5.6089

*** Psi4 exiting successfully. Buy a developer a beer!
