                               Psi4 1.3.2 release

  ==> Input File <==

--------------------------------------------------------------------------
#psi4
#
memory 32 gb

molecule  {
0 1
  P        2.5794916     0.0190867    -0.1496911
  O       -0.7415730    -0.5166550    -0.8759300
  O       -3.1471200     1.7525200     0.1857420
  O       -3.5574290    -0.5524670    -0.9560380
  O       -0.9262260    -1.6975490     1.1507850
  O        1.5012860     1.2233130    -0.3203930
  O        1.7414800    -1.2994450    -0.3567160
  O        2.9590140    -0.0653000     1.3909990
  O        3.7753660     0.2843820    -1.0654240
  C       -2.1786680     0.7692630     0.5423480
  C       -0.8949230     0.8134730    -0.3165700
  C       -2.7827930    -0.6059770     0.2231310
  C       -1.5369320    -1.4089660    -0.0835960
  C        0.3225300     1.1924080     0.5079200
  H       -1.9376650     0.8286140     1.6117160
  H       -1.0169450     1.4955040    -1.1629930
  H       -3.3413290    -1.0227480     1.0706890
  H       -1.7077950    -2.2947630    -0.7028010
  H        0.4416350     0.4968690     1.3430810
  H        0.1975530     2.2044650     0.9092850
  H       -2.8909940     2.6048820     0.5755830
  H       -4.0423210     0.2940670    -0.9260900
  H       -0.0419210    -2.0739930     0.9730340
  H        0.9072950    -1.0817680    -0.8531670
  H        3.8470510     0.3069850     1.5449930
units angstrom
no_reorient  #important for SAPT in psi4, default
symmetry c1  #important for SAPT in psi4, default
}

set PROPERTIES_ORIGIN ["COM"]
properties('MP2/aug-cc-pvtz', properties = ['dipole'])
--------------------------------------------------------------------------

    Molecular point group: c1
  Charge       = 0
  Multiplicity = 1
  Basis Set: AUG-CC-PVTZ
    Blend: AUG-CC-PVTZ
  Basis Set: (AUG-CC-PVTZ AUX)
    Blend: AUG-CC-PVTZ-JKFIT

    Orbital Energies [Eh]
    ---------------------

    Doubly Occupied:

       1A    -80.115992     2A    -20.617573     3A    -20.607390
       4A    -20.606372     5A    -20.606148     6A    -20.605983
       7A    -20.597651     8A    -20.576143     9A    -20.502542
      10A    -11.364382    11A    -11.324725    12A    -11.322405
      13A    -11.319800    14A    -11.308833    15A     -7.630609
      16A     -5.529187    17A     -5.529106    18A     -5.527052
      19A     -1.469796    20A     -1.454341    21A     -1.412884
      22A     -1.399812    23A     -1.390608    24A     -1.375483
      25A     -1.370974    26A     -1.263117    27A     -1.085711
      28A     -1.048547    29A     -0.947768    30A     -0.865228
      31A     -0.846380    32A     -0.833117    33A     -0.775704
      34A     -0.762406    35A     -0.752265    36A     -0.737606
      37A     -0.728413    38A     -0.695131    39A     -0.686456
      40A     -0.670101    41A     -0.656438    42A     -0.652798
      43A     -0.635341    44A     -0.616309    45A     -0.604495
      46A     -0.598707    47A     -0.589281    48A     -0.579892
      49A     -0.571349    50A     -0.563863    51A     -0.536235
      52A     -0.534792    53A     -0.526504    54A     -0.513974
      55A     -0.492416    56A     -0.489449    57A     -0.472325
      58A     -0.460079    59A     -0.447382    60A     -0.442763

  @DF-RHF Final Energy: -1135.81723969338418

   => Energetics <=

    Nuclear Repulsion Energy =           1217.1887719151350211
    One-Electron Energy =               -3987.5157570979317825
    Two-Electron Energy =                1634.5097454894125804
    Total Energy =                      -1135.8172396933841810
  Basis Set: (AUG-CC-PVTZ AUX)
    Blend: AUG-CC-PVTZ-RI
    Molecular point group: c1

    Geometry (in Angstrom), charge = 0, multiplicity = 1:

       Center              X                  Y                   Z               Mass
    ------------   -----------------  -----------------  -----------------  -----------------
         P            2.531429117662     0.029735010646    -0.135399404919    30.973761998420
         O           -0.789635482338    -0.506006689354    -0.861638304919    15.994914619570
         O           -3.195182482338     1.763168310646     0.200033695081    15.994914619570
         O           -3.605491482338    -0.541818689354    -0.941746304919    15.994914619570
         O           -0.974288482338    -1.686900689354     1.165076695081    15.994914619570
         O            1.453223517662     1.233961310646    -0.306101304919    15.994914619570
         O            1.693417517662    -1.288796689354    -0.342424304919    15.994914619570
         O            2.910951517662    -0.054651689354     1.405290695081    15.994914619570
         O            3.727303517662     0.295030310646    -1.051132304919    15.994914619570
         C           -2.226730482338     0.779911310646     0.556639695081    12.000000000000
         C           -0.942985482338     0.824121310646    -0.302278304919    12.000000000000
         C           -2.830855482338    -0.595328689354     0.237422695081    12.000000000000
         C           -1.584994482338    -1.398317689354    -0.069304304919    12.000000000000
         C            0.274467517662     1.203056310646     0.522211695081    12.000000000000
         H           -1.985727482338     0.839262310646     1.626007695081     1.007825032230
         H           -1.065007482338     1.506152310646    -1.148701304919     1.007825032230
         H           -3.389391482338    -1.012099689354     1.084980695081     1.007825032230
         H           -1.755857482338    -2.284114689354    -0.688509304919     1.007825032230
         H            0.393572517662     0.507517310646     1.357372695081     1.007825032230
         H            0.149490517662     2.215113310646     0.923576695081     1.007825032230
         H           -2.939056482338     2.615530310646     0.589874695081     1.007825032230
         H           -4.090383482338     0.304715310646    -0.911798304919     1.007825032230
         H           -0.089983482338    -2.063344689354     0.987325695081     1.007825032230
         H            0.859232517662    -1.071119689354    -0.838875304919     1.007825032230
         H            3.798988517662     0.317633310646     1.559284695081     1.007825032230

  Basis Set: AUG-CC-PVTZ
    Blend: AUG-CC-PVTZ
  Basis Set: (AUG-CC-PVTZ AUX)
    Blend: AUG-CC-PVTZ-JKFIT
	 Reference Energy          =   -1135.8172396933841810 [Eh]
	 Singles Energy            =      -0.0000000000000000 [Eh]
	 Same-Spin Energy          =      -0.8168204333571072 [Eh]
	 Opposite-Spin Energy      =      -2.4224129959065208 [Eh]
	 Correlation Energy        =      -3.2392334292636278 [Eh]
	 Total Energy              =   -1139.0564731226477306 [Eh]

	 ================> DF-SCS-MP2 Energies <==================
	-----------------------------------------------------------
	 SCS Same-Spin Scale       =       0.3333333333333333 [-]
	 SCS Opposite-Spin Scale   =       1.2000000000000000 [-]
	 SCS Same-Spin Energy      =      -0.2722734777857024 [Eh]
	 SCS Opposite-Spin Energy  =      -2.9068955950878248 [Eh]
	 SCS Correlation Energy    =      -3.1791690728735271 [Eh]
	 SCS Total Energy          =   -1138.9964087662576731 [Eh]
	-----------------------------------------------------------

  Dipole Moment: [D]
     X:    -3.8870      Y:     2.0774      Z:     4.4238     Total:     6.2445

*** Psi4 exiting successfully. Buy a developer a beer!
