                               Psi4 1.3.2 release

  ==> Input File <==

--------------------------------------------------------------------------
#psi4
#
memory 32 gb

molecule  {
0 1
  P        2.6114510     0.0433530    -0.1897960
  O       -0.7415730    -0.5166550    -0.8759300
  O       -3.1471200     1.7525200     0.1857420
  O       -3.5574290    -0.5524670    -0.9560380
  O       -0.9992615    -1.6485259     1.1944728
  O        1.5012860     1.2233130    -0.3203930
  O        1.7414800    -1.2994450    -0.3567160
  O        2.9590140    -0.0653000     1.3909990
  O        3.7753660     0.2843820    -1.0654240
  C       -2.1786680     0.7692630     0.5423480
  C       -0.8949230     0.8134730    -0.3165700
  C       -2.7827930    -0.6059770     0.2231310
  C       -1.5369320    -1.4089660    -0.0835960
  C        0.3225300     1.1924080     0.5079200
  H       -1.9376650     0.8286140     1.6117160
  H       -1.0169450     1.4955040    -1.1629930
  H       -3.3413290    -1.0227480     1.0706890
  H       -1.7077950    -2.2947630    -0.7028010
  H        0.4416350     0.4968690     1.3430810
  H        0.1975530     2.2044650     0.9092850
  H       -2.8909940     2.6048820     0.5755830
  H       -4.0423210     0.2940670    -0.9260900
  H       -0.0419210    -2.0739930     0.9730340
  H        0.9072950    -1.0817680    -0.8531670
  H        3.8470510     0.3069850     1.5449930
units angstrom
no_reorient  #important for SAPT in psi4, default
symmetry c1  #important for SAPT in psi4, default
}

set PROPERTIES_ORIGIN ["COM"]
properties('MP2/aug-cc-pvtz', properties = ['dipole'])
--------------------------------------------------------------------------

    Molecular point group: c1
  Charge       = 0
  Multiplicity = 1
  Basis Set: AUG-CC-PVTZ
    Blend: AUG-CC-PVTZ
  Basis Set: (AUG-CC-PVTZ AUX)
    Blend: AUG-CC-PVTZ-JKFIT

    Orbital Energies [Eh]
    ---------------------

    Doubly Occupied:

       1A    -80.115721     2A    -20.611799     3A    -20.605449
       4A    -20.605342     5A    -20.604996     6A    -20.604865
       7A    -20.600010     8A    -20.571975     9A    -20.515265
      10A    -11.360732    11A    -11.321811    12A    -11.321288
      13A    -11.318043    14A    -11.303512    15A     -7.630673
      16A     -5.529086    17A     -5.529018    18A     -5.527509
      19A     -1.462406    20A     -1.447420    21A     -1.409109
      22A     -1.390683    23A     -1.379364    24A     -1.369625
      25A     -1.363057    26A     -1.296582    27A     -1.083493
      28A     -1.042590    29A     -0.944156    30A     -0.856835
      31A     -0.841932    32A     -0.827275    33A     -0.769873
      34A     -0.751942    35A     -0.743288    36A     -0.732805
      37A     -0.717348    38A     -0.692612    39A     -0.680905
      40A     -0.664018    41A     -0.652416    42A     -0.648842
      43A     -0.631656    44A     -0.614624    45A     -0.600325
      46A     -0.592178    47A     -0.582288    48A     -0.577155
      49A     -0.569096    50A     -0.557799    51A     -0.544028
      52A     -0.532543    53A     -0.527115    54A     -0.510451
      55A     -0.491672    56A     -0.487434    57A     -0.475475
      58A     -0.468968    59A     -0.464114    60A     -0.449581

  @DF-RHF Final Energy: -1135.80730100519872

   => Energetics <=

    Nuclear Repulsion Energy =           1215.6252188392566040
    One-Electron Energy =               -3984.6207006592417201
    Two-Electron Energy =                1633.1881808147861648
    Total Energy =                      -1135.8073010051987239
  Basis Set: (AUG-CC-PVTZ AUX)
    Blend: AUG-CC-PVTZ-RI
    Molecular point group: c1

    Geometry (in Angstrom), charge = 0, multiplicity = 1:

       Center              X                  Y                   Z               Mass
    ------------   -----------------  -----------------  -----------------  -----------------
         P            2.564163643273     0.047324741017    -0.173141819072    30.973761998420
         O           -0.788860356727    -0.512683258983    -0.859275819072    15.994914619570
         O           -3.194407356727     1.756491741017     0.202396180928    15.994914619570
         O           -3.604716356727    -0.548495258983    -0.939383819072    15.994914619570
         O           -1.046548856727    -1.644554158983     1.211126980928    15.994914619570
         O            1.453998643273     1.227284741017    -0.303738819072    15.994914619570
         O            1.694192643273    -1.295473258983    -0.340061819072    15.994914619570
         O            2.911726643273    -0.061328258983     1.407653180928    15.994914619570
         O            3.728078643273     0.288353741017    -1.048769819072    15.994914619570
         C           -2.225955356727     0.773234741017     0.559002180928    12.000000000000
         C           -0.942210356727     0.817444741017    -0.299915819072    12.000000000000
         C           -2.830080356727    -0.602005258983     0.239785180928    12.000000000000
         C           -1.584219356727    -1.404994258983    -0.066941819072    12.000000000000
         C            0.275242643273     1.196379741017     0.524574180928    12.000000000000
         H           -1.984952356727     0.832585741017     1.628370180928     1.007825032230
         H           -1.064232356727     1.499475741017    -1.146338819072     1.007825032230
         H           -3.388616356727    -1.018776258983     1.087343180928     1.007825032230
         H           -1.755082356727    -2.290791258983    -0.686146819072     1.007825032230
         H            0.394347643273     0.500840741017     1.359735180928     1.007825032230
         H            0.150265643273     2.208436741017     0.925939180928     1.007825032230
         H           -2.938281356727     2.608853741017     0.592237180928     1.007825032230
         H           -4.089608356727     0.298038741017    -0.909435819072     1.007825032230
         H           -0.089208356727    -2.070021258983     0.989688180928     1.007825032230
         H            0.860007643273    -1.077796258983    -0.836512819072     1.007825032230
         H            3.799763643273     0.310956741017     1.561647180928     1.007825032230

  Basis Set: AUG-CC-PVTZ
    Blend: AUG-CC-PVTZ
  Basis Set: (AUG-CC-PVTZ AUX)
    Blend: AUG-CC-PVTZ-JKFIT
	 Reference Energy          =   -1135.8073010051987239 [Eh]
	 Singles Energy            =      -0.0000000000000000 [Eh]
	 Same-Spin Energy          =      -0.8180658518835570 [Eh]
	 Opposite-Spin Energy      =      -2.4259685180429904 [Eh]
	 Correlation Energy        =      -3.2440343699265473 [Eh]
	 Total Energy              =   -1139.0513353751252907 [Eh]

	 ================> DF-SCS-MP2 Energies <==================
	-----------------------------------------------------------
	 SCS Same-Spin Scale       =       0.3333333333333333 [-]
	 SCS Opposite-Spin Scale   =       1.2000000000000000 [-]
	 SCS Same-Spin Energy      =      -0.2726886172945190 [Eh]
	 SCS Opposite-Spin Energy  =      -2.9111622216515882 [Eh]
	 SCS Correlation Energy    =      -3.1838508389461073 [Eh]
	 SCS Total Energy          =   -1138.9911518441447242 [Eh]
	-----------------------------------------------------------

  Dipole Moment: [D]
     X:    -3.3150      Y:     2.2016      Z:     4.0119     Total:     5.6508

*** Psi4 exiting successfully. Buy a developer a beer!
