                               Psi4 1.3.2 release

  ==> Input File <==

--------------------------------------------------------------------------
#psi4
#
memory 32 gb

molecule  {
0 1
  P        2.6114510     0.0433530    -0.1897960
  O       -0.7415730    -0.5166550    -0.8759300
  O       -3.1471200     1.7525200     0.1857420
  O       -3.5574290    -0.5524670    -0.9560380
  O       -0.9262260    -1.6975490     1.1507850
  O        1.5012860     1.2233130    -0.3203930
  O        1.7414800    -1.2994450    -0.3567160
  O        2.9590140    -0.0653000     1.3909990
  O        3.7753660     0.2843820    -1.0654240
  C       -2.1492389     0.7831678     0.5853552
  C       -0.8949230     0.8134730    -0.3165700
  C       -2.7827930    -0.6059770     0.2231310
  C       -1.5369320    -1.4089660    -0.0835960
  C        0.3225300     1.1924080     0.5079200
  H       -1.9376650     0.8286140     1.6117160
  H       -1.0169450     1.4955040    -1.1629930
  H       -3.3413290    -1.0227480     1.0706890
  H       -1.7077950    -2.2947630    -0.7028010
  H        0.4416350     0.4968690     1.3430810
  H        0.1975530     2.2044650     0.9092850
  H       -2.8909940     2.6048820     0.5755830
  H       -4.0423210     0.2940670    -0.9260900
  H       -0.0419210    -2.0739930     0.9730340
  H        0.9072950    -1.0817680    -0.8531670
  H        3.8470510     0.3069850     1.5449930
units angstrom
no_reorient  #important for SAPT in psi4, default
symmetry c1  #important for SAPT in psi4, default
}

set PROPERTIES_ORIGIN ["COM"]
properties('MP2/aug-cc-pvtz', properties = ['dipole'])
--------------------------------------------------------------------------

    Molecular point group: c1
  Charge       = 0
  Multiplicity = 1
  Basis Set: AUG-CC-PVTZ
    Blend: AUG-CC-PVTZ
  Basis Set: (AUG-CC-PVTZ AUX)
    Blend: AUG-CC-PVTZ-JKFIT

    Orbital Energies [Eh]
    ---------------------

    Doubly Occupied:

       1A    -80.114849     2A    -20.611207     3A    -20.605426
       4A    -20.604641     5A    -20.603965     6A    -20.598510
       7A    -20.595037     8A    -20.575574     9A    -20.514513
      10A    -11.361724    11A    -11.322098    12A    -11.320958
      13A    -11.319084    14A    -11.308881    15A     -7.629802
      16A     -5.528221    17A     -5.528140    18A     -5.526641
      19A     -1.462861    20A     -1.447885    21A     -1.405535
      22A     -1.390552    23A     -1.378152    24A     -1.372243
      25A     -1.368467    26A     -1.295863    27A     -1.084948
      28A     -1.044398    29A     -0.945992    30A     -0.857435
      31A     -0.844693    32A     -0.827994    33A     -0.771274
      34A     -0.759641    35A     -0.744586    36A     -0.738483
      37A     -0.716232    38A     -0.692803    39A     -0.682658
      40A     -0.666074    41A     -0.653108    42A     -0.646670
      43A     -0.632449    44A     -0.611298    45A     -0.601112
      46A     -0.594137    47A     -0.581970    48A     -0.578143
      49A     -0.569961    50A     -0.559729    51A     -0.543438
      52A     -0.532460    53A     -0.527186    54A     -0.515343
      55A     -0.492755    56A     -0.488486    57A     -0.475067
      58A     -0.469179    59A     -0.465479    60A     -0.447535

  @DF-RHF Final Energy: -1135.81852381475846

   => Energetics <=

    Nuclear Repulsion Energy =           1215.4135654316382897
    One-Electron Energy =               -3984.1570908291464548
    Two-Electron Energy =                1632.9250015827497009
    Total Energy =                      -1135.8185238147584641
  Basis Set: (AUG-CC-PVTZ AUX)
    Blend: AUG-CC-PVTZ-RI
    Molecular point group: c1

    Geometry (in Angstrom), charge = 0, multiplicity = 1:

       Center              X                  Y                   Z               Mass
    ------------   -----------------  -----------------  -----------------  -----------------
         P            2.557549647185     0.050008268399    -0.172347553780    30.973761998420
         O           -0.795474352815    -0.509999731601    -0.858481553780    15.994914619570
         O           -3.201021352815     1.759175268399     0.203190446220    15.994914619570
         O           -3.611330352815    -0.545811731601    -0.938589553780    15.994914619570
         O           -0.980127352815    -1.690893731601     1.168233446220    15.994914619570
         O            1.447384647185     1.229968268399    -0.302944553780    15.994914619570
         O            1.687578647185    -1.292789731601    -0.339267553780    15.994914619570
         O            2.905112647185    -0.058644731601     1.408447446220    15.994914619570
         O            3.721464647185     0.291037268399    -1.047975553780    15.994914619570
         C           -2.203140252815     0.789823068399     0.602803646220    12.000000000000
         C           -0.948824352815     0.820128268399    -0.299121553780    12.000000000000
         C           -2.836694352815    -0.599321731601     0.240579446220    12.000000000000
         C           -1.590833352815    -1.402310731601    -0.066147553780    12.000000000000
         C            0.268628647185     1.199063268399     0.525368446220    12.000000000000
         H           -1.991566352815     0.835269268399     1.629164446220     1.007825032230
         H           -1.070846352815     1.502159268399    -1.145544553780     1.007825032230
         H           -3.395230352815    -1.016092731601     1.088137446220     1.007825032230
         H           -1.761696352815    -2.288107731601    -0.685352553780     1.007825032230
         H            0.387733647185     0.503524268399     1.360529446220     1.007825032230
         H            0.143651647185     2.211120268399     0.926733446220     1.007825032230
         H           -2.944895352815     2.611537268399     0.593031446220     1.007825032230
         H           -4.096222352815     0.300722268399    -0.908641553780     1.007825032230
         H           -0.095822352815    -2.067337731601     0.990482446220     1.007825032230
         H            0.853393647185    -1.075112731601    -0.835718553780     1.007825032230
         H            3.793149647185     0.313640268399     1.562441446220     1.007825032230

  Basis Set: AUG-CC-PVTZ
    Blend: AUG-CC-PVTZ
  Basis Set: (AUG-CC-PVTZ AUX)
    Blend: AUG-CC-PVTZ-JKFIT
	 Reference Energy          =   -1135.8185238147584641 [Eh]
	 Singles Energy            =      -0.0000000000000000 [Eh]
	 Same-Spin Energy          =      -0.8164246877237448 [Eh]
	 Opposite-Spin Energy      =      -2.4225934388398667 [Eh]
	 Correlation Energy        =      -3.2390181265636113 [Eh]
	 Total Energy              =   -1139.0575419413221425 [Eh]

	 ================> DF-SCS-MP2 Energies <==================
	-----------------------------------------------------------
	 SCS Same-Spin Scale       =       0.3333333333333333 [-]
	 SCS Opposite-Spin Scale   =       1.2000000000000000 [-]
	 SCS Same-Spin Energy      =      -0.2721415625745816 [Eh]
	 SCS Opposite-Spin Energy  =      -2.9071121266078399 [Eh]
	 SCS Correlation Energy    =      -3.1792536891824215 [Eh]
	 SCS Total Energy          =   -1138.9977775039408243 [Eh]
	-----------------------------------------------------------

  Dipole Moment: [D]
     X:    -3.4690      Y:     2.2768      Z:     4.0655     Total:     5.8092

*** Psi4 exiting successfully. Buy a developer a beer!
