                               Psi4 1.3.2 release

  ==> Input File <==

--------------------------------------------------------------------------
#psi4
#
memory 32 gb

molecule  {
0 1
  P        2.6114510     0.0433530    -0.1897960
  O       -0.7415730    -0.5166550    -0.8759300
  O       -3.1471200     1.7525200     0.1857420
  O       -3.5574290    -0.5524670    -0.9560380
  O       -0.9262260    -1.6975490     1.1507850
  O        1.5012860     1.2233130    -0.3203930
  O        1.7414800    -1.2994450    -0.3567160
  O        2.9590140    -0.0653000     1.3909990
  O        3.7753660     0.2843820    -1.0654240
  C       -2.2033225     0.7788136     0.5467366
  C       -0.8949230     0.8134730    -0.3165700
  C       -2.7827930    -0.6059770     0.2231310
  C       -1.5369320    -1.4089660    -0.0835960
  C        0.3225300     1.1924080     0.5079200
  H       -1.9376650     0.8286140     1.6117160
  H       -1.0169450     1.4955040    -1.1629930
  H       -3.3413290    -1.0227480     1.0706890
  H       -1.7077950    -2.2947630    -0.7028010
  H        0.4416350     0.4968690     1.3430810
  H        0.1975530     2.2044650     0.9092850
  H       -2.8909940     2.6048820     0.5755830
  H       -4.0423210     0.2940670    -0.9260900
  H       -0.0419210    -2.0739930     0.9730340
  H        0.9072950    -1.0817680    -0.8531670
  H        3.8470510     0.3069850     1.5449930
units angstrom
no_reorient  #important for SAPT in psi4, default
symmetry c1  #important for SAPT in psi4, default
}

set PROPERTIES_ORIGIN ["COM"]
properties('MP2/aug-cc-pvtz', properties = ['dipole'])
--------------------------------------------------------------------------

    Molecular point group: c1
  Charge       = 0
  Multiplicity = 1
  Basis Set: AUG-CC-PVTZ
    Blend: AUG-CC-PVTZ
  Basis Set: (AUG-CC-PVTZ AUX)
    Blend: AUG-CC-PVTZ-JKFIT

    Orbital Energies [Eh]
    ---------------------

    Doubly Occupied:

       1A    -80.114573     2A    -20.610861     3A    -20.608638
       4A    -20.604569     5A    -20.602914     6A    -20.598081
       7A    -20.594399     8A    -20.574625     9A    -20.514281
      10A    -11.362076    11A    -11.323537    12A    -11.320527
      13A    -11.317548    14A    -11.306636    15A     -7.629523
      16A     -5.527943    17A     -5.527861    18A     -5.526362
      19A     -1.462541    20A     -1.447924    21A     -1.418542
      22A     -1.390219    23A     -1.377856    24A     -1.374858
      25A     -1.368155    26A     -1.295615    27A     -1.080238
      28A     -1.046068    29A     -0.945899    30A     -0.858245
      31A     -0.841805    32A     -0.827954    33A     -0.772715
      34A     -0.759675    35A     -0.748527    36A     -0.734601
      37A     -0.716615    38A     -0.692117    39A     -0.686175
      40A     -0.667731    41A     -0.652742    42A     -0.647523
      43A     -0.633247    44A     -0.614018    45A     -0.601631
      46A     -0.596509    47A     -0.581789    48A     -0.578122
      49A     -0.571330    50A     -0.559944    51A     -0.542971
      52A     -0.531638    53A     -0.526611    54A     -0.511479
      55A     -0.489974    56A     -0.485548    57A     -0.474769
      58A     -0.468798    59A     -0.464716    60A     -0.447726

  @DF-RHF Final Energy: -1135.82267483534838

   => Energetics <=

    Nuclear Repulsion Energy =           1215.5860509260510298
    One-Electron Energy =               -3984.4972308419619367
    Two-Electron Energy =                1633.0885050805625269
    Total Energy =                      -1135.8226748353483799
  Basis Set: (AUG-CC-PVTZ AUX)
    Blend: AUG-CC-PVTZ-RI
    Molecular point group: c1

    Geometry (in Angstrom), charge = 0, multiplicity = 1:

       Center              X                  Y                   Z               Mass
    ------------   -----------------  -----------------  -----------------  -----------------
         P            2.560371165254     0.050235425134    -0.170332838086    30.973761998420
         O           -0.792652834746    -0.509772574866    -0.856466838086    15.994914619570
         O           -3.198199834746     1.759402425134     0.205205161914    15.994914619570
         O           -3.608508834746    -0.545584574866    -0.936574838086    15.994914619570
         O           -0.977305834746    -1.690666574866     1.170248161914    15.994914619570
         O            1.450206165254     1.230195425134    -0.300929838086    15.994914619570
         O            1.690400165254    -1.292562574866    -0.337252838086    15.994914619570
         O            2.907934165254    -0.058417574866     1.410462161914    15.994914619570
         O            3.724286165254     0.291264425134    -1.045960838086    15.994914619570
         C           -2.254402334746     0.785696025134     0.566199761914    12.000000000000
         C           -0.946002834746     0.820355425134    -0.297106838086    12.000000000000
         C           -2.833872834746    -0.599094574866     0.242594161914    12.000000000000
         C           -1.588011834746    -1.402083574866    -0.064132838086    12.000000000000
         C            0.271450165254     1.199290425134     0.527383161914    12.000000000000
         H           -1.988744834746     0.835496425134     1.631179161914     1.007825032230
         H           -1.068024834746     1.502386425134    -1.143529838086     1.007825032230
         H           -3.392408834746    -1.015865574866     1.090152161914     1.007825032230
         H           -1.758874834746    -2.287880574866    -0.683337838086     1.007825032230
         H            0.390555165254     0.503751425134     1.362544161914     1.007825032230
         H            0.146473165254     2.211347425134     0.928748161914     1.007825032230
         H           -2.942073834746     2.611764425134     0.595046161914     1.007825032230
         H           -4.093400834746     0.300949425134    -0.906626838086     1.007825032230
         H           -0.093000834746    -2.067110574866     0.992497161914     1.007825032230
         H            0.856215165254    -1.074885574866    -0.833703838086     1.007825032230
         H            3.795971165254     0.313867425134     1.564456161914     1.007825032230

  Basis Set: AUG-CC-PVTZ
    Blend: AUG-CC-PVTZ
  Basis Set: (AUG-CC-PVTZ AUX)
    Blend: AUG-CC-PVTZ-JKFIT
	 Reference Energy          =   -1135.8226748353483799 [Eh]
	 Singles Energy            =      -0.0000000000000000 [Eh]
	 Same-Spin Energy          =      -0.8161239193110155 [Eh]
	 Opposite-Spin Energy      =      -2.4214312579666482 [Eh]
	 Correlation Energy        =      -3.2375551772776636 [Eh]
	 Total Energy              =   -1139.0602300126261071 [Eh]

	 ================> DF-SCS-MP2 Energies <==================
	-----------------------------------------------------------
	 SCS Same-Spin Scale       =       0.3333333333333333 [-]
	 SCS Opposite-Spin Scale   =       1.2000000000000000 [-]
	 SCS Same-Spin Energy      =      -0.2720413064370051 [Eh]
	 SCS Opposite-Spin Energy  =      -2.9057175095599779 [Eh]
	 SCS Correlation Energy    =      -3.1777588159969832 [Eh]
	 SCS Total Energy          =   -1139.0004336513454746 [Eh]
	-----------------------------------------------------------

  Dipole Moment: [D]
     X:    -3.5579      Y:     2.3542      Z:     4.0391     Total:     5.8750

*** Psi4 exiting successfully. Buy a developer a beer!
