                               Psi4 1.4a3.dev225

  ==> Input File <==

--------------------------------------------------------------------------
#psi4
#
memory 32 gb

molecule  {
0 1
  P        2.6113660     0.0433910    -0.1897900
  O       -0.7416560    -0.5164190    -0.8762010
  O       -3.1473860     1.7523070     0.1855430
  O       -3.5574330    -0.5529450    -0.9556820
  O       -0.9255690    -1.6972900     1.1506350
  O        1.5012550     1.2233910    -0.3202530
  O        1.7411940    -1.2993510    -0.3564950
  O        2.9591660    -0.0655390     1.3909200
  O        3.7751240     0.2843830    -1.0656400
  C       -2.1787050     0.7693270     0.5422590
  C       -0.8949630     0.8136090    -0.3166340
  C       -2.7825860    -0.6061320     0.2233240
  C       -1.5366410    -1.4089160    -0.0835620
  C        0.3224410     1.1924200     0.5080110
  H       -1.9377070     0.8289040     1.6116220
  H       -1.0168440     1.4957790    -1.1629650
  H       -3.3510631    -1.0303956     1.0865482
  H       -1.7074320    -2.2947510    -0.7027390
  H        0.4414920     0.4968360     1.3431340
  H        0.1974400     2.2044510     0.9094280
  H       -2.8916000     2.6047160     0.5754970
  H       -4.0429610     0.2932130    -0.9254450
  H       -0.0410590    -2.0731950     0.9726900
  H        0.9073710    -1.0816890    -0.8535130
  H        3.8468470     0.3075270     1.5450430
units angstrom
no_reorient  #important for SAPT in psi4, default
symmetry c1  #important for SAPT in psi4, default
}

set PROPERTIES_ORIGIN ["COM"]
properties('MP2/aug-cc-pvtz', properties = ['dipole'])
--------------------------------------------------------------------------

    Molecular point group: c1
  Charge       = 0
  Multiplicity = 1
  Basis Set: AUG-CC-PVTZ
    Blend: AUG-CC-PVTZ
  Basis Set: (AUG-CC-PVTZ AUX)
    Blend: AUG-CC-PVTZ-JKFIT

    Orbital Energies [Eh]
    ---------------------

    Doubly Occupied:

       1A    -80.115009     2A    -20.611250     3A    -20.606262
       4A    -20.605164     5A    -20.603625     6A    -20.598535
       7A    -20.594754     8A    -20.575212     9A    -20.514657
      10A    -11.362366    11A    -11.323458    12A    -11.321331
      13A    -11.318321    14A    -11.309525    15A     -7.629960
      16A     -5.528380    17A     -5.528298    18A     -5.526797
      19A     -1.463235    20A     -1.448327    21A     -1.411483
      22A     -1.390730    23A     -1.378255    24A     -1.373759
      25A     -1.368736    26A     -1.295991    27A     -1.084159
      28A     -1.046476    29A     -0.946762    30A     -0.857864
      31A     -0.841436    32A     -0.828094    33A     -0.771904
      34A     -0.759608    35A     -0.747345    36A     -0.733806
      37A     -0.716819    38A     -0.692807    39A     -0.683698
      40A     -0.667152    41A     -0.653069    42A     -0.647597
      43A     -0.632445    44A     -0.613313    45A     -0.601037
      46A     -0.595782    47A     -0.582074    48A     -0.577573
      49A     -0.569916    50A     -0.560176    51A     -0.543416
      52A     -0.532258    53A     -0.527105    54A     -0.511961
      55A     -0.490483    56A     -0.487901    57A     -0.475117
      58A     -0.469008    59A     -0.465338    60A     -0.450296

  @DF-RHF Final Energy: -1135.82204282078169

   => Energetics <=

    Nuclear Repulsion Energy =           1215.8130764498591816
    One-Electron Energy =               -3984.9358113753969519
    Two-Electron Energy =                1633.3006921047560809
    Total Energy =                      -1135.8220428207816894
  Basis Set: (AUG-CC-PVTZ AUX)
    Blend: AUG-CC-PVTZ-RI
    Molecular point group: c1

    Geometry (in Angstrom), charge = 0, multiplicity = 1:

       Center              X                  Y                   Z               Mass
    ------------   -----------------  -----------------  -----------------  -----------------
         P            2.559045404337     0.050808632901    -0.170163507413    30.973761998420
         O           -0.793976595663    -0.509001367099    -0.856574507413    15.994914619570
         O           -3.199706595663     1.759724632901     0.205169492587    15.994914619570
         O           -3.609753595663    -0.545527367099    -0.936055507413    15.994914619570
         O           -0.977889595663    -1.689872367099     1.170261492587    15.994914619570
         O            1.448934404337     1.230808632901    -0.300626507413    15.994914619570
         O            1.688873404337    -1.291933367099    -0.336868507413    15.994914619570
         O            2.906845404337    -0.058121367099     1.410546492587    15.994914619570
         O            3.722803404337     0.291800632901    -1.046013507413    15.994914619570
         C           -2.231025595663     0.776744632901     0.561885492587    12.000000000000
         C           -0.947283595663     0.821026632901    -0.297007507413    12.000000000000
         C           -2.834906595663    -0.598714367099     0.242950492587    12.000000000000
         C           -1.588961595663    -1.401498367099    -0.063935507413    12.000000000000
         C            0.270120404337     1.199837632901     0.527637492587    12.000000000000
         H           -1.990027595663     0.836321632901     1.631248492587     1.007825032230
         H           -1.069164595663     1.503196632901    -1.143338507413     1.007825032230
         H           -3.403383695663    -1.022977967099     1.106174692587     1.007825032230
         H           -1.759752595663    -2.287333367099    -0.683112507413     1.007825032230
         H            0.389171404337     0.504253632901     1.362760492587     1.007825032230
         H            0.145119404337     2.211868632901     0.929054492587     1.007825032230
         H           -2.943920595663     2.612133632901     0.595123492587     1.007825032230
         H           -4.095281595663     0.300630632901    -0.905818507413     1.007825032230
         H           -0.093379595663    -2.065777367099     0.992316492587     1.007825032230
         H            0.855050404337    -1.074271367099    -0.833886507413     1.007825032230
         H            3.794526404337     0.314944632901     1.564669492587     1.007825032230

  Basis Set: AUG-CC-PVTZ
    Blend: AUG-CC-PVTZ
  Basis Set: (AUG-CC-PVTZ AUX)
    Blend: AUG-CC-PVTZ-JKFIT
	 Reference Energy          =   -1135.8220428207816894 [Eh]
	 Singles Energy            =      -0.0000000000000000 [Eh]
	 Same-Spin Energy          =      -0.8163107668599917 [Eh]
	 Opposite-Spin Energy      =      -2.4220198384002920 [Eh]
	 Correlation Energy        =      -3.2383306052602836 [Eh]
	 Total Energy              =   -1139.0603734260419060 [Eh]

	 ================> DF-SCS-MP2 Energies <==================
	-----------------------------------------------------------
	 SCS Same-Spin Scale       =       0.3333333333333333 [-]
	 SCS Opposite-Spin Scale   =       1.2000000000000000 [-]
	 SCS Same-Spin Energy      =      -0.2721035889533305 [Eh]
	 SCS Opposite-Spin Energy  =      -2.9064238060803502 [Eh]
	 SCS Correlation Energy    =      -3.1785273950336808 [Eh]
	 SCS Total Energy          =   -1139.0005702158152872 [Eh]
	-----------------------------------------------------------

  Dipole Moment: [D]
     X:    -3.4789      Y:     2.3036      Z:     4.0233     Total:     5.7963

*** Psi4 exiting successfully. Buy a developer a beer!
