                               Psi4 1.3.2 release

  ==> Input File <==

--------------------------------------------------------------------------
#psi4
#
memory 32 gb

molecule  {
0 1
  P        2.6114510     0.0433530    -0.1897960
  O       -0.7594994    -0.4992968    -0.8739810
  O       -3.1471200     1.7525200     0.1857420
  O       -3.5574290    -0.5524670    -0.9560380
  O       -0.9262260    -1.6975490     1.1507850
  O        1.5012860     1.2233130    -0.3203930
  O        1.7414800    -1.2994450    -0.3567160
  O        2.9590140    -0.0653000     1.3909990
  O        3.7753660     0.2843820    -1.0654240
  C       -2.1786680     0.7692630     0.5423480
  C       -0.8949230     0.8134730    -0.3165700
  C       -2.7827930    -0.6059770     0.2231310
  C       -1.5369320    -1.4089660    -0.0835960
  C        0.3225300     1.1924080     0.5079200
  H       -1.9376650     0.8286140     1.6117160
  H       -1.0169450     1.4955040    -1.1629930
  H       -3.3413290    -1.0227480     1.0706890
  H       -1.7077950    -2.2947630    -0.7028010
  H        0.4416350     0.4968690     1.3430810
  H        0.1975530     2.2044650     0.9092850
  H       -2.8909940     2.6048820     0.5755830
  H       -4.0423210     0.2940670    -0.9260900
  H       -0.0419210    -2.0739930     0.9730340
  H        0.9072950    -1.0817680    -0.8531670
  H        3.8470510     0.3069850     1.5449930
units angstrom
no_reorient  #important for SAPT in psi4, default
symmetry c1  #important for SAPT in psi4, default
}

set PROPERTIES_ORIGIN ["COM"]
properties('MP2/aug-cc-pvtz', properties = ['dipole'])
--------------------------------------------------------------------------

    Molecular point group: c1
  Charge       = 0
  Multiplicity = 1
  Basis Set: AUG-CC-PVTZ
    Blend: AUG-CC-PVTZ
  Basis Set: (AUG-CC-PVTZ AUX)
    Blend: AUG-CC-PVTZ-JKFIT

    Orbital Energies [Eh]
    ---------------------

    Doubly Occupied:

       1A    -80.115507     2A    -20.611593     3A    -20.605184
       4A    -20.605161     5A    -20.602602     6A    -20.600159
       7A    -20.595711     8A    -20.574240     9A    -20.515052
      10A    -11.362707    11A    -11.321915    12A    -11.320557
      13A    -11.316114    14A    -11.306436    15A     -7.630461
      16A     -5.528874    17A     -5.528805    18A     -5.527297
      19A     -1.464903    20A     -1.449584    21A     -1.410591
      22A     -1.390979    23A     -1.379158    24A     -1.374401
      25A     -1.370020    26A     -1.296388    27A     -1.082393
      28A     -1.047629    29A     -0.947695    30A     -0.857315
      31A     -0.842509    32A     -0.829051    33A     -0.772028
      34A     -0.759758    35A     -0.748341    36A     -0.734150
      37A     -0.717281    38A     -0.693301    39A     -0.684336
      40A     -0.667523    41A     -0.653588    42A     -0.649245
      43A     -0.632301    44A     -0.614773    45A     -0.599928
      46A     -0.597164    47A     -0.582497    48A     -0.577592
      49A     -0.569603    50A     -0.560031    51A     -0.544056
      52A     -0.532717    53A     -0.527674    54A     -0.511331
      55A     -0.491443    56A     -0.486064    57A     -0.474890
      58A     -0.469333    59A     -0.465821    60A     -0.449210

  @DF-RHF Final Energy: -1135.82316095593660

   => Energetics <=

    Nuclear Repulsion Energy =           1216.2136524461170666
    One-Electron Energy =               -3985.7196829492836514
    Two-Electron Energy =                1633.6828695472299842
    Total Energy =                      -1135.8231609559366007
  Basis Set: (AUG-CC-PVTZ AUX)
    Blend: AUG-CC-PVTZ-RI
    Molecular point group: c1

    Geometry (in Angstrom), charge = 0, multiplicity = 1:

       Center              X                  Y                   Z               Mass
    ------------   -----------------  -----------------  -----------------  -----------------
         P            2.560331504372     0.049526633175    -0.170239414947    30.973761998420
         O           -0.810618895628    -0.493123166825    -0.854424414947    15.994914619570
         O           -3.198239495628     1.758693633175     0.205298585053    15.994914619570
         O           -3.608548495628    -0.546293366825    -0.936481414947    15.994914619570
         O           -0.977345495628    -1.691375366825     1.170341585053    15.994914619570
         O            1.450166504372     1.229486633175    -0.300836414947    15.994914619570
         O            1.690360504372    -1.293271366825    -0.337159414947    15.994914619570
         O            2.907894504372    -0.059126366825     1.410555585053    15.994914619570
         O            3.724246504372     0.290555633175    -1.045867414947    15.994914619570
         C           -2.229787495628     0.775436633175     0.561904585053    12.000000000000
         C           -0.946042495628     0.819646633175    -0.297013414947    12.000000000000
         C           -2.833912495628    -0.599803366825     0.242687585053    12.000000000000
         C           -1.588051495628    -1.402792366825    -0.064039414947    12.000000000000
         C            0.271410504372     1.198581633175     0.527476585053    12.000000000000
         H           -1.988784495628     0.834787633175     1.631272585053     1.007825032230
         H           -1.068064495628     1.501677633175    -1.143436414947     1.007825032230
         H           -3.392448495628    -1.016574366825     1.090245585053     1.007825032230
         H           -1.758914495628    -2.288589366825    -0.683244414947     1.007825032230
         H            0.390515504372     0.503042633175     1.362637585053     1.007825032230
         H            0.146433504372     2.210638633175     0.928841585053     1.007825032230
         H           -2.942113495628     2.611055633175     0.595139585053     1.007825032230
         H           -4.093440495628     0.300240633175    -0.906533414947     1.007825032230
         H           -0.093040495628    -2.067819366825     0.992590585053     1.007825032230
         H            0.856175504372    -1.075594366825    -0.833610414947     1.007825032230
         H            3.795931504372     0.313158633175     1.564549585053     1.007825032230

  Basis Set: AUG-CC-PVTZ
    Blend: AUG-CC-PVTZ
  Basis Set: (AUG-CC-PVTZ AUX)
    Blend: AUG-CC-PVTZ-JKFIT
	 Reference Energy          =   -1135.8231609559366007 [Eh]
	 Singles Energy            =      -0.0000000000000000 [Eh]
	 Same-Spin Energy          =      -0.8161373755012012 [Eh]
	 Opposite-Spin Energy      =      -2.4213330780444249 [Eh]
	 Correlation Energy        =      -3.2374704535456260 [Eh]
	 Total Energy              =   -1139.0606314094823119 [Eh]

	 ================> DF-SCS-MP2 Energies <==================
	-----------------------------------------------------------
	 SCS Same-Spin Scale       =       0.3333333333333333 [-]
	 SCS Opposite-Spin Scale   =       1.2000000000000000 [-]
	 SCS Same-Spin Energy      =      -0.2720457918337337 [Eh]
	 SCS Opposite-Spin Energy  =      -2.9055996936533099 [Eh]
	 SCS Correlation Energy    =      -3.1776454854870435 [Eh]
	 SCS Total Energy          =   -1139.0008064414237197 [Eh]
	-----------------------------------------------------------

  Dipole Moment: [D]
     X:    -3.4100      Y:     2.2304      Z:     4.0209     Total:     5.7245

*** Psi4 exiting successfully. Buy a developer a beer!
