                               Psi4 1.3.2 release

  ==> Input File <==

--------------------------------------------------------------------------
#psi4
#
memory 32 gb

molecule  {
0 1
  P        2.6114510     0.0433530    -0.1897960
  O       -0.6392883    -0.6263217    -0.8825401
  O       -3.1471200     1.7525200     0.1857420
  O       -3.5574290    -0.5524670    -0.9560380
  O       -0.9262260    -1.6975490     1.1507850
  O        1.5012860     1.2233130    -0.3203930
  O        1.7414800    -1.2994450    -0.3567160
  O        2.9590140    -0.0653000     1.3909990
  O        3.7753660     0.2843820    -1.0654240
  C       -2.1786680     0.7692630     0.5423480
  C       -0.8949230     0.8134730    -0.3165700
  C       -2.7827930    -0.6059770     0.2231310
  C       -1.5369320    -1.4089660    -0.0835960
  C        0.3225300     1.1924080     0.5079200
  H       -1.9376650     0.8286140     1.6117160
  H       -1.0169450     1.4955040    -1.1629930
  H       -3.3413290    -1.0227480     1.0706890
  H       -1.7077950    -2.2947630    -0.7028010
  H        0.4416350     0.4968690     1.3430810
  H        0.1975530     2.2044650     0.9092850
  H       -2.8909940     2.6048820     0.5755830
  H       -4.0423210     0.2940670    -0.9260900
  H       -0.0419210    -2.0739930     0.9730340
  H        0.9072950    -1.0817680    -0.8531670
  H        3.8470510     0.3069850     1.5449930
units angstrom
no_reorient  #important for SAPT in psi4, default
symmetry c1  #important for SAPT in psi4, default
}

set PROPERTIES_ORIGIN ["COM"]
properties('MP2/aug-cc-pvtz', properties = ['dipole'])
--------------------------------------------------------------------------

    Molecular point group: c1
  Charge       = 0
  Multiplicity = 1
  Basis Set: AUG-CC-PVTZ
    Blend: AUG-CC-PVTZ
  Basis Set: (AUG-CC-PVTZ AUX)
    Blend: AUG-CC-PVTZ-JKFIT

    Orbital Energies [Eh]
    ---------------------

    Doubly Occupied:

       1A    -80.111494     2A    -20.612591     3A    -20.608752
       4A    -20.606791     5A    -20.604838     6A    -20.589576
       7A    -20.587739     8A    -20.578416     9A    -20.511853
      10A    -11.359757    11A    -11.332165    12A    -11.331275
      13A    -11.325630    14A    -11.312242    15A     -7.626434
      16A     -5.524901    17A     -5.524727    18A     -5.523280
      19A     -1.456737    20A     -1.441111    21A     -1.416291
      22A     -1.389154    23A     -1.376549    24A     -1.372436
      25A     -1.352416    26A     -1.293157    27A     -1.095167
      28A     -1.044376    29A     -0.942775    30A     -0.862686
      31A     -0.838859    32A     -0.828395    33A     -0.772861
      34A     -0.758171    35A     -0.745175    36A     -0.733667
      37A     -0.714328    38A     -0.691118    39A     -0.685010
      40A     -0.664781    41A     -0.651814    42A     -0.640875
      43A     -0.635546    44A     -0.607962    45A     -0.606929
      46A     -0.589361    47A     -0.580170    48A     -0.578600
      49A     -0.568723    50A     -0.557645    51A     -0.539142
      52A     -0.529940    53A     -0.522903    54A     -0.515493
      55A     -0.497343    56A     -0.483575    57A     -0.477528
      58A     -0.467795    59A     -0.464451    60A     -0.455448

  @DF-RHF Final Energy: -1135.80694635585587

   => Energetics <=

    Nuclear Repulsion Energy =           1214.2790155493639759
    One-Electron Energy =               -3981.9340841419457320
    Two-Electron Energy =                1631.8481222367258852
    Total Energy =                      -1135.8069463558558709
  Basis Set: (AUG-CC-PVTZ AUX)
    Blend: AUG-CC-PVTZ-RI
    Molecular point group: c1

    Geometry (in Angstrom), charge = 0, multiplicity = 1:

       Center              X                  Y                   Z               Mass
    ------------   -----------------  -----------------  -----------------  -----------------
         P            2.551972347124     0.058359603786    -0.169644238106    30.973761998420
         O           -0.698766952876    -0.611315096214    -0.862388338106    15.994914619570
         O           -3.206598652876     1.767526603786     0.205893761894    15.994914619570
         O           -3.616907652876    -0.537460396214    -0.935886238106    15.994914619570
         O           -0.985704652876    -1.682542396214     1.170936761894    15.994914619570
         O            1.441807347124     1.238319603786    -0.300241238106    15.994914619570
         O            1.682001347124    -1.284438396214    -0.336564238106    15.994914619570
         O            2.899535347124    -0.050293396214     1.411150761894    15.994914619570
         O            3.715887347124     0.299388603786    -1.045272238106    15.994914619570
         C           -2.238146652876     0.784269603786     0.562499761894    12.000000000000
         C           -0.954401652876     0.828479603786    -0.296418238106    12.000000000000
         C           -2.842271652876    -0.590970396214     0.243282761894    12.000000000000
         C           -1.596410652876    -1.393959396214    -0.063444238106    12.000000000000
         C            0.263051347124     1.207414603786     0.528071761894    12.000000000000
         H           -1.997143652876     0.843620603786     1.631867761894     1.007825032230
         H           -1.076423652876     1.510510603786    -1.142841238106     1.007825032230
         H           -3.400807652876    -1.007741396214     1.090840761894     1.007825032230
         H           -1.767273652876    -2.279756396214    -0.682649238106     1.007825032230
         H            0.382156347124     0.511875603786     1.363232761894     1.007825032230
         H            0.138074347124     2.219471603786     0.929436761894     1.007825032230
         H           -2.950472652876     2.619888603786     0.595734761894     1.007825032230
         H           -4.101799652876     0.309073603786    -0.905938238106     1.007825032230
         H           -0.101399652876    -2.058986396214     0.993185761894     1.007825032230
         H            0.847816347124    -1.066761396214    -0.833015238106     1.007825032230
         H            3.787572347124     0.321991603786     1.565144761894     1.007825032230

  Basis Set: AUG-CC-PVTZ
    Blend: AUG-CC-PVTZ
  Basis Set: (AUG-CC-PVTZ AUX)
    Blend: AUG-CC-PVTZ-JKFIT
	 Reference Energy          =   -1135.8069463558558709 [Eh]
	 Singles Energy            =      -0.0000000000000000 [Eh]
	 Same-Spin Energy          =      -0.8175462897089888 [Eh]
	 Opposite-Spin Energy      =      -2.4256987274739066 [Eh]
	 Correlation Energy        =      -3.2432450171828955 [Eh]
	 Total Energy              =   -1139.0501913730388424 [Eh]

	 ================> DF-SCS-MP2 Energies <==================
	-----------------------------------------------------------
	 SCS Same-Spin Scale       =       0.3333333333333333 [-]
	 SCS Opposite-Spin Scale   =       1.2000000000000000 [-]
	 SCS Same-Spin Energy      =      -0.2725154299029963 [Eh]
	 SCS Opposite-Spin Energy  =      -2.9108384729686878 [Eh]
	 SCS Correlation Energy    =      -3.1833539028716840 [Eh]
	 SCS Total Energy          =   -1138.9903002587275296 [Eh]
	-----------------------------------------------------------

  Dipole Moment: [D]
     X:    -3.9236      Y:     2.6912      Z:     4.0984     Total:     6.2796

*** Psi4 exiting successfully. Buy a developer a beer!
