                               Psi4 1.3.2 release

  ==> Input File <==

--------------------------------------------------------------------------
#psi4
#
memory 32 gb

molecule  {
0 1
  P        2.6114510     0.0433530    -0.1897960
  O       -0.7415730    -0.5166550    -0.8759300
  O       -3.1471200     1.7525200     0.1857420
  O       -3.5574290    -0.5524670    -0.9560380
  O       -0.9262260    -1.6975490     1.1507850
  O        1.5012860     1.2233130    -0.3203930
  O        1.7414800    -1.2994450    -0.3567160
  O        2.9590140    -0.0653000     1.3909990
  O        3.7753660     0.2843820    -1.0654240
  C       -2.1786680     0.7692630     0.5423480
  C       -0.9567240     0.7732840    -0.2471153
  C       -2.7827930    -0.6059770     0.2231310
  C       -1.5369320    -1.4089660    -0.0835960
  C        0.3225300     1.1924080     0.5079200
  H       -1.9376650     0.8286140     1.6117160
  H       -1.0169450     1.4955040    -1.1629930
  H       -3.3413290    -1.0227480     1.0706890
  H       -1.7077950    -2.2947630    -0.7028010
  H        0.4416350     0.4968690     1.3430810
  H        0.1975530     2.2044650     0.9092850
  H       -2.8909940     2.6048820     0.5755830
  H       -4.0423210     0.2940670    -0.9260900
  H       -0.0419210    -2.0739930     0.9730340
  H        0.9072950    -1.0817680    -0.8531670
  H        3.8470510     0.3069850     1.5449930
units angstrom
no_reorient  #important for SAPT in psi4, default
symmetry c1  #important for SAPT in psi4, default
}

set PROPERTIES_ORIGIN ["COM"]
properties('MP2/aug-cc-pvtz', properties = ['dipole'])
--------------------------------------------------------------------------

    Molecular point group: c1
  Charge       = 0
  Multiplicity = 1
  Basis Set: AUG-CC-PVTZ
    Blend: AUG-CC-PVTZ
  Basis Set: (AUG-CC-PVTZ AUX)
    Blend: AUG-CC-PVTZ-JKFIT

    Orbital Energies [Eh]
    ---------------------

    Doubly Occupied:

       1A    -80.115599     2A    -20.611256     3A    -20.607949
       4A    -20.607199     5A    -20.606414     6A    -20.599094
       7A    -20.595982     8A    -20.576263     9A    -20.515143
      10A    -11.362386    11A    -11.322300    12A    -11.321133
      13A    -11.320259    14A    -11.309096    15A     -7.630532
      16A     -5.528958    17A     -5.528872    18A     -5.527361
      19A     -1.465861    20A     -1.450149    21A     -1.413650
      22A     -1.390587    23A     -1.378610    24A     -1.375247
      25A     -1.370525    26A     -1.296373    27A     -1.098115
      28A     -1.044285    29A     -0.949596    30A     -0.857325
      31A     -0.840321    32A     -0.831815    33A     -0.773397
      34A     -0.762432    35A     -0.749802    36A     -0.736585
      37A     -0.717536    38A     -0.690647    39A     -0.683323
      40A     -0.666957    41A     -0.653204    42A     -0.647646
      43A     -0.636097    44A     -0.614201    45A     -0.603180
      46A     -0.593150    47A     -0.582354    48A     -0.580853
      49A     -0.566951    50A     -0.557982    51A     -0.543953
      52A     -0.531260    53A     -0.527239    54A     -0.513450
      55A     -0.494832    56A     -0.492422    57A     -0.472942
      58A     -0.468256    59A     -0.463623    60A     -0.450754

  @DF-RHF Final Energy: -1135.80911641543844

   => Energetics <=

    Nuclear Repulsion Energy =           1216.9045755409317735
    One-Electron Energy =               -3986.9808187746239128
    Two-Electron Energy =                1634.2671268182539279
    Total Energy =                      -1135.8091164154384387
  Basis Set: (AUG-CC-PVTZ AUX)
    Blend: AUG-CC-PVTZ-RI
    Molecular point group: c1

    Geometry (in Angstrom), charge = 0, multiplicity = 1:

       Center              X                  Y                   Z               Mass
    ------------   -----------------  -----------------  -----------------  -----------------
         P            2.562309082126     0.052830318597    -0.173727308439    30.973761998420
         O           -0.790714917874    -0.507177681403    -0.859861308439    15.994914619570
         O           -3.196261917874     1.761997318597     0.201810691561    15.994914619570
         O           -3.606570917874    -0.542989681403    -0.939969308439    15.994914619570
         O           -0.975367917874    -1.688071681403     1.166853691561    15.994914619570
         O            1.452144082126     1.232790318597    -0.304324308439    15.994914619570
         O            1.692338082126    -1.289967681403    -0.340647308439    15.994914619570
         O            2.909872082126    -0.055822681403     1.407067691561    15.994914619570
         O            3.726224082126     0.293859318597    -1.049355308439    15.994914619570
         C           -2.227809917874     0.778740318597     0.558416691561    12.000000000000
         C           -1.005865917874     0.782761318597    -0.231046608439    12.000000000000
         C           -2.831934917874    -0.596499681403     0.239199691561    12.000000000000
         C           -1.586073917874    -1.399488681403    -0.067527308439    12.000000000000
         C            0.273388082126     1.201885318597     0.523988691561    12.000000000000
         H           -1.986806917874     0.838091318597     1.627784691561     1.007825032230
         H           -1.066086917874     1.504981318597    -1.146924308439     1.007825032230
         H           -3.390470917874    -1.013270681403     1.086757691561     1.007825032230
         H           -1.756936917874    -2.285285681403    -0.686732308439     1.007825032230
         H            0.392493082126     0.506346318597     1.359149691561     1.007825032230
         H            0.148411082126     2.213942318597     0.925353691561     1.007825032230
         H           -2.940135917874     2.614359318597     0.591651691561     1.007825032230
         H           -4.091462917874     0.303544318597    -0.910021308439     1.007825032230
         H           -0.091062917874    -2.064515681403     0.989102691561     1.007825032230
         H            0.858153082126    -1.072290681403    -0.837098308439     1.007825032230
         H            3.797909082126     0.316462318597     1.561061691561     1.007825032230

  Basis Set: AUG-CC-PVTZ
    Blend: AUG-CC-PVTZ
  Basis Set: (AUG-CC-PVTZ AUX)
    Blend: AUG-CC-PVTZ-JKFIT
	 Reference Energy          =   -1135.8091164154384387 [Eh]
	 Singles Energy            =      -0.0000000000000000 [Eh]
	 Same-Spin Energy          =      -0.8174916569228603 [Eh]
	 Opposite-Spin Energy      =      -2.4237048649622261 [Eh]
	 Correlation Energy        =      -3.2411965218850867 [Eh]
	 Total Energy              =   -1139.0503129373234970 [Eh]

	 ================> DF-SCS-MP2 Energies <==================
	-----------------------------------------------------------
	 SCS Same-Spin Scale       =       0.3333333333333333 [-]
	 SCS Opposite-Spin Scale   =       1.2000000000000000 [-]
	 SCS Same-Spin Energy      =      -0.2724972189742867 [Eh]
	 SCS Opposite-Spin Energy  =      -2.9084458379546714 [Eh]
	 SCS Correlation Energy    =      -3.1809430569289581 [Eh]
	 SCS Total Energy          =   -1138.9900594723674203 [Eh]
	-----------------------------------------------------------

  Dipole Moment: [D]
     X:    -3.4949      Y:     2.1962      Z:     4.0465     Total:     5.7803

*** Psi4 exiting successfully. Buy a developer a beer!
