                               Psi4 1.3.2 release

  ==> Input File <==

--------------------------------------------------------------------------
#psi4
#
memory 32 gb

molecule  {
0 1
  P        2.6114510     0.0433530    -0.1897960
  O       -0.7415730    -0.5166550    -0.8759300
  O       -3.1471200     1.7525200     0.1857420
  O       -3.5574290    -0.5524670    -0.9560380
  O       -0.9262260    -1.6975490     1.1507850
  O        1.5012860     1.2233130    -0.3203930
  O        1.7414800    -1.2994450    -0.3567160
  O        2.9590140    -0.0653000     1.3909990
  O        3.7753660     0.2843820    -1.0654240
  C       -2.1786680     0.7692630     0.5423480
  C       -0.8601401     0.9375311    -0.4096292
  C       -2.7827930    -0.6059770     0.2231310
  C       -1.5369320    -1.4089660    -0.0835960
  C        0.3225300     1.1924080     0.5079200
  H       -1.9376650     0.8286140     1.6117160
  H       -1.0169450     1.4955040    -1.1629930
  H       -3.3413290    -1.0227480     1.0706890
  H       -1.7077950    -2.2947630    -0.7028010
  H        0.4416350     0.4968690     1.3430810
  H        0.1975530     2.2044650     0.9092850
  H       -2.8909940     2.6048820     0.5755830
  H       -4.0423210     0.2940670    -0.9260900
  H       -0.0419210    -2.0739930     0.9730340
  H        0.9072950    -1.0817680    -0.8531670
  H        3.8470510     0.3069850     1.5449930
units angstrom
no_reorient  #important for SAPT in psi4, default
symmetry c1  #important for SAPT in psi4, default
}

set PROPERTIES_ORIGIN ["COM"]
properties('MP2/aug-cc-pvtz', properties = ['dipole'])
--------------------------------------------------------------------------

    Molecular point group: c1
  Charge       = 0
  Multiplicity = 1
  Basis Set: AUG-CC-PVTZ
    Blend: AUG-CC-PVTZ
  Basis Set: (AUG-CC-PVTZ AUX)
    Blend: AUG-CC-PVTZ-JKFIT

    Orbital Energies [Eh]
    ---------------------

    Doubly Occupied:

       1A    -80.114029     2A    -20.611221     3A    -20.603870
       4A    -20.603848     5A    -20.595897     6A    -20.591944
       7A    -20.590722     8A    -20.573367     9A    -20.513894
      10A    -11.358639    11A    -11.328408    12A    -11.326086
      13A    -11.319867    14A    -11.306169    15A     -7.628992
      16A     -5.527426    17A     -5.527310    18A     -5.525839
      19A     -1.456810    20A     -1.437845    21A     -1.409116
      22A     -1.390891    23A     -1.376548    24A     -1.371310
      25A     -1.352815    26A     -1.295283    27A     -1.078058
      28A     -1.045255    29A     -0.942877    30A     -0.871685
      31A     -0.846199    32A     -0.822341    33A     -0.770044
      34A     -0.754667    35A     -0.742478    36A     -0.729920
      37A     -0.715092    38A     -0.693664    39A     -0.682732
      40A     -0.668216    41A     -0.652485    42A     -0.643605
      43A     -0.641416    44A     -0.612522    45A     -0.608086
      46A     -0.588687    47A     -0.582201    48A     -0.579594
      49A     -0.566555    50A     -0.554965    51A     -0.541980
      52A     -0.533581    53A     -0.521335    54A     -0.509572
      55A     -0.487040    56A     -0.480341    57A     -0.474787
      58A     -0.468225    59A     -0.465655    60A     -0.443288

  @DF-RHF Final Energy: -1135.78972826118707

   => Energetics <=

    Nuclear Repulsion Energy =           1213.1382166840871832
    One-Electron Energy =               -3979.7413006037181731
    Two-Electron Energy =                1630.8133556584439248
    Total Energy =                      -1135.7897282611870651
  Basis Set: (AUG-CC-PVTZ AUX)
    Blend: AUG-CC-PVTZ-RI
    Molecular point group: c1

    Geometry (in Angstrom), charge = 0, multiplicity = 1:

       Center              X                  Y                   Z               Mass
    ------------   -----------------  -----------------  -----------------  -----------------
         P            2.557270341750     0.044261618282    -0.165249028420    30.973761998420
         O           -0.795753658250    -0.515746381718    -0.851383028420    15.994914619570
         O           -3.201300658250     1.753428618282     0.210288971580    15.994914619570
         O           -3.611609658250    -0.551558381718    -0.931491028420    15.994914619570
         O           -0.980406658250    -1.696640381718     1.175331971580    15.994914619570
         O            1.447105341750     1.224221618282    -0.295846028420    15.994914619570
         O            1.687299341750    -1.298536381718    -0.332169028420    15.994914619570
         O            2.904833341750    -0.064391381718     1.415545971580    15.994914619570
         O            3.721185341750     0.285290618282    -1.040877028420    15.994914619570
         C           -2.232848658250     0.770171618282     0.566894971580    12.000000000000
         C           -0.914320758250     0.938439718282    -0.385082228420    12.000000000000
         C           -2.836973658250    -0.605068381718     0.247677971580    12.000000000000
         C           -1.591112658250    -1.408057381718    -0.059049028420    12.000000000000
         C            0.268349341750     1.193316618282     0.532466971580    12.000000000000
         H           -1.991845658250     0.829522618282     1.636262971580     1.007825032230
         H           -1.071125658250     1.496412618282    -1.138446028420     1.007825032230
         H           -3.395509658250    -1.021839381718     1.095235971580     1.007825032230
         H           -1.761975658250    -2.293854381718    -0.678254028420     1.007825032230
         H            0.387454341750     0.497777618282     1.367627971580     1.007825032230
         H            0.143372341750     2.205373618282     0.933831971580     1.007825032230
         H           -2.945174658250     2.605790618282     0.600129971580     1.007825032230
         H           -4.096501658250     0.294975618282    -0.901543028420     1.007825032230
         H           -0.096101658250    -2.073084381718     0.997580971580     1.007825032230
         H            0.853114341750    -1.080859381718    -0.828620028420     1.007825032230
         H            3.792870341750     0.307893618282     1.569539971580     1.007825032230

  Basis Set: AUG-CC-PVTZ
    Blend: AUG-CC-PVTZ
  Basis Set: (AUG-CC-PVTZ AUX)
    Blend: AUG-CC-PVTZ-JKFIT
	 Reference Energy          =   -1135.7897282611870651 [Eh]
	 Singles Energy            =      -0.0000000000000000 [Eh]
	 Same-Spin Energy          =      -0.8160368763285853 [Eh]
	 Opposite-Spin Energy      =      -2.4231777594465345 [Eh]
	 Correlation Energy        =      -3.2392146357751197 [Eh]
	 Total Energy              =   -1139.0289428969622350 [Eh]

	 ================> DF-SCS-MP2 Energies <==================
	-----------------------------------------------------------
	 SCS Same-Spin Scale       =       0.3333333333333333 [-]
	 SCS Opposite-Spin Scale   =       1.2000000000000000 [-]
	 SCS Same-Spin Energy      =      -0.2720122921095284 [Eh]
	 SCS Opposite-Spin Energy  =      -2.9078133113358411 [Eh]
	 SCS Correlation Energy    =      -3.1798256034453694 [Eh]
	 SCS Total Energy          =   -1138.9695538646324167 [Eh]
	-----------------------------------------------------------

  Dipole Moment: [D]
     X:    -3.4918      Y:     2.5791      Z:     4.0307     Total:     5.9238

*** Psi4 exiting successfully. Buy a developer a beer!
