                               Psi4 1.3.2 release

  ==> Input File <==

--------------------------------------------------------------------------
#psi4
#
memory 32 gb

molecule  {
0 1
  P        2.6114510     0.0433530    -0.1897960
  O       -0.7415730    -0.5166550    -0.8759300
  O       -3.1471200     1.7525200     0.1857420
  O       -3.5574290    -0.5524670    -0.9560380
  O       -0.9262260    -1.6975490     1.1507850
  O        1.5012860     1.2233130    -0.3203930
  O        1.7414800    -1.2994450    -0.3567160
  O        2.9590140    -0.0653000     1.3909990
  O        3.7753660     0.2843820    -1.0654240
  C       -2.1786680     0.7692630     0.5423480
  C       -0.8994315     0.7931642    -0.3001529
  C       -2.7827930    -0.6059770     0.2231310
  C       -1.5369320    -1.4089660    -0.0835960
  C        0.3225300     1.1924080     0.5079200
  H       -1.9376650     0.8286140     1.6117160
  H       -1.0169450     1.4955040    -1.1629930
  H       -3.3413290    -1.0227480     1.0706890
  H       -1.7077950    -2.2947630    -0.7028010
  H        0.4416350     0.4968690     1.3430810
  H        0.1975530     2.2044650     0.9092850
  H       -2.8909940     2.6048820     0.5755830
  H       -4.0423210     0.2940670    -0.9260900
  H       -0.0419210    -2.0739930     0.9730340
  H        0.9072950    -1.0817680    -0.8531670
  H        3.8470510     0.3069850     1.5449930
units angstrom
no_reorient  #important for SAPT in psi4, default
symmetry c1  #important for SAPT in psi4, default
}

set PROPERTIES_ORIGIN ["COM"]
properties('MP2/aug-cc-pvtz', properties = ['dipole'])
--------------------------------------------------------------------------

    Molecular point group: c1
  Charge       = 0
  Multiplicity = 1
  Basis Set: AUG-CC-PVTZ
    Blend: AUG-CC-PVTZ
  Basis Set: (AUG-CC-PVTZ AUX)
    Blend: AUG-CC-PVTZ-JKFIT

    Orbital Energies [Eh]
    ---------------------

    Doubly Occupied:

       1A    -80.115140     2A    -20.611227     3A    -20.606660
       4A    -20.605369     5A    -20.605328     6A    -20.598919
       7A    -20.595588     8A    -20.575080     9A    -20.514753
      10A    -11.362823    11A    -11.322742    12A    -11.320902
      13A    -11.318523    14A    -11.307485    15A     -7.630090
      16A     -5.528508    17A     -5.528430    18A     -5.526926
      19A     -1.465347    20A     -1.449470    21A     -1.411799
      22A     -1.390743    23A     -1.378506    24A     -1.374494
      25A     -1.370448    26A     -1.296080    27A     -1.085970
      28A     -1.047216    29A     -0.947536    30A     -0.857360
      31A     -0.841562    32A     -0.829631    33A     -0.772341
      34A     -0.760440    35A     -0.748668    36A     -0.734787
      37A     -0.717089    38A     -0.693128    39A     -0.684356
      40A     -0.667517    41A     -0.653251    42A     -0.648667
      43A     -0.632603    44A     -0.614497    45A     -0.600373
      46A     -0.595850    47A     -0.582277    48A     -0.577971
      49A     -0.569477    50A     -0.560359    51A     -0.543683
      52A     -0.532057    53A     -0.527619    54A     -0.512280
      55A     -0.491533    56A     -0.488764    57A     -0.474372
      58A     -0.468809    59A     -0.465111    60A     -0.451061

  @DF-RHF Final Energy: -1135.82167811412023

   => Energetics <=

    Nuclear Repulsion Energy =           1216.3767632862841310
    One-Electron Energy =               -3986.0176935960430455
    Two-Electron Energy =                1633.8192521956386827
    Total Energy =                      -1135.8216781141202318
  Basis Set: (AUG-CC-PVTZ AUX)
    Blend: AUG-CC-PVTZ-RI
    Molecular point group: c1

    Geometry (in Angstrom), charge = 0, multiplicity = 1:

       Center              X                  Y                   Z               Mass
    ------------   -----------------  -----------------  -----------------  -----------------
         P            2.559320157129     0.051793177144    -0.170960359739    30.973761998420
         O           -0.793703842871    -0.508214822856    -0.857094359739    15.994914619570
         O           -3.199250842871     1.760960177144     0.204577640261    15.994914619570
         O           -3.609559842871    -0.544026822856    -0.937202359739    15.994914619570
         O           -0.978356842871    -1.689108822856     1.169620640261    15.994914619570
         O            1.449155157129     1.231753177144    -0.301557359739    15.994914619570
         O            1.689349157129    -1.291004822856    -0.337880359739    15.994914619570
         O            2.906883157129    -0.056859822856     1.409834640261    15.994914619570
         O            3.723235157129     0.292822177144    -1.046588359739    15.994914619570
         C           -2.230798842871     0.777703177144     0.561183640261    12.000000000000
         C           -0.951562342871     0.801604377144    -0.281317259739    12.000000000000
         C           -2.834923842871    -0.597536822856     0.241966640261    12.000000000000
         C           -1.589062842871    -1.400525822856    -0.064760359739    12.000000000000
         C            0.270399157129     1.200848177144     0.526755640261    12.000000000000
         H           -1.989795842871     0.837054177144     1.630551640261     1.007825032230
         H           -1.069075842871     1.503944177144    -1.144157359739     1.007825032230
         H           -3.393459842871    -1.014307822856     1.089524640261     1.007825032230
         H           -1.759925842871    -2.286322822856    -0.683965359739     1.007825032230
         H            0.389504157129     0.505309177144     1.361916640261     1.007825032230
         H            0.145422157129     2.212905177144     0.928120640261     1.007825032230
         H           -2.943124842871     2.613322177144     0.594418640261     1.007825032230
         H           -4.094451842871     0.302507177144    -0.907254359739     1.007825032230
         H           -0.094051842871    -2.065552822856     0.991869640261     1.007825032230
         H            0.855164157129    -1.073327822856    -0.834331359739     1.007825032230
         H            3.794920157129     0.315425177144     1.563828640261     1.007825032230

  Basis Set: AUG-CC-PVTZ
    Blend: AUG-CC-PVTZ
  Basis Set: (AUG-CC-PVTZ AUX)
    Blend: AUG-CC-PVTZ-JKFIT
	 Reference Energy          =   -1135.8216781141202318 [Eh]
	 Singles Energy            =      -0.0000000000000000 [Eh]
	 Same-Spin Energy          =      -0.8164725734135808 [Eh]
	 Opposite-Spin Energy      =      -2.4220058679959697 [Eh]
	 Correlation Energy        =      -3.2384784414095504 [Eh]
	 Total Energy              =   -1139.0601565555298293 [Eh]

	 ================> DF-SCS-MP2 Energies <==================
	-----------------------------------------------------------
	 SCS Same-Spin Scale       =       0.3333333333333333 [-]
	 SCS Opposite-Spin Scale   =       1.2000000000000000 [-]
	 SCS Same-Spin Energy      =      -0.2721575244711936 [Eh]
	 SCS Opposite-Spin Energy  =      -2.9064070415951635 [Eh]
	 SCS Correlation Energy    =      -3.1785645660663571 [Eh]
	 SCS Total Energy          =   -1139.0002426801866022 [Eh]
	-----------------------------------------------------------

  Dipole Moment: [D]
     X:    -3.4791      Y:     2.2463      Z:     4.0388     Total:     5.7846

*** Psi4 exiting successfully. Buy a developer a beer!
