                               Psi4 1.3.2 release

  ==> Input File <==

--------------------------------------------------------------------------
#psi4
#
memory 32 gb

molecule  {
0 1
  P        2.6114510     0.0433530    -0.1897960
  O       -0.7415730    -0.5166550    -0.8759300
  O       -3.1471200     1.7525200     0.1857420
  O       -3.5574290    -0.5524670    -0.9560380
  O       -0.9262260    -1.6975490     1.1507850
  O        1.5012860     1.2233130    -0.3203930
  O        1.7414800    -1.2994450    -0.3567160
  O        2.9590140    -0.0653000     1.3909990
  O        3.7753660     0.2843820    -1.0654240
  C       -2.1786680     0.7692630     0.5423480
  C       -0.8949230     0.8134730    -0.3165700
  C       -2.7970743    -0.6232077     0.2090945
  C       -1.5369320    -1.4089660    -0.0835960
  C        0.3225300     1.1924080     0.5079200
  H       -1.9376650     0.8286140     1.6117160
  H       -1.0169450     1.4955040    -1.1629930
  H       -3.3413290    -1.0227480     1.0706890
  H       -1.7077950    -2.2947630    -0.7028010
  H        0.4416350     0.4968690     1.3430810
  H        0.1975530     2.2044650     0.9092850
  H       -2.8909940     2.6048820     0.5755830
  H       -4.0423210     0.2940670    -0.9260900
  H       -0.0419210    -2.0739930     0.9730340
  H        0.9072950    -1.0817680    -0.8531670
  H        3.8470510     0.3069850     1.5449930
units angstrom
no_reorient  #important for SAPT in psi4, default
symmetry c1  #important for SAPT in psi4, default
}

set PROPERTIES_ORIGIN ["COM"]
properties('MP2/aug-cc-pvtz', properties = ['dipole'])
--------------------------------------------------------------------------

    Molecular point group: c1
  Charge       = 0
  Multiplicity = 1
  Basis Set: AUG-CC-PVTZ
    Blend: AUG-CC-PVTZ
  Basis Set: (AUG-CC-PVTZ AUX)
    Blend: AUG-CC-PVTZ-JKFIT

    Orbital Energies [Eh]
    ---------------------

    Doubly Occupied:

       1A    -80.114750     2A    -20.611015     3A    -20.605700
       4A    -20.604807     5A    -20.603296     6A    -20.598262
       7A    -20.594790     8A    -20.576494     9A    -20.514433
      10A    -11.361697    11A    -11.322979    12A    -11.320871
      13A    -11.317635    14A    -11.307793    15A     -7.629701
      16A     -5.528121    17A     -5.528039    18A     -5.526539
      19A     -1.462865    20A     -1.448091    21A     -1.411858
      22A     -1.390475    23A     -1.378706    24A     -1.377729
      25A     -1.369459    26A     -1.295769    27A     -1.081590
      28A     -1.045024    29A     -0.946049    30A     -0.856585
      31A     -0.842368    32A     -0.829204    33A     -0.771423
      34A     -0.761345    35A     -0.746798    36A     -0.733286
      37A     -0.716525    38A     -0.692553    39A     -0.685609
      40A     -0.669145    41A     -0.653117    42A     -0.647655
      43A     -0.633673    44A     -0.614182    45A     -0.600762
      46A     -0.598029    47A     -0.582247    48A     -0.577786
      49A     -0.569665    50A     -0.561255    51A     -0.543303
      52A     -0.531997    53A     -0.527226    54A     -0.510563
      55A     -0.488239    56A     -0.486879    57A     -0.474717
      58A     -0.469051    59A     -0.465316    60A     -0.448315

  @DF-RHF Final Energy: -1135.82257156513083

   => Energetics <=

    Nuclear Repulsion Energy =           1215.6467316729074355
    One-Electron Energy =               -3984.6118989921114917
    Two-Electron Energy =                1633.1425957540729996
    Total Energy =                      -1135.8225715651308292
  Basis Set: (AUG-CC-PVTZ AUX)
    Blend: AUG-CC-PVTZ-RI
    Molecular point group: c1

    Geometry (in Angstrom), charge = 0, multiplicity = 1:

       Center              X                  Y                   Z               Mass
    ------------   -----------------  -----------------  -----------------  -----------------
         P            2.559829999887     0.051632593995    -0.169371608572    30.973761998420
         O           -0.793194000113    -0.508375406005    -0.855505608572    15.994914619570
         O           -3.198741000113     1.760799593995     0.206166391428    15.994914619570
         O           -3.609050000113    -0.544187406005    -0.935613608572    15.994914619570
         O           -0.977847000113    -1.689269406005     1.171209391428    15.994914619570
         O            1.449664999887     1.231592593995    -0.299968608572    15.994914619570
         O            1.689858999887    -1.291165406005    -0.336291608572    15.994914619570
         O            2.907392999887    -0.057020406005     1.411423391428    15.994914619570
         O            3.723744999887     0.292661593995    -1.044999608572    15.994914619570
         C           -2.230289000113     0.777542593995     0.562772391428    12.000000000000
         C           -0.946544000113     0.821752593995    -0.296145608572    12.000000000000
         C           -2.848695300113    -0.614928106005     0.229518891428    12.000000000000
         C           -1.588553000113    -1.400686406005    -0.063171608572    12.000000000000
         C            0.270908999887     1.200687593995     0.528344391428    12.000000000000
         H           -1.989286000113     0.836893593995     1.632140391428     1.007825032230
         H           -1.068566000113     1.503783593995    -1.142568608572     1.007825032230
         H           -3.392950000113    -1.014468406005     1.091113391428     1.007825032230
         H           -1.759416000113    -2.286483406005    -0.682376608572     1.007825032230
         H            0.390013999887     0.505148593995     1.363505391428     1.007825032230
         H            0.145931999887     2.212744593995     0.929709391428     1.007825032230
         H           -2.942615000113     2.613161593995     0.596007391428     1.007825032230
         H           -4.093942000113     0.302346593995    -0.905665608572     1.007825032230
         H           -0.093542000113    -2.065713406005     0.993458391428     1.007825032230
         H            0.855673999887    -1.073488406005    -0.832742608572     1.007825032230
         H            3.795429999887     0.315264593995     1.565417391428     1.007825032230

  Basis Set: AUG-CC-PVTZ
    Blend: AUG-CC-PVTZ
  Basis Set: (AUG-CC-PVTZ AUX)
    Blend: AUG-CC-PVTZ-JKFIT
	 Reference Energy          =   -1135.8225715651308292 [Eh]
	 Singles Energy            =      -0.0000000000000000 [Eh]
	 Same-Spin Energy          =      -0.8161968361990593 [Eh]
	 Opposite-Spin Energy      =      -2.4215078862894384 [Eh]
	 Correlation Energy        =      -3.2377047224884974 [Eh]
	 Total Energy              =   -1139.0602762876192173 [Eh]

	 ================> DF-SCS-MP2 Energies <==================
	-----------------------------------------------------------
	 SCS Same-Spin Scale       =       0.3333333333333333 [-]
	 SCS Opposite-Spin Scale   =       1.2000000000000000 [-]
	 SCS Same-Spin Energy      =      -0.2720656120663530 [Eh]
	 SCS Opposite-Spin Energy  =      -2.9058094635473259 [Eh]
	 SCS Correlation Energy    =      -3.1778750756136791 [Eh]
	 SCS Total Energy          =   -1139.0004466407444852 [Eh]
	-----------------------------------------------------------

  Dipole Moment: [D]
     X:    -3.5442      Y:     2.2862      Z:     3.9952     Total:     5.8094

*** Psi4 exiting successfully. Buy a developer a beer!
