                               Psi4 1.3.2 release

  ==> Input File <==

--------------------------------------------------------------------------
#psi4
#
memory 32 gb

molecule  {
0 1
  P        2.6114510     0.0433530    -0.1897960
  O       -0.7415730    -0.5166550    -0.8759300
  O       -3.1471200     1.7525200     0.1857420
  O       -3.5574290    -0.5524670    -0.9560380
  O       -0.9262260    -1.6975490     1.1507850
  O        1.5012860     1.2233130    -0.3203930
  O        1.7414800    -1.2994450    -0.3567160
  O        2.9590140    -0.0653000     1.3909990
  O        3.7753660     0.2843820    -1.0654240
  C       -2.1786680     0.7692630     0.5423480
  C       -0.8949230     0.8134730    -0.3165700
  C       -2.6892961    -0.5079079     0.3052402
  C       -1.5369320    -1.4089660    -0.0835960
  C        0.3225300     1.1924080     0.5079200
  H       -1.9376650     0.8286140     1.6117160
  H       -1.0169450     1.4955040    -1.1629930
  H       -3.3413290    -1.0227480     1.0706890
  H       -1.7077950    -2.2947630    -0.7028010
  H        0.4416350     0.4968690     1.3430810
  H        0.1975530     2.2044650     0.9092850
  H       -2.8909940     2.6048820     0.5755830
  H       -4.0423210     0.2940670    -0.9260900
  H       -0.0419210    -2.0739930     0.9730340
  H        0.9072950    -1.0817680    -0.8531670
  H        3.8470510     0.3069850     1.5449930
units angstrom
no_reorient  #important for SAPT in psi4, default
symmetry c1  #important for SAPT in psi4, default
}

set PROPERTIES_ORIGIN ["COM"]
properties('MP2/aug-cc-pvtz', properties = ['dipole'])
--------------------------------------------------------------------------

    Molecular point group: c1
  Charge       = 0
  Multiplicity = 1
  Basis Set: AUG-CC-PVTZ
    Blend: AUG-CC-PVTZ
  Basis Set: (AUG-CC-PVTZ AUX)
    Blend: AUG-CC-PVTZ-JKFIT

    Orbital Energies [Eh]
    ---------------------

    Doubly Occupied:

       1A    -80.116153     2A    -20.612285     3A    -20.609708
       4A    -20.606732     5A    -20.604631     6A    -20.599705
       7A    -20.595453     8A    -20.564622     9A    -20.515633
      10A    -11.366985    11A    -11.323559    12A    -11.322356
      13A    -11.321478    14A    -11.307669    15A     -7.631103
      16A     -5.529525    17A     -5.529439    18A     -5.527937
      19A     -1.465861    20A     -1.450297    21A     -1.413623
      22A     -1.392064    23A     -1.379482    24A     -1.373005
      25A     -1.334558    26A     -1.296963    27A     -1.108456
      28A     -1.056097    29A     -0.951049    30A     -0.867098
      31A     -0.841738    32A     -0.826763    33A     -0.776480
      34A     -0.753374    35A     -0.750374    36A     -0.739972
      37A     -0.718433    38A     -0.695255    39A     -0.680708
      40A     -0.659697    41A     -0.654505    42A     -0.649052
      43A     -0.627420    44A     -0.615287    45A     -0.602971
      46A     -0.590593    47A     -0.581222    48A     -0.576153
      49A     -0.568122    50A     -0.549418    51A     -0.542138
      52A     -0.532396    53A     -0.523987    54A     -0.519533
      55A     -0.499582    56A     -0.490161    57A     -0.476809
      58A     -0.469838    59A     -0.464700    60A     -0.455464

  @DF-RHF Final Energy: -1135.79398425117074

   => Energetics <=

    Nuclear Repulsion Energy =           1217.7496606390261604
    One-Electron Energy =               -3988.6759412364094715
    Two-Electron Energy =                1635.1322963462123425
    Total Energy =                      -1135.7939842511707411
  Basis Set: (AUG-CC-PVTZ AUX)
    Blend: AUG-CC-PVTZ-RI
    Molecular point group: c1

    Geometry (in Angstrom), charge = 0, multiplicity = 1:

       Center              X                  Y                   Z               Mass
    ------------   -----------------  -----------------  -----------------  -----------------
         P            2.554207257712     0.045617453195    -0.174387488242    30.973761998420
         O           -0.798816742288    -0.514390546805    -0.860521488242    15.994914619570
         O           -3.204363742288     1.754784453195     0.201150511758    15.994914619570
         O           -3.614672742288    -0.550202546805    -0.940629488242    15.994914619570
         O           -0.983469742288    -1.695284546805     1.166193511758    15.994914619570
         O            1.444042257712     1.225577453195    -0.304984488242    15.994914619570
         O            1.684236257712    -1.297180546805    -0.341307488242    15.994914619570
         O            2.901770257712    -0.063035546805     1.406407511758    15.994914619570
         O            3.718122257712     0.286646453195    -1.050015488242    15.994914619570
         C           -2.235911742288     0.771527453195     0.557756511758    12.000000000000
         C           -0.952166742288     0.815737453195    -0.301161488242    12.000000000000
         C           -2.746539842288    -0.505643446805     0.320648711758    12.000000000000
         C           -1.594175742288    -1.406701546805    -0.068187488242    12.000000000000
         C            0.265286257712     1.194672453195     0.523328511758    12.000000000000
         H           -1.994908742288     0.830878453195     1.627124511758     1.007825032230
         H           -1.074188742288     1.497768453195    -1.147584488242     1.007825032230
         H           -3.398572742288    -1.020483546805     1.086097511758     1.007825032230
         H           -1.765038742288    -2.292498546805    -0.687392488242     1.007825032230
         H            0.384391257712     0.499133453195     1.358489511758     1.007825032230
         H            0.140309257712     2.206729453195     0.924693511758     1.007825032230
         H           -2.948237742288     2.607146453195     0.590991511758     1.007825032230
         H           -4.099564742288     0.296331453195    -0.910681488242     1.007825032230
         H           -0.099164742288    -2.071728546805     0.988442511758     1.007825032230
         H            0.850051257712    -1.079503546805    -0.837758488242     1.007825032230
         H            3.789807257712     0.309249453195     1.560401511758     1.007825032230

  Basis Set: AUG-CC-PVTZ
    Blend: AUG-CC-PVTZ
  Basis Set: (AUG-CC-PVTZ AUX)
    Blend: AUG-CC-PVTZ-JKFIT
	 Reference Energy          =   -1135.7939842511707411 [Eh]
	 Singles Energy            =      -0.0000000000000000 [Eh]
	 Same-Spin Energy          =      -0.8182064350272725 [Eh]
	 Opposite-Spin Energy      =      -2.4261369946517686 [Eh]
	 Correlation Energy        =      -3.2443434296790410 [Eh]
	 Total Energy              =   -1139.0383276808497612 [Eh]

	 ================> DF-SCS-MP2 Energies <==================
	-----------------------------------------------------------
	 SCS Same-Spin Scale       =       0.3333333333333333 [-]
	 SCS Opposite-Spin Scale   =       1.2000000000000000 [-]
	 SCS Same-Spin Energy      =      -0.2727354783424242 [Eh]
	 SCS Opposite-Spin Energy  =      -2.9113643935821223 [Eh]
	 SCS Correlation Energy    =      -3.1840998719245466 [Eh]
	 SCS Total Energy          =   -1138.9780841230951864 [Eh]
	-----------------------------------------------------------

  Dipole Moment: [D]
     X:    -3.1482      Y:     2.3484      Z:     4.2232     Total:     5.7673

*** Psi4 exiting successfully. Buy a developer a beer!
