                               Psi4 1.3.2 release

  ==> Input File <==

--------------------------------------------------------------------------
#psi4
#
memory 32 gb

molecule  {
0 1
  P        2.6114510     0.0433530    -0.1897960
  O       -0.7415730    -0.5166550    -0.8759300
  O       -3.1471200     1.7525200     0.1857420
  O       -3.5574290    -0.5524670    -0.9560380
  O       -0.9262260    -1.6975490     1.1507850
  O        1.5012860     1.2233130    -0.3203930
  O        1.7414800    -1.2994450    -0.3567160
  O        2.9590140    -0.0653000     1.3909990
  O        3.7753660     0.2843820    -1.0654240
  C       -2.1786680     0.7692630     0.5423480
  C       -0.8949230     0.8134730    -0.3165700
  C       -2.8376591    -0.6021870     0.1396125
  C       -1.5369320    -1.4089660    -0.0835960
  C        0.3225300     1.1924080     0.5079200
  H       -1.9376650     0.8286140     1.6117160
  H       -1.0169450     1.4955040    -1.1629930
  H       -3.3413290    -1.0227480     1.0706890
  H       -1.7077950    -2.2947630    -0.7028010
  H        0.4416350     0.4968690     1.3430810
  H        0.1975530     2.2044650     0.9092850
  H       -2.8909940     2.6048820     0.5755830
  H       -4.0423210     0.2940670    -0.9260900
  H       -0.0419210    -2.0739930     0.9730340
  H        0.9072950    -1.0817680    -0.8531670
  H        3.8470510     0.3069850     1.5449930
units angstrom
no_reorient  #important for SAPT in psi4, default
symmetry c1  #important for SAPT in psi4, default
}

set PROPERTIES_ORIGIN ["COM"]
properties('MP2/aug-cc-pvtz', properties = ['dipole'])
--------------------------------------------------------------------------

    Molecular point group: c1
  Charge       = 0
  Multiplicity = 1
  Basis Set: AUG-CC-PVTZ
    Blend: AUG-CC-PVTZ
  Basis Set: (AUG-CC-PVTZ AUX)
    Blend: AUG-CC-PVTZ-JKFIT

    Orbital Energies [Eh]
    ---------------------

    Doubly Occupied:

       1A    -80.114094     2A    -20.610429     3A    -20.605036
       4A    -20.604007     5A    -20.601278     6A    -20.597439
       7A    -20.594063     8A    -20.585554     9A    -20.513883
      10A    -11.359421    11A    -11.320631    12A    -11.319917
      13A    -11.316009    14A    -11.310526    15A     -7.629045
      16A     -5.527465    17A     -5.527382    18A     -5.525885
      19A     -1.463673    20A     -1.450243    21A     -1.426542
      22A     -1.397076    23A     -1.389431    24A     -1.377134
      25A     -1.368201    26A     -1.295221    27A     -1.078494
      28A     -1.036334    29A     -0.943817    30A     -0.854960
      31A     -0.843183    32A     -0.828022    33A     -0.770820
      34A     -0.768701    35A     -0.745056    36A     -0.732431
      37A     -0.715906    38A     -0.692408    39A     -0.689166
      40A     -0.675569    41A     -0.653477    42A     -0.647836
      43A     -0.635187    44A     -0.623627    45A     -0.604071
      46A     -0.598855    47A     -0.583563    48A     -0.578874
      49A     -0.570513    50A     -0.564894    51A     -0.542861
      52A     -0.531138    53A     -0.527420    54A     -0.509278
      55A     -0.487118    56A     -0.480597    57A     -0.472632
      58A     -0.466305    59A     -0.455635    60A     -0.441213

  @DF-RHF Final Energy: -1135.81306757009474

   => Energetics <=

    Nuclear Repulsion Energy =           1215.8343817119591677
    One-Electron Energy =               -3984.9358086248880682
    Two-Electron Energy =                1633.2883593428343829
    Total Energy =                      -1135.8130675700947450
  Basis Set: (AUG-CC-PVTZ AUX)
    Blend: AUG-CC-PVTZ-RI
    Molecular point group: c1

    Geometry (in Angstrom), charge = 0, multiplicity = 1:

       Center              X                  Y                   Z               Mass
    ------------   -----------------  -----------------  -----------------  -----------------
         P            2.561947291386     0.050535953149    -0.165746762621    30.973761998420
         O           -0.791076708614    -0.509472046851    -0.851880762621    15.994914619570
         O           -3.196623708614     1.759702953149     0.209791237379    15.994914619570
         O           -3.606932708614    -0.545284046851    -0.931988762621    15.994914619570
         O           -0.975729708614    -1.690366046851     1.174834237379    15.994914619570
         O            1.451782291386     1.230495953149    -0.296343762621    15.994914619570
         O            1.691976291386    -1.292262046851    -0.332666762621    15.994914619570
         O            2.909510291386    -0.058117046851     1.415048237379    15.994914619570
         O            3.725862291386     0.291564953149    -1.041374762621    15.994914619570
         C           -2.228171708614     0.776445953149     0.566397237379    12.000000000000
         C           -0.944426708614     0.820655953149    -0.292520762621    12.000000000000
         C           -2.887162808614    -0.595004046851     0.163661737379    12.000000000000
         C           -1.586435708614    -1.401783046851    -0.059546762621    12.000000000000
         C            0.273026291386     1.199590953149     0.531969237379    12.000000000000
         H           -1.987168708614     0.835796953149     1.635765237379     1.007825032230
         H           -1.066448708614     1.502686953149    -1.138943762621     1.007825032230
         H           -3.390832708614    -1.015565046851     1.094738237379     1.007825032230
         H           -1.757298708614    -2.287580046851    -0.678751762621     1.007825032230
         H            0.392131291386     0.504051953149     1.367130237379     1.007825032230
         H            0.148049291386     2.211647953149     0.933334237379     1.007825032230
         H           -2.940497708614     2.612064953149     0.599632237379     1.007825032230
         H           -4.091824708614     0.301249953149    -0.902040762621     1.007825032230
         H           -0.091424708614    -2.066810046851     0.997083237379     1.007825032230
         H            0.857791291386    -1.074585046851    -0.829117762621     1.007825032230
         H            3.797547291386     0.314167953149     1.569042237379     1.007825032230

  Basis Set: AUG-CC-PVTZ
    Blend: AUG-CC-PVTZ
  Basis Set: (AUG-CC-PVTZ AUX)
    Blend: AUG-CC-PVTZ-JKFIT
	 Reference Energy          =   -1135.8130675700947450 [Eh]
	 Singles Energy            =      -0.0000000000000000 [Eh]
	 Same-Spin Energy          =      -0.8165148183838915 [Eh]
	 Opposite-Spin Energy      =      -2.4210449337471491 [Eh]
	 Correlation Energy        =      -3.2375597521310406 [Eh]
	 Total Energy              =   -1139.0506273222258642 [Eh]

	 ================> DF-SCS-MP2 Energies <==================
	-----------------------------------------------------------
	 SCS Same-Spin Scale       =       0.3333333333333333 [-]
	 SCS Opposite-Spin Scale   =       1.2000000000000000 [-]
	 SCS Same-Spin Energy      =      -0.2721716061279638 [Eh]
	 SCS Opposite-Spin Energy  =      -2.9052539204965790 [Eh]
	 SCS Correlation Energy    =      -3.1774255266245430 [Eh]
	 SCS Total Energy          =   -1138.9904930967193195 [Eh]
	-----------------------------------------------------------

  Dipole Moment: [D]
     X:    -3.7370      Y:     2.3322      Z:     3.7474     Total:     5.7834

*** Psi4 exiting successfully. Buy a developer a beer!
