                               Psi4 1.3.2 release

  ==> Input File <==

--------------------------------------------------------------------------
#psi4
#
memory 32 gb

molecule  {
0 1
  P        2.6114510     0.0433530    -0.1897960
  O       -0.7415730    -0.5166550    -0.8759300
  O       -3.1471200     1.7525200     0.1857420
  O       -3.5574290    -0.5524670    -0.9560380
  O       -0.9262260    -1.6975490     1.1507850
  O        1.5012860     1.2233130    -0.3203930
  O        1.7414800    -1.2994450    -0.3567160
  O        2.9590140    -0.0653000     1.3909990
  O        3.7753660     0.2843820    -1.0654240
  C       -2.1786680     0.7692630     0.5423480
  C       -0.8949230     0.8134730    -0.3165700
  C       -2.7827930    -0.6059770     0.2231310
  C       -1.5369320    -1.4089660    -0.0835960
  C        0.3000518     1.1108638     0.5717774
  H       -1.9376650     0.8286140     1.6117160
  H       -1.0169450     1.4955040    -1.1629930
  H       -3.3413290    -1.0227480     1.0706890
  H       -1.7077950    -2.2947630    -0.7028010
  H        0.4416350     0.4968690     1.3430810
  H        0.1975530     2.2044650     0.9092850
  H       -2.8909940     2.6048820     0.5755830
  H       -4.0423210     0.2940670    -0.9260900
  H       -0.0419210    -2.0739930     0.9730340
  H        0.9072950    -1.0817680    -0.8531670
  H        3.8470510     0.3069850     1.5449930
units angstrom
no_reorient  #important for SAPT in psi4, default
symmetry c1  #important for SAPT in psi4, default
}

set PROPERTIES_ORIGIN ["COM"]
properties('MP2/aug-cc-pvtz', properties = ['dipole'])
--------------------------------------------------------------------------

    Molecular point group: c1
  Charge       = 0
  Multiplicity = 1
  Basis Set: AUG-CC-PVTZ
    Blend: AUG-CC-PVTZ
  Basis Set: (AUG-CC-PVTZ AUX)
    Blend: AUG-CC-PVTZ-JKFIT

    Orbital Energies [Eh]
    ---------------------

    Doubly Occupied:

       1A    -80.110889     2A    -20.609915     3A    -20.607335
       4A    -20.603309     5A    -20.602274     6A    -20.597239
       7A    -20.596270     8A    -20.575823     9A    -20.511626
      10A    -11.362984    11A    -11.324197    12A    -11.322976
      13A    -11.321706    14A    -11.308144    15A     -7.626090
      16A     -5.524463    17A     -5.524372    18A     -5.522971
      19A     -1.462160    20A     -1.445448    21A     -1.412551
      22A     -1.384223    23A     -1.375039    24A     -1.372391
      25A     -1.368271    26A     -1.292748    27A     -1.087734
      28A     -1.048506    29A     -0.948579    30A     -0.856141
      31A     -0.846038    32A     -0.832809    33A     -0.771229
      34A     -0.758658    35A     -0.745581    36A     -0.738367
      37A     -0.715468    38A     -0.690809    39A     -0.679988
      40A     -0.669045    41A     -0.648290    42A     -0.647451
      43A     -0.630281    44A     -0.611802    45A     -0.602871
      46A     -0.594224    47A     -0.585500    48A     -0.577812
      49A     -0.570180    50A     -0.561356    51A     -0.544663
      52A     -0.535354    53A     -0.525335    54A     -0.515270
      55A     -0.490926    56A     -0.488592    57A     -0.475939
      58A     -0.468186    59A     -0.463945    60A     -0.449289

  @DF-RHF Final Energy: -1135.80748245261088

   => Energetics <=

    Nuclear Repulsion Energy =           1216.2661774674741082
    One-Electron Energy =               -3985.8640596886571075
    Two-Electron Energy =                1633.7903997685718878
    Total Energy =                      -1135.8074824526108841
  Basis Set: (AUG-CC-PVTZ AUX)
    Blend: AUG-CC-PVTZ-RI
    Molecular point group: c1

    Geometry (in Angstrom), charge = 0, multiplicity = 1:

       Center              X                  Y                   Z               Mass
    ------------   -----------------  -----------------  -----------------  -----------------
         P            2.560257628622     0.054987801532    -0.173435299714    30.973761998420
         O           -0.792766371378    -0.505020198468    -0.859569299714    15.994914619570
         O           -3.198313371378     1.764154801532     0.202102700286    15.994914619570
         O           -3.608622371378    -0.540832198468    -0.939677299714    15.994914619570
         O           -0.977419371378    -1.685914198468     1.167145700286    15.994914619570
         O            1.450092628622     1.234947801532    -0.304032299714    15.994914619570
         O            1.690286628622    -1.287810198468    -0.340355299714    15.994914619570
         O            2.907820628622    -0.053665198468     1.407359700286    15.994914619570
         O            3.724172628622     0.296016801532    -1.049063299714    15.994914619570
         C           -2.229861371378     0.780897801532     0.558708700286    12.000000000000
         C           -0.946116371378     0.825107801532    -0.300209299714    12.000000000000
         C           -2.833986371378    -0.594342198468     0.239491700286    12.000000000000
         C           -1.588125371378    -1.397331198468    -0.067235299714    12.000000000000
         C            0.248858428622     1.122498601532     0.588138100286    12.000000000000
         H           -1.988858371378     0.840248801532     1.628076700286     1.007825032230
         H           -1.068138371378     1.507138801532    -1.146632299714     1.007825032230
         H           -3.392522371378    -1.011113198468     1.087049700286     1.007825032230
         H           -1.758988371378    -2.283128198468    -0.686440299714     1.007825032230
         H            0.390441628622     0.508503801532     1.359441700286     1.007825032230
         H            0.146359628622     2.216099801532     0.925645700286     1.007825032230
         H           -2.942187371378     2.616516801532     0.591943700286     1.007825032230
         H           -4.093514371378     0.305701801532    -0.909729299714     1.007825032230
         H           -0.093114371378    -2.062358198468     0.989394700286     1.007825032230
         H            0.856101628622    -1.070133198468    -0.836806299714     1.007825032230
         H            3.795857628622     0.318619801532     1.561353700286     1.007825032230

  Basis Set: AUG-CC-PVTZ
    Blend: AUG-CC-PVTZ
  Basis Set: (AUG-CC-PVTZ AUX)
    Blend: AUG-CC-PVTZ-JKFIT
	 Reference Energy          =   -1135.8074824526108841 [Eh]
	 Singles Energy            =      -0.0000000000000000 [Eh]
	 Same-Spin Energy          =      -0.8166695431135786 [Eh]
	 Opposite-Spin Energy      =      -2.4234848038081740 [Eh]
	 Correlation Energy        =      -3.2401543469217526 [Eh]
	 Total Energy              =   -1139.0476367995327109 [Eh]

	 ================> DF-SCS-MP2 Energies <==================
	-----------------------------------------------------------
	 SCS Same-Spin Scale       =       0.3333333333333333 [-]
	 SCS Opposite-Spin Scale   =       1.2000000000000000 [-]
	 SCS Same-Spin Energy      =      -0.2722231810378595 [Eh]
	 SCS Opposite-Spin Energy  =      -2.9081817645698087 [Eh]
	 SCS Correlation Energy    =      -3.1804049456076684 [Eh]
	 SCS Total Energy          =   -1138.9878873982186178 [Eh]
	-----------------------------------------------------------

  Dipole Moment: [D]
     X:    -3.6859      Y:     2.2562      Z:     4.0955     Total:     5.9539

*** Psi4 exiting successfully. Buy a developer a beer!
