                               Psi4 1.3.2 release

  ==> Input File <==

--------------------------------------------------------------------------
#psi4
#
memory 32 gb

molecule  {
0 1
  P        2.6114510     0.0433530    -0.1897960
  O       -0.7415730    -0.5166550    -0.8759300
  O       -3.1471200     1.7525200     0.1857420
  O       -3.5574290    -0.5524670    -0.9560380
  O       -0.9262260    -1.6975490     1.1507850
  O        1.5012860     1.2233130    -0.3203930
  O        1.7414800    -1.2994450    -0.3567160
  O        2.9590140    -0.0653000     1.3909990
  O        3.7753660     0.2843820    -1.0654240
  C       -2.0819646     0.7269027     0.5238350
  C       -0.8949230     0.8134730    -0.3165700
  C       -2.7827930    -0.6059770     0.2231310
  C       -1.5369320    -1.4089660    -0.0835960
  C        0.3225300     1.1924080     0.5079200
  H       -1.9376650     0.8286140     1.6117160
  H       -1.0169450     1.4955040    -1.1629930
  H       -3.3413290    -1.0227480     1.0706890
  H       -1.7077950    -2.2947630    -0.7028010
  H        0.4416350     0.4968690     1.3430810
  H        0.1975530     2.2044650     0.9092850
  H       -2.8909940     2.6048820     0.5755830
  H       -4.0423210     0.2940670    -0.9260900
  H       -0.0419210    -2.0739930     0.9730340
  H        0.9072950    -1.0817680    -0.8531670
  H        3.8470510     0.3069850     1.5449930
units angstrom
no_reorient  #important for SAPT in psi4, default
symmetry c1  #important for SAPT in psi4, default
}

set PROPERTIES_ORIGIN ["COM"]
properties('MP2/aug-cc-pvtz', properties = ['dipole'])
--------------------------------------------------------------------------

    Molecular point group: c1
  Charge       = 0
  Multiplicity = 1
  Basis Set: AUG-CC-PVTZ
    Blend: AUG-CC-PVTZ
  Basis Set: (AUG-CC-PVTZ AUX)
    Blend: AUG-CC-PVTZ-JKFIT

    Orbital Energies [Eh]
    ---------------------

    Doubly Occupied:

       1A    -80.116416     2A    -20.612500     3A    -20.607071
       4A    -20.605707     5A    -20.599963     6A    -20.596683
       7A    -20.596129     8A    -20.575863     9A    -20.515859
      10A    -11.362986    11A    -11.324500    12A    -11.324166
      13A    -11.319259    14A    -11.310373    15A     -7.631368
      16A     -5.529790    17A     -5.529704    18A     -5.528202
      19A     -1.466456    20A     -1.450535    21A     -1.393195
      22A     -1.392112    23A     -1.379660    24A     -1.372142
      25A     -1.360068    26A     -1.297205    27A     -1.101645
      28A     -1.050922    29A     -0.950868    30A     -0.857518
      31A     -0.842093    32A     -0.834605    33A     -0.771933
      34A     -0.760841    35A     -0.746488    36A     -0.729381
      37A     -0.716058    38A     -0.695386    39A     -0.680847
      40A     -0.664065    41A     -0.654488    42A     -0.648320
      43A     -0.633175    44A     -0.613843    45A     -0.605216
      46A     -0.594066    47A     -0.583278    48A     -0.578778
      49A     -0.560040    50A     -0.553327    51A     -0.544801
      52A     -0.534392    53A     -0.528588    54A     -0.511895
      55A     -0.495783    56A     -0.491512    57A     -0.476201
      58A     -0.472322    59A     -0.468969    60A     -0.456137

  @DF-RHF Final Energy: -1135.80919228404809

   => Energetics <=

    Nuclear Repulsion Energy =           1217.3932709191280992
    One-Electron Energy =               -3987.9935419218995776
    Two-Electron Energy =                1634.7910787187233836
    Total Energy =                      -1135.8091922840480947
  Basis Set: (AUG-CC-PVTZ AUX)
    Blend: AUG-CC-PVTZ-RI
    Molecular point group: c1

    Geometry (in Angstrom), charge = 0, multiplicity = 1:

       Center              X                  Y                   Z               Mass
    ------------   -----------------  -----------------  -----------------  -----------------
         P            2.554039975991     0.052943594381    -0.169138071499    30.973761998420
         O           -0.798984024009    -0.507064405619    -0.855272071499    15.994914619570
         O           -3.204531024009     1.762110594381     0.206399928501    15.994914619570
         O           -3.614840024009    -0.542876405619    -0.935380071499    15.994914619570
         O           -0.983637024009    -1.687958405619     1.171442928501    15.994914619570
         O            1.443874975991     1.232903594381    -0.299735071499    15.994914619570
         O            1.684068975991    -1.289854405619    -0.336058071499    15.994914619570
         O            2.901602975991    -0.055709405619     1.411656928501    15.994914619570
         O            3.717954975991     0.293972594381    -1.044766071499    15.994914619570
         C           -2.139375624009     0.736493294381     0.544492928501    12.000000000000
         C           -0.952334024009     0.823063594381    -0.295912071499    12.000000000000
         C           -2.840204024009    -0.596386405619     0.243788928501    12.000000000000
         C           -1.594343024009    -1.399375405619    -0.062938071499    12.000000000000
         C            0.265118975991     1.201998594381     0.528577928501    12.000000000000
         H           -1.995076024009     0.838204594381     1.632373928501     1.007825032230
         H           -1.074356024009     1.505094594381    -1.142335071499     1.007825032230
         H           -3.398740024009    -1.013157405619     1.091346928501     1.007825032230
         H           -1.765206024009    -2.285172405619    -0.682143071499     1.007825032230
         H            0.384223975991     0.506459594381     1.363738928501     1.007825032230
         H            0.140141975991     2.214055594381     0.929942928501     1.007825032230
         H           -2.948405024009     2.614472594381     0.596240928501     1.007825032230
         H           -4.099732024009     0.303657594381    -0.905432071499     1.007825032230
         H           -0.099332024009    -2.064402405619     0.993691928501     1.007825032230
         H            0.849883975991    -1.072177405619    -0.832509071499     1.007825032230
         H            3.789639975991     0.316575594381     1.565650928501     1.007825032230

  Basis Set: AUG-CC-PVTZ
    Blend: AUG-CC-PVTZ
  Basis Set: (AUG-CC-PVTZ AUX)
    Blend: AUG-CC-PVTZ-JKFIT
	 Reference Energy          =   -1135.8091922840480947 [Eh]
	 Singles Energy            =      -0.0000000000000000 [Eh]
	 Same-Spin Energy          =      -0.8175425131421543 [Eh]
	 Opposite-Spin Energy      =      -2.4245086244222804 [Eh]
	 Correlation Energy        =      -3.2420511375644345 [Eh]
	 Total Energy              =   -1139.0512434216125257 [Eh]

	 ================> DF-SCS-MP2 Energies <==================
	-----------------------------------------------------------
	 SCS Same-Spin Scale       =       0.3333333333333333 [-]
	 SCS Opposite-Spin Scale   =       1.2000000000000000 [-]
	 SCS Same-Spin Energy      =      -0.2725141710473847 [Eh]
	 SCS Opposite-Spin Energy  =      -2.9094103493067363 [Eh]
	 SCS Correlation Energy    =      -3.1819245203541211 [Eh]
	 SCS Total Energy          =   -1138.9911168044022816 [Eh]
	-----------------------------------------------------------

  Dipole Moment: [D]
     X:    -3.2111      Y:     2.0786      Z:     4.0063     Total:     5.5392

*** Psi4 exiting successfully. Buy a developer a beer!
