                               Psi4 1.3.2 release

  ==> Input File <==

--------------------------------------------------------------------------
#psi4
#
memory 32 gb

molecule  {
0 1
  P        2.6114510     0.0433530    -0.1897960
  O       -0.7415730    -0.5166550    -0.8759300
  O       -3.1471200     1.7525200     0.1857420
  O       -3.5574290    -0.5524670    -0.9560380
  O       -0.9262260    -1.6975490     1.1507850
  O        1.5012860     1.2233130    -0.3203930
  O        1.7414800    -1.2994450    -0.3567160
  O        2.9590140    -0.0653000     1.3909990
  O        3.7753660     0.2843820    -1.0654240
  C       -2.1786680     0.7692630     0.5423480
  C       -0.8949230     0.8134730    -0.3165700
  C       -2.7827930    -0.6059770     0.2231310
  C       -1.5369320    -1.4089660    -0.0835960
  C        0.3225300     1.1924080     0.5079200
  H       -1.9376650     0.8286140     1.6117160
  H       -1.0169450     1.4955040    -1.1629930
  H       -3.2904270    -0.9847657     0.9934470
  H       -1.7077950    -2.2947630    -0.7028010
  H        0.4416350     0.4968690     1.3430810
  H        0.1975530     2.2044650     0.9092850
  H       -2.8909940     2.6048820     0.5755830
  H       -4.0423210     0.2940670    -0.9260900
  H       -0.0419210    -2.0739930     0.9730340
  H        0.9072950    -1.0817680    -0.8531670
  H        3.8470510     0.3069850     1.5449930
units angstrom
no_reorient  #important for SAPT in psi4, default
symmetry c1  #important for SAPT in psi4, default
}

set PROPERTIES_ORIGIN ["COM"]
properties('MP2/aug-cc-pvtz', properties = ['dipole'])
--------------------------------------------------------------------------

    Molecular point group: c1
  Charge       = 0
  Multiplicity = 1
  Basis Set: AUG-CC-PVTZ
    Blend: AUG-CC-PVTZ
  Basis Set: (AUG-CC-PVTZ AUX)
    Blend: AUG-CC-PVTZ-JKFIT

    Orbital Energies [Eh]
    ---------------------

    Doubly Occupied:

       1A    -80.114820     2A    -20.611102     3A    -20.606078
       4A    -20.604890     5A    -20.602849     6A    -20.598312
       7A    -20.595092     8A    -20.573243     9A    -20.514488
      10A    -11.361532    11A    -11.322670    12A    -11.321024
      13A    -11.317729    14A    -11.295432    15A     -7.629770
      16A     -5.528190    17A     -5.528108    18A     -5.526608
      19A     -1.462907    20A     -1.448088    21A     -1.411218
      22A     -1.390548    23A     -1.378051    24A     -1.373161
      25A     -1.368393    26A     -1.295824    27A     -1.084828
      28A     -1.050090    29A     -0.946711    30A     -0.858308
      31A     -0.847081    32A     -0.834107    33A     -0.772189
      34A     -0.759234    35A     -0.749586    36A     -0.736065
      37A     -0.716769    38A     -0.692826    39A     -0.688045
      40A     -0.667440    41A     -0.653555    42A     -0.648207
      43A     -0.635301    44A     -0.615381    45A     -0.600794
      46A     -0.597497    47A     -0.581854    48A     -0.577301
      49A     -0.569509    50A     -0.559836    51A     -0.543365
      52A     -0.532135    53A     -0.526784    54A     -0.511782
      55A     -0.490458    56A     -0.488083    57A     -0.475236
      58A     -0.471115    59A     -0.466867    60A     -0.451091

  @DF-RHF Final Energy: -1135.81754622863809

   => Energetics <=

    Nuclear Repulsion Energy =           1216.5971038787561156
    One-Electron Energy =               -3986.4701832765140352
    Two-Electron Energy =                1634.0555331691198262
    Total Energy =                      -1135.8175462286380935
  Basis Set: (AUG-CC-PVTZ AUX)
    Blend: AUG-CC-PVTZ-RI
    Molecular point group: c1

    Geometry (in Angstrom), charge = 0, multiplicity = 1:

       Center              X                  Y                   Z               Mass
    ------------   -----------------  -----------------  -----------------  -----------------
         P            2.558861924379     0.050567257009    -0.169765452202    30.973761998420
         O           -0.794162075621    -0.509440742991    -0.855899452202    15.994914619570
         O           -3.199709075621     1.759734257009     0.205772547798    15.994914619570
         O           -3.610018075621    -0.545252742991    -0.936007452202    15.994914619570
         O           -0.978815075621    -1.690334742991     1.170815547798    15.994914619570
         O            1.448696924379     1.230527257009    -0.300362452202    15.994914619570
         O            1.688890924379    -1.292230742991    -0.336685452202    15.994914619570
         O            2.906424924379    -0.058085742991     1.411029547798    15.994914619570
         O            3.722776924379     0.291596257009    -1.045393452202    15.994914619570
         C           -2.231257075621     0.776477257009     0.562378547798    12.000000000000
         C           -0.947512075621     0.820687257009    -0.296539452202    12.000000000000
         C           -2.835382075621    -0.598762742991     0.243161547798    12.000000000000
         C           -1.589521075621    -1.401751742991    -0.063565452202    12.000000000000
         C            0.269940924379     1.199622257009     0.527950547798    12.000000000000
         H           -1.990254075621     0.835828257009     1.631746547798     1.007825032230
         H           -1.069534075621     1.502718257009    -1.142962452202     1.007825032230
         H           -3.343016075621    -0.977551442991     1.013477547798     1.007825032230
         H           -1.760384075621    -2.287548742991    -0.682770452202     1.007825032230
         H            0.389045924379     0.504083257009     1.363111547798     1.007825032230
         H            0.144963924379     2.211679257009     0.929315547798     1.007825032230
         H           -2.943583075621     2.612096257009     0.595613547798     1.007825032230
         H           -4.094910075621     0.301281257009    -0.906059452202     1.007825032230
         H           -0.094510075621    -2.066778742991     0.993064547798     1.007825032230
         H            0.854705924379    -1.074553742991    -0.833136452202     1.007825032230
         H            3.794461924379     0.314199257009     1.565023547798     1.007825032230

  Basis Set: AUG-CC-PVTZ
    Blend: AUG-CC-PVTZ
  Basis Set: (AUG-CC-PVTZ AUX)
    Blend: AUG-CC-PVTZ-JKFIT
	 Reference Energy          =   -1135.8175462286380935 [Eh]
	 Singles Energy            =      -0.0000000000000000 [Eh]
	 Same-Spin Energy          =      -0.8160905268916446 [Eh]
	 Opposite-Spin Energy      =      -2.4210890128988867 [Eh]
	 Correlation Energy        =      -3.2371795397905312 [Eh]
	 Total Energy              =   -1139.0547257684286251 [Eh]

	 ================> DF-SCS-MP2 Energies <==================
	-----------------------------------------------------------
	 SCS Same-Spin Scale       =       0.3333333333333333 [-]
	 SCS Opposite-Spin Scale   =       1.2000000000000000 [-]
	 SCS Same-Spin Energy      =      -0.2720301756305482 [Eh]
	 SCS Opposite-Spin Energy  =      -2.9053068154786641 [Eh]
	 SCS Correlation Energy    =      -3.1773369911092124 [Eh]
	 SCS Total Energy          =   -1138.9948832197474076 [Eh]
	-----------------------------------------------------------

  Dipole Moment: [D]
     X:    -3.4926      Y:     2.2803      Z:     4.0743     Total:     5.8308

*** Psi4 exiting successfully. Buy a developer a beer!
