                               Psi4 1.3.2 release

  ==> Input File <==

--------------------------------------------------------------------------
#psi4
#
memory 32 gb

molecule  {
0 1
  P        2.6114510     0.0433530    -0.1897960
  O       -0.7415730    -0.5166550    -0.8759300
  O       -3.1471200     1.7525200     0.1857420
  O       -3.5764420    -0.6483825    -0.9437824
  O       -0.9262260    -1.6975490     1.1507850
  O        1.5012860     1.2233130    -0.3203930
  O        1.7414800    -1.2994450    -0.3567160
  O        2.9590140    -0.0653000     1.3909990
  O        3.7753660     0.2843820    -1.0654240
  C       -2.1786680     0.7692630     0.5423480
  C       -0.8949230     0.8134730    -0.3165700
  C       -2.7827930    -0.6059770     0.2231310
  C       -1.5369320    -1.4089660    -0.0835960
  C        0.3225300     1.1924080     0.5079200
  H       -1.9376650     0.8286140     1.6117160
  H       -1.0169450     1.4955040    -1.1629930
  H       -3.3413290    -1.0227480     1.0706890
  H       -1.7077950    -2.2947630    -0.7028010
  H        0.4416350     0.4968690     1.3430810
  H        0.1975530     2.2044650     0.9092850
  H       -2.8909940     2.6048820     0.5755830
  H       -4.0423210     0.2940670    -0.9260900
  H       -0.0419210    -2.0739930     0.9730340
  H        0.9072950    -1.0817680    -0.8531670
  H        3.8470510     0.3069850     1.5449930
units angstrom
no_reorient  #important for SAPT in psi4, default
symmetry c1  #important for SAPT in psi4, default
}

set PROPERTIES_ORIGIN ["COM"]
properties('MP2/aug-cc-pvtz', properties = ['dipole'])
--------------------------------------------------------------------------

    Molecular point group: c1
  Charge       = 0
  Multiplicity = 1
  Basis Set: AUG-CC-PVTZ
    Blend: AUG-CC-PVTZ
  Basis Set: (AUG-CC-PVTZ AUX)
    Blend: AUG-CC-PVTZ-JKFIT

    Orbital Energies [Eh]
    ---------------------

    Doubly Occupied:

       1A    -80.115181     2A    -20.611385     3A    -20.609056
       4A    -20.605582     5A    -20.603770     6A    -20.598550
       7A    -20.593348     8A    -20.582021     9A    -20.514818
      10A    -11.360225    11A    -11.325827    12A    -11.321981
      13A    -11.319263    14A    -11.305278    15A     -7.630132
      16A     -5.528555    17A     -5.528468    18A     -5.526969
      19A     -1.462979    20A     -1.447984    21A     -1.411335
      22A     -1.390908    23A     -1.378326    24A     -1.370713
      25A     -1.362343    26A     -1.296151    27A     -1.084879
      28A     -1.043883    29A     -0.946754    30A     -0.858475
      31A     -0.840798    32A     -0.827386    33A     -0.772256
      34A     -0.753535    35A     -0.747872    36A     -0.735196
      37A     -0.717045    38A     -0.692847    39A     -0.682187
      40A     -0.659587    41A     -0.652977    42A     -0.647834
      43A     -0.634203    44A     -0.611119    45A     -0.601877
      46A     -0.594618    47A     -0.582303    48A     -0.577345
      49A     -0.569517    50A     -0.560241    51A     -0.543442
      52A     -0.532117    53A     -0.527434    54A     -0.513639
      55A     -0.491072    56A     -0.486994    57A     -0.475211
      58A     -0.468556    59A     -0.464234    60A     -0.451229

  @DF-RHF Final Energy: -1135.81208048396638

   => Energetics <=

    Nuclear Repulsion Energy =           1214.6567847327976324
    One-Electron Energy =               -3982.6381036331831638
    Two-Electron Energy =                1632.1692384164189207
    Total Energy =                      -1135.8120804839663833
  Basis Set: (AUG-CC-PVTZ AUX)
    Blend: AUG-CC-PVTZ-RI
    Molecular point group: c1

    Geometry (in Angstrom), charge = 0, multiplicity = 1:

       Center              X                  Y                   Z               Mass
    ------------   -----------------  -----------------  -----------------  -----------------
         P            2.560407063619     0.057403382246    -0.170956108248    30.973761998420
         O           -0.792616936381    -0.502604617754    -0.857090108248    15.994914619570
         O           -3.198163936381     1.766570382246     0.204581891752    15.994914619570
         O           -3.627485936381    -0.634332117754    -0.924942508248    15.994914619570
         O           -0.977269936381    -1.683498617754     1.169624891752    15.994914619570
         O            1.450242063619     1.237363382246    -0.301553108248    15.994914619570
         O            1.690436063619    -1.285394617754    -0.337876108248    15.994914619570
         O            2.907970063619    -0.051249617754     1.409838891752    15.994914619570
         O            3.724322063619     0.298432382246    -1.046584108248    15.994914619570
         C           -2.229711936381     0.783313382246     0.561187891752    12.000000000000
         C           -0.945966936381     0.827523382246    -0.297730108248    12.000000000000
         C           -2.833836936381    -0.591926617754     0.241970891752    12.000000000000
         C           -1.587975936381    -1.394915617754    -0.064756108248    12.000000000000
         C            0.271486063619     1.206458382246     0.526759891752    12.000000000000
         H           -1.988708936381     0.842664382246     1.630555891752     1.007825032230
         H           -1.067988936381     1.509554382246    -1.144153108248     1.007825032230
         H           -3.392372936381    -1.008697617754     1.089528891752     1.007825032230
         H           -1.758838936381    -2.280712617754    -0.683961108248     1.007825032230
         H            0.390591063619     0.510919382246     1.361920891752     1.007825032230
         H            0.146509063619     2.218515382246     0.928124891752     1.007825032230
         H           -2.942037936381     2.618932382246     0.594422891752     1.007825032230
         H           -4.093364936381     0.308117382246    -0.907250108248     1.007825032230
         H           -0.092964936381    -2.059942617754     0.991873891752     1.007825032230
         H            0.856251063619    -1.067717617754    -0.834327108248     1.007825032230
         H            3.796007063619     0.321035382246     1.563832891752     1.007825032230

  Basis Set: AUG-CC-PVTZ
    Blend: AUG-CC-PVTZ
  Basis Set: (AUG-CC-PVTZ AUX)
    Blend: AUG-CC-PVTZ-JKFIT
	 Reference Energy          =   -1135.8120804839663833 [Eh]
	 Singles Energy            =      -0.0000000000000000 [Eh]
	 Same-Spin Energy          =      -0.8173610950401551 [Eh]
	 Opposite-Spin Energy      =      -2.4246517314171792 [Eh]
	 Correlation Energy        =      -3.2420128264573345 [Eh]
	 Total Energy              =   -1139.0540933104236956 [Eh]

	 ================> DF-SCS-MP2 Energies <==================
	-----------------------------------------------------------
	 SCS Same-Spin Scale       =       0.3333333333333333 [-]
	 SCS Opposite-Spin Scale   =       1.2000000000000000 [-]
	 SCS Same-Spin Energy      =      -0.2724536983467183 [Eh]
	 SCS Opposite-Spin Energy  =      -2.9095820777006147 [Eh]
	 SCS Correlation Energy    =      -3.1820357760473330 [Eh]
	 SCS Total Energy          =   -1138.9941162600136977 [Eh]
	-----------------------------------------------------------

  Dipole Moment: [D]
     X:    -3.4164      Y:     2.4888      Z:     3.9985     Total:     5.8184

*** Psi4 exiting successfully. Buy a developer a beer!
