                               Psi4 1.3.2 release

  ==> Input File <==

--------------------------------------------------------------------------
#psi4
#
memory 32 gb

molecule  {
0 1
  P        2.6114510     0.0433530    -0.1897960
  O       -0.7415730    -0.5166550    -0.8759300
  O       -3.1471200     1.7525200     0.1857420
  O       -3.5574290    -0.5524670    -0.9560380
  O       -0.9262260    -1.6975490     1.1507850
  O        1.5012860     1.2233130    -0.3203930
  O        1.7414800    -1.2994450    -0.3567160
  O        2.9590140    -0.0653000     1.3909990
  O        3.7753660     0.2843820    -1.0654240
  C       -2.2466089     0.8382425     0.5173306
  C       -0.8949230     0.8134730    -0.3165700
  C       -2.7827930    -0.6059770     0.2231310
  C       -1.5369320    -1.4089660    -0.0835960
  C        0.3225300     1.1924080     0.5079200
  H       -1.9376650     0.8286140     1.6117160
  H       -1.0169450     1.4955040    -1.1629930
  H       -3.3413290    -1.0227480     1.0706890
  H       -1.7077950    -2.2947630    -0.7028010
  H        0.4416350     0.4968690     1.3430810
  H        0.1975530     2.2044650     0.9092850
  H       -2.8909940     2.6048820     0.5755830
  H       -4.0423210     0.2940670    -0.9260900
  H       -0.0419210    -2.0739930     0.9730340
  H        0.9072950    -1.0817680    -0.8531670
  H        3.8470510     0.3069850     1.5449930
units angstrom
no_reorient  #important for SAPT in psi4, default
symmetry c1  #important for SAPT in psi4, default
}

set PROPERTIES_ORIGIN ["COM"]
properties('MP2/aug-cc-pvtz', properties = ['dipole'])
--------------------------------------------------------------------------

    Molecular point group: c1
  Charge       = 0
  Multiplicity = 1
  Basis Set: AUG-CC-PVTZ
    Blend: AUG-CC-PVTZ
  Basis Set: (AUG-CC-PVTZ AUX)
    Blend: AUG-CC-PVTZ-JKFIT

    Orbital Energies [Eh]
    ---------------------

    Doubly Occupied:

       1A    -80.113585     2A    -20.617513     3A    -20.609944
       4A    -20.603261     5A    -20.601883     6A    -20.597078
       7A    -20.592717     8A    -20.573145     9A    -20.513438
      10A    -11.361023    11A    -11.325610    12A    -11.318993
      13A    -11.314930    14A    -11.305677    15A     -7.628535
      16A     -5.526953    17A     -5.526874    18A     -5.525377
      19A     -1.464519    20A     -1.453738    21A     -1.440839
      22A     -1.389042    23A     -1.377561    24A     -1.376072
      25A     -1.366551    26A     -1.294770    27A     -1.072073
      28A     -1.040183    29A     -0.944972    30A     -0.860205
      31A     -0.841745    32A     -0.826427    33A     -0.777626
      34A     -0.761330    35A     -0.750297    36A     -0.733139
      37A     -0.716271    38A     -0.693609    39A     -0.690521
      40A     -0.668040    41A     -0.652153    42A     -0.647160
      43A     -0.639515    44A     -0.615847    45A     -0.606850
      46A     -0.597898    47A     -0.584634    48A     -0.580157
      49A     -0.570692    50A     -0.558507    51A     -0.541817
      52A     -0.529724    53A     -0.525344    54A     -0.504695
      55A     -0.485629    56A     -0.476786    57A     -0.472594
      58A     -0.467634    59A     -0.462230    60A     -0.440122

  @DF-RHF Final Energy: -1135.81378131213069

   => Energetics <=

    Nuclear Repulsion Energy =           1215.1718130074691544
    One-Electron Energy =               -3983.6590818855729594
    Two-Electron Energy =                1632.6734875659731188
    Total Energy =                      -1135.8137813121306863
  Basis Set: (AUG-CC-PVTZ AUX)
    Blend: AUG-CC-PVTZ-RI
    Molecular point group: c1

    Geometry (in Angstrom), charge = 0, multiplicity = 1:

       Center              X                  Y                   Z               Mass
    ------------   -----------------  -----------------  -----------------  -----------------
         P            2.562629398059     0.047135045071    -0.168798739758    30.973761998420
         O           -0.790394601941    -0.512872954929    -0.854932739758    15.994914619570
         O           -3.195941601941     1.756302045071     0.206739260242    15.994914619570
         O           -3.606250601941    -0.548684954929    -0.935040739758    15.994914619570
         O           -0.975047601941    -1.693766954929     1.171782260242    15.994914619570
         O            1.452464398059     1.227095045071    -0.299395739758    15.994914619570
         O            1.692658398059    -1.295662954929    -0.335718739758    15.994914619570
         O            2.910192398059    -0.061517954929     1.411996260242    15.994914619570
         O            3.726544398059     0.288164045071    -1.044426739758    15.994914619570
         C           -2.295430501941     0.842024545071     0.538327860242    12.000000000000
         C           -0.943744601941     0.817255045071    -0.295572739758    12.000000000000
         C           -2.831614601941    -0.602194954929     0.244128260242    12.000000000000
         C           -1.585753601941    -1.405183954929    -0.062598739758    12.000000000000
         C            0.273708398059     1.196190045071     0.528917260242    12.000000000000
         H           -1.986486601941     0.832396045071     1.632713260242     1.007825032230
         H           -1.065766601941     1.499286045071    -1.141995739758     1.007825032230
         H           -3.390150601941    -1.018965954929     1.091686260242     1.007825032230
         H           -1.756616601941    -2.290980954929    -0.681803739758     1.007825032230
         H            0.392813398059     0.500651045071     1.364078260242     1.007825032230
         H            0.148731398059     2.208247045071     0.930282260242     1.007825032230
         H           -2.939815601941     2.608664045071     0.596580260242     1.007825032230
         H           -4.091142601941     0.297849045071    -0.905092739758     1.007825032230
         H           -0.090742601941    -2.070210954929     0.994031260242     1.007825032230
         H            0.858473398059    -1.077985954929    -0.832169739758     1.007825032230
         H            3.798229398059     0.310767045071     1.565990260242     1.007825032230

  Basis Set: AUG-CC-PVTZ
    Blend: AUG-CC-PVTZ
  Basis Set: (AUG-CC-PVTZ AUX)
    Blend: AUG-CC-PVTZ-JKFIT
	 Reference Energy          =   -1135.8137813121306863 [Eh]
	 Singles Energy            =      -0.0000000000000000 [Eh]
	 Same-Spin Energy          =      -0.8162424849903686 [Eh]
	 Opposite-Spin Energy      =      -2.4209249869618676 [Eh]
	 Correlation Energy        =      -3.2371674719522363 [Eh]
	 Total Energy              =   -1139.0509487840829479 [Eh]

	 ================> DF-SCS-MP2 Energies <==================
	-----------------------------------------------------------
	 SCS Same-Spin Scale       =       0.3333333333333333 [-]
	 SCS Opposite-Spin Scale   =       1.2000000000000000 [-]
	 SCS Same-Spin Energy      =      -0.2720808283301228 [Eh]
	 SCS Opposite-Spin Energy  =      -2.9051099843542412 [Eh]
	 SCS Correlation Energy    =      -3.1771908126843638 [Eh]
	 SCS Total Energy          =   -1138.9909721248150163 [Eh]
	-----------------------------------------------------------

  Dipole Moment: [D]
     X:    -3.7914      Y:     2.5716      Z:     3.9921     Total:     6.0765

*** Psi4 exiting successfully. Buy a developer a beer!
