                               Psi4 1.4a3.dev225

  ==> Input File <==

--------------------------------------------------------------------------
#psi4
#
memory 32 gb

molecule  {
0 1
  P        2.6113660     0.0433910    -0.1897900
  O       -0.7416560    -0.5164190    -0.8762010
  O       -3.1473860     1.7523070     0.1855430
  O       -3.5574330    -0.5529450    -0.9556820
  O       -0.9255690    -1.6972900     1.1506350
  O        1.5012550     1.2233910    -0.3202530
  O        1.7411940    -1.2993510    -0.3564950
  O        2.9591660    -0.0655390     1.3909200
  O        3.7751240     0.2843830    -1.0656400
  C       -2.1787050     0.7693270     0.5422590
  C       -0.8949630     0.8136090    -0.3166340
  C       -2.7747213    -0.5882185     0.2274777
  C       -1.5366410    -1.4089160    -0.0835620
  C        0.3224410     1.1924200     0.5080110
  H       -1.9377070     0.8289040     1.6116220
  H       -1.0168440     1.4957790    -1.1629650
  H       -3.3408870    -1.0228010     1.0710960
  H       -1.7074320    -2.2947510    -0.7027390
  H        0.4414920     0.4968360     1.3431340
  H        0.1974400     2.2044510     0.9094280
  H       -2.8916000     2.6047160     0.5754970
  H       -4.0429610     0.2932130    -0.9254450
  H       -0.0410590    -2.0731950     0.9726900
  H        0.9073710    -1.0816890    -0.8535130
  H        3.8468470     0.3075270     1.5450430
units angstrom
no_reorient  #important for SAPT in psi4, default
symmetry c1  #important for SAPT in psi4, default
}

set PROPERTIES_ORIGIN ["COM"]
properties('MP2/aug-cc-pvtz', properties = ['dipole'])
--------------------------------------------------------------------------

    Molecular point group: c1
  Charge       = 0
  Multiplicity = 1
  Basis Set: AUG-CC-PVTZ
    Blend: AUG-CC-PVTZ
  Basis Set: (AUG-CC-PVTZ AUX)
    Blend: AUG-CC-PVTZ-JKFIT

    Orbital Energies [Eh]
    ---------------------

    Doubly Occupied:

       1A    -80.115081     2A    -20.611320     3A    -20.606602
       4A    -20.605275     5A    -20.603404     6A    -20.598581
       7A    -20.594751     8A    -20.574414     9A    -20.514717
      10A    -11.362460    11A    -11.323186    12A    -11.321510
      13A    -11.318518    14A    -11.307005    15A     -7.630031
      16A     -5.528451    17A     -5.528369    18A     -5.526868
      19A     -1.463341    20A     -1.448412    21A     -1.411807
      22A     -1.390809    23A     -1.378308    24A     -1.372575
      25A     -1.367634    26A     -1.296052    27A     -1.086360
      28A     -1.047701    29A     -0.947017    30A     -0.858817
      31A     -0.841408    32A     -0.828914    33A     -0.772388
      34A     -0.758647    35A     -0.748110    36A     -0.734879
      37A     -0.716968    38A     -0.692891    39A     -0.683654
      40A     -0.666385    41A     -0.653172    42A     -0.647736
      43A     -0.632138    44A     -0.613784    45A     -0.601252
      46A     -0.595276    47A     -0.581948    48A     -0.577331
      49A     -0.570186    50A     -0.559572    51A     -0.543442
      52A     -0.532367    53A     -0.526875    54A     -0.513334
      55A     -0.492149    56A     -0.488078    57A     -0.475220
      58A     -0.468938    59A     -0.465406    60A     -0.451538

  @DF-RHF Final Energy: -1135.82199953414283

   => Energetics <=

    Nuclear Repulsion Energy =           1216.2043579865821812
    One-Electron Energy =               -3985.7059911527790064
    Two-Electron Energy =                1633.6796336320539922
    Total Energy =                      -1135.8219995341428330
  Basis Set: (AUG-CC-PVTZ AUX)
    Blend: AUG-CC-PVTZ-RI
    Molecular point group: c1

    Geometry (in Angstrom), charge = 0, multiplicity = 1:

       Center              X                  Y                   Z               Mass
    ------------   -----------------  -----------------  -----------------  -----------------
         P            2.558590519922     0.049840817726    -0.170312500597    30.973761998420
         O           -0.794431480078    -0.509969182274    -0.856723500597    15.994914619570
         O           -3.200161480078     1.758756817726     0.205020499403    15.994914619570
         O           -3.610208480078    -0.546495182274    -0.936204500597    15.994914619570
         O           -0.978344480078    -1.690840182274     1.170112499403    15.994914619570
         O            1.448479519922     1.229840817726    -0.300775500597    15.994914619570
         O            1.688418519922    -1.292901182274    -0.337017500597    15.994914619570
         O            2.906390519922    -0.059089182274     1.410397499403    15.994914619570
         O            3.722348519922     0.290832817726    -1.046162500597    15.994914619570
         C           -2.231480480078     0.775776817726     0.561736499403    12.000000000000
         C           -0.947738480078     0.820058817726    -0.297156500597    12.000000000000
         C           -2.827496780078    -0.581768682274     0.246955199403    12.000000000000
         C           -1.589416480078    -1.402466182274    -0.064084500597    12.000000000000
         C            0.269665519922     1.198869817726     0.527488499403    12.000000000000
         H           -1.990482480078     0.835353817726     1.631099499403     1.007825032230
         H           -1.069619480078     1.502228817726    -1.143487500597     1.007825032230
         H           -3.393662480078    -1.016351182274     1.090573499403     1.007825032230
         H           -1.760207480078    -2.288301182274    -0.683261500597     1.007825032230
         H            0.388716519922     0.503285817726     1.362611499403     1.007825032230
         H            0.144664519922     2.210900817726     0.928905499403     1.007825032230
         H           -2.944375480078     2.611165817726     0.594974499403     1.007825032230
         H           -4.095736480078     0.299662817726    -0.905967500597     1.007825032230
         H           -0.093834480078    -2.066745182274     0.992167499403     1.007825032230
         H            0.854595519922    -1.075239182274    -0.834035500597     1.007825032230
         H            3.794071519922     0.313976817726     1.564520499403     1.007825032230

  Basis Set: AUG-CC-PVTZ
    Blend: AUG-CC-PVTZ
  Basis Set: (AUG-CC-PVTZ AUX)
    Blend: AUG-CC-PVTZ-JKFIT
	 Reference Energy          =   -1135.8219995341428330 [Eh]
	 Singles Energy            =      -0.0000000000000000 [Eh]
	 Same-Spin Energy          =      -0.8163731775919767 [Eh]
	 Opposite-Spin Energy      =      -2.4220694028103287 [Eh]
	 Correlation Energy        =      -3.2384425804023054 [Eh]
	 Total Energy              =   -1139.0604421145451397 [Eh]

	 ================> DF-SCS-MP2 Energies <==================
	-----------------------------------------------------------
	 SCS Same-Spin Scale       =       0.3333333333333333 [-]
	 SCS Opposite-Spin Scale   =       1.2000000000000000 [-]
	 SCS Same-Spin Energy      =      -0.2721243925306589 [Eh]
	 SCS Opposite-Spin Energy  =      -2.9064832833723941 [Eh]
	 SCS Correlation Energy    =      -3.1786076759030530 [Eh]
	 SCS Total Energy          =   -1139.0006072100459278 [Eh]
	-----------------------------------------------------------

  Dipole Moment: [D]
     X:    -3.4503      Y:     2.3133      Z:     4.0407     Total:     5.7951

*** Psi4 exiting successfully. Buy a developer a beer!
