                               Psi4 1.3.2 release

  ==> Input File <==

--------------------------------------------------------------------------
#psi4
#
memory 32 gb

molecule  {
0 1
  P        2.6990662     0.1246505    -0.3108691
  O       -0.7415730    -0.5166550    -0.8759300
  O       -3.1471200     1.7525200     0.1857420
  O       -3.5574290    -0.5524670    -0.9560380
  O       -0.9262260    -1.6975490     1.1507850
  O        1.5012860     1.2233130    -0.3203930
  O        1.7414800    -1.2994450    -0.3567160
  O        2.9590140    -0.0653000     1.3909990
  O        3.7753660     0.2843820    -1.0654240
  C       -2.1786680     0.7692630     0.5423480
  C       -0.8949230     0.8134730    -0.3165700
  C       -2.7827930    -0.6059770     0.2231310
  C       -1.5369320    -1.4089660    -0.0835960
  C        0.3225300     1.1924080     0.5079200
  H       -1.9376650     0.8286140     1.6117160
  H       -1.0169450     1.4955040    -1.1629930
  H       -3.3413290    -1.0227480     1.0706890
  H       -1.7077950    -2.2947630    -0.7028010
  H        0.4416350     0.4968690     1.3430810
  H        0.1975530     2.2044650     0.9092850
  H       -2.8909940     2.6048820     0.5755830
  H       -4.0423210     0.2940670    -0.9260900
  H       -0.0419210    -2.0739930     0.9730340
  H        0.9072950    -1.0817680    -0.8531670
  H        3.8470510     0.3069850     1.5449930
units angstrom
no_reorient  #important for SAPT in psi4, default
symmetry c1  #important for SAPT in psi4, default
}

set PROPERTIES_ORIGIN ["COM"]
properties('MP2/aug-cc-pvtz', properties = ['dipole'])
--------------------------------------------------------------------------

    Molecular point group: c1
  Charge       = 0
  Multiplicity = 1
  Basis Set: AUG-CC-PVTZ
    Blend: AUG-CC-PVTZ
  Basis Set: (AUG-CC-PVTZ AUX)
    Blend: AUG-CC-PVTZ-JKFIT

    Orbital Energies [Eh]
    ---------------------

    Doubly Occupied:

       1A    -80.105818     2A    -20.603394     3A    -20.603293
       4A    -20.596143     5A    -20.589475     6A    -20.586897
       7A    -20.575115     8A    -20.571343     9A    -20.546383
      10A    -11.356164    11A    -11.319707    12A    -11.319573
      13A    -11.314335    14A    -11.302958    15A     -7.627977
      16A     -5.527018    17A     -5.524836    18A     -5.524709
      19A     -1.456412    20A     -1.445738    21A     -1.407874
      22A     -1.390327    23A     -1.369374    24A     -1.362505
      25A     -1.352212    26A     -1.332984    27A     -1.080541
      28A     -1.042899    29A     -0.944579    30A     -0.848163
      31A     -0.832040    32A     -0.807039    33A     -0.762071
      34A     -0.753078    35A     -0.739458    36A     -0.723728
      37A     -0.689631    38A     -0.686489    39A     -0.676193
      40A     -0.662449    41A     -0.652446    42A     -0.637449
      43A     -0.627087    44A     -0.615185    45A     -0.603757
      46A     -0.593644    47A     -0.583010    48A     -0.570240
      49A     -0.561705    50A     -0.555001    51A     -0.542622
      52A     -0.521637    53A     -0.520612    54A     -0.514666
      55A     -0.507659    56A     -0.501431    57A     -0.483328
      58A     -0.482361    59A     -0.463505    60A     -0.448990

  @DF-RHF Final Energy: -1135.77073262311751

   => Energetics <=

    Nuclear Repulsion Energy =           1212.7534638246363556
    One-Electron Energy =               -3979.1538775560061367
    Two-Electron Energy =                1630.6296811082520435
    Total Energy =                      -1135.7707326231175102
  Basis Set: (AUG-CC-PVTZ AUX)
    Blend: AUG-CC-PVTZ-RI
    Molecular point group: c1

    Geometry (in Angstrom), charge = 0, multiplicity = 1:

       Center              X                  Y                   Z               Mass
    ------------   -----------------  -----------------  -----------------  -----------------
         P            2.634902122938     0.121083872648    -0.274873608006    30.973761998420
         O           -0.805737077062    -0.520221627352    -0.839934508006    15.994914619570
         O           -3.211284077062     1.748953372648     0.221737491994    15.994914619570
         O           -3.621593077062    -0.556033627352    -0.920042508006    15.994914619570
         O           -0.990390077062    -1.701115627352     1.186780491994    15.994914619570
         O            1.437121922938     1.219746372648    -0.284397508006    15.994914619570
         O            1.677315922938    -1.303011627352    -0.320720508006    15.994914619570
         O            2.894849922938    -0.068866627352     1.426994491994    15.994914619570
         O            3.711201922938     0.280815372648    -1.029428508006    15.994914619570
         C           -2.242832077062     0.765696372648     0.578343491994    12.000000000000
         C           -0.959087077062     0.809906372648    -0.280574508006    12.000000000000
         C           -2.846957077062    -0.609543627352     0.259126491994    12.000000000000
         C           -1.601096077062    -1.412532627352    -0.047600508006    12.000000000000
         C            0.258365922938     1.188841372648     0.543915491994    12.000000000000
         H           -2.001829077062     0.825047372648     1.647711491994     1.007825032230
         H           -1.081109077062     1.491937372648    -1.126997508006     1.007825032230
         H           -3.405493077062    -1.026314627352     1.106684491994     1.007825032230
         H           -1.771959077062    -2.298329627352    -0.666805508006     1.007825032230
         H            0.377470922938     0.493302372648     1.379076491994     1.007825032230
         H            0.133388922938     2.200898372648     0.945280491994     1.007825032230
         H           -2.955158077062     2.601315372648     0.611578491994     1.007825032230
         H           -4.106485077062     0.290500372648    -0.890094508006     1.007825032230
         H           -0.106085077062    -2.077559627352     1.009029491994     1.007825032230
         H            0.843130922938    -1.085334627352    -0.817171508006     1.007825032230
         H            3.782886922938     0.303418372648     1.580988491994     1.007825032230

  Basis Set: AUG-CC-PVTZ
    Blend: AUG-CC-PVTZ
  Basis Set: (AUG-CC-PVTZ AUX)
    Blend: AUG-CC-PVTZ-JKFIT
	 Reference Energy          =   -1135.7707326231175102 [Eh]
	 Singles Energy            =      -0.0000000000000000 [Eh]
	 Same-Spin Energy          =      -0.8147432650540793 [Eh]
	 Opposite-Spin Energy      =      -2.4207599137395759 [Eh]
	 Correlation Energy        =      -3.2355031787936550 [Eh]
	 Total Energy              =   -1139.0062358019110889 [Eh]

	 ================> DF-SCS-MP2 Energies <==================
	-----------------------------------------------------------
	 SCS Same-Spin Scale       =       0.3333333333333333 [-]
	 SCS Opposite-Spin Scale   =       1.2000000000000000 [-]
	 SCS Same-Spin Energy      =      -0.2715810883513597 [Eh]
	 SCS Opposite-Spin Energy  =      -2.9049118964874912 [Eh]
	 SCS Correlation Energy    =      -3.1764929848388510 [Eh]
	 SCS Total Energy          =   -1138.9472256079563977 [Eh]
	-----------------------------------------------------------

  Dipole Moment: [D]
     X:    -2.4667      Y:     3.0405      Z:     2.8793     Total:     4.8600

*** Psi4 exiting successfully. Buy a developer a beer!
