                               Psi4 1.3.2 release

  ==> Input File <==

--------------------------------------------------------------------------
#psi4
#
memory 32 gb

molecule  {
0 1
  P        2.6114510     0.0433530    -0.1897960
  O       -0.7415730    -0.5166550    -0.8759300
  O       -3.1471200     1.7525200     0.1857420
  O       -3.5346421    -0.4568122    -0.9625488
  O       -0.9262260    -1.6975490     1.1507850
  O        1.5012860     1.2233130    -0.3203930
  O        1.7414800    -1.2994450    -0.3567160
  O        2.9590140    -0.0653000     1.3909990
  O        3.7753660     0.2843820    -1.0654240
  C       -2.1786680     0.7692630     0.5423480
  C       -0.8949230     0.8134730    -0.3165700
  C       -2.7827930    -0.6059770     0.2231310
  C       -1.5369320    -1.4089660    -0.0835960
  C        0.3225300     1.1924080     0.5079200
  H       -1.9376650     0.8286140     1.6117160
  H       -1.0169450     1.4955040    -1.1629930
  H       -3.3413290    -1.0227480     1.0706890
  H       -1.7077950    -2.2947630    -0.7028010
  H        0.4416350     0.4968690     1.3430810
  H        0.1975530     2.2044650     0.9092850
  H       -2.8909940     2.6048820     0.5755830
  H       -4.0423210     0.2940670    -0.9260900
  H       -0.0419210    -2.0739930     0.9730340
  H        0.9072950    -1.0817680    -0.8531670
  H        3.8470510     0.3069850     1.5449930
units angstrom
no_reorient  #important for SAPT in psi4, default
symmetry c1  #important for SAPT in psi4, default
}

set PROPERTIES_ORIGIN ["COM"]
properties('MP2/aug-cc-pvtz', properties = ['dipole'])
--------------------------------------------------------------------------

    Molecular point group: c1
  Charge       = 0
  Multiplicity = 1
  Basis Set: AUG-CC-PVTZ
    Blend: AUG-CC-PVTZ
  Basis Set: (AUG-CC-PVTZ AUX)
    Blend: AUG-CC-PVTZ-JKFIT

    Orbital Energies [Eh]
    ---------------------

    Doubly Occupied:

       1A    -80.114714     2A    -20.610997     3A    -20.604586
       4A    -20.603239     5A    -20.603191     6A    -20.598377
       7A    -20.596290     8A    -20.566837     9A    -20.514386
      10A    -11.364275    11A    -11.320760    12A    -11.320504
      13A    -11.317094    14A    -11.309631    15A     -7.629664
      16A     -5.528083    17A     -5.528004    18A     -5.526503
      19A     -1.463543    20A     -1.448723    21A     -1.413971
      22A     -1.390469    23A     -1.380044    24A     -1.377991
      25A     -1.370508    26A     -1.295724    27A     -1.083887
      28A     -1.050543    29A     -0.946491    30A     -0.857232
      31A     -0.844168    32A     -0.831226    33A     -0.774271
      34A     -0.763893    35A     -0.747454    36A     -0.733218
      37A     -0.716538    38A     -0.692999    39A     -0.688373
      40A     -0.672479    41A     -0.652885    42A     -0.647366
      43A     -0.631618    44A     -0.616367    45A     -0.600013
      46A     -0.597367    47A     -0.581894    48A     -0.576753
      49A     -0.568616    50A     -0.559915    51A     -0.543337
      52A     -0.532142    53A     -0.526469    54A     -0.510320
      55A     -0.489646    56A     -0.488282    57A     -0.475096
      58A     -0.470378    59A     -0.466139    60A     -0.449272

  @DF-RHF Final Energy: -1135.82074512023746

   => Energetics <=

    Nuclear Repulsion Energy =           1217.3378204133241525
    One-Electron Energy =               -3987.9476186161837177
    Two-Electron Energy =                1634.7890530826221038
    Total Energy =                      -1135.8207451202374614
  Basis Set: (AUG-CC-PVTZ AUX)
    Blend: AUG-CC-PVTZ-RI
    Molecular point group: c1

    Geometry (in Angstrom), charge = 0, multiplicity = 1:

       Center              X                  Y                   Z               Mass
    ------------   -----------------  -----------------  -----------------  -----------------
         P            2.557500410764     0.044082097759    -0.169651143161    30.973761998420
         O           -0.795523589236    -0.515925902241    -0.855785143161    15.994914619570
         O           -3.201070589236     1.753249097759     0.205886856839    15.994914619570
         O           -3.588592689236    -0.456083102241    -0.942403943161    15.994914619570
         O           -0.980176589236    -1.696819902241     1.170929856839    15.994914619570
         O            1.447335410764     1.224042097759    -0.300248143161    15.994914619570
         O            1.687529410764    -1.298715902241    -0.336571143161    15.994914619570
         O            2.905063410764    -0.064570902241     1.411143856839    15.994914619570
         O            3.721415410764     0.285111097759    -1.045279143161    15.994914619570
         C           -2.232618589236     0.769992097759     0.562492856839    12.000000000000
         C           -0.948873589236     0.814202097759    -0.296425143161    12.000000000000
         C           -2.836743589236    -0.605247902241     0.243275856839    12.000000000000
         C           -1.590882589236    -1.408236902241    -0.063451143161    12.000000000000
         C            0.268579410764     1.193137097759     0.528064856839    12.000000000000
         H           -1.991615589236     0.829343097759     1.631860856839     1.007825032230
         H           -1.070895589236     1.496233097759    -1.142848143161     1.007825032230
         H           -3.395279589236    -1.022018902241     1.090833856839     1.007825032230
         H           -1.761745589236    -2.294033902241    -0.682656143161     1.007825032230
         H            0.387684410764     0.497598097759     1.363225856839     1.007825032230
         H            0.143602410764     2.205194097759     0.929429856839     1.007825032230
         H           -2.944944589236     2.605611097759     0.595727856839     1.007825032230
         H           -4.096271589236     0.294796097759    -0.905945143161     1.007825032230
         H           -0.095871589236    -2.073263902241     0.993178856839     1.007825032230
         H            0.853344410764    -1.081038902241    -0.833022143161     1.007825032230
         H            3.793100410764     0.307714097759     1.565137856839     1.007825032230

  Basis Set: AUG-CC-PVTZ
    Blend: AUG-CC-PVTZ
  Basis Set: (AUG-CC-PVTZ AUX)
    Blend: AUG-CC-PVTZ-JKFIT
	 Reference Energy          =   -1135.8207451202374614 [Eh]
	 Singles Energy            =      -0.0000000000000000 [Eh]
	 Same-Spin Energy          =      -0.8154222006613223 [Eh]
	 Opposite-Spin Energy      =      -2.4196576512737469 [Eh]
	 Correlation Energy        =      -3.2350798519350690 [Eh]
	 Total Energy              =   -1139.0558249721725588 [Eh]

	 ================> DF-SCS-MP2 Energies <==================
	-----------------------------------------------------------
	 SCS Same-Spin Scale       =       0.3333333333333333 [-]
	 SCS Opposite-Spin Scale   =       1.2000000000000000 [-]
	 SCS Same-Spin Energy      =      -0.2718074002204408 [Eh]
	 SCS Opposite-Spin Energy  =      -2.9035891815284960 [Eh]
	 SCS Correlation Energy    =      -3.1753965817489367 [Eh]
	 SCS Total Energy          =   -1138.9961417019862893 [Eh]
	-----------------------------------------------------------

  Dipole Moment: [D]
     X:    -3.5597      Y:     2.0909      Z:     4.0619     Total:     5.7916

*** Psi4 exiting successfully. Buy a developer a beer!
