                               Psi4 1.3.2 release

  ==> Input File <==

--------------------------------------------------------------------------
#psi4
#
memory 32 gb

molecule  {
0 1
  P        2.6114510     0.0433530    -0.1897960
  O       -0.7415730    -0.5166550    -0.8759300
  O       -3.1471200     1.7525200     0.1857420
  O       -3.5574290    -0.5524670    -0.9560380
  O       -0.9262260    -1.6975490     1.1507850
  O        1.5012860     1.2233130    -0.3203930
  O        1.7414800    -1.2994450    -0.3567160
  O        2.9590140    -0.0653000     1.3909990
  O        3.7753660     0.2843820    -1.0654240
  C       -2.1786680     0.7692630     0.5423480
  C       -0.8949230     0.8134730    -0.3165700
  C       -2.8221336    -0.6955326     0.2023436
  C       -1.5369320    -1.4089660    -0.0835960
  C        0.3225300     1.1924080     0.5079200
  H       -1.9376650     0.8286140     1.6117160
  H       -1.0169450     1.4955040    -1.1629930
  H       -3.3413290    -1.0227480     1.0706890
  H       -1.7077950    -2.2947630    -0.7028010
  H        0.4416350     0.4968690     1.3430810
  H        0.1975530     2.2044650     0.9092850
  H       -2.8909940     2.6048820     0.5755830
  H       -4.0423210     0.2940670    -0.9260900
  H       -0.0419210    -2.0739930     0.9730340
  H        0.9072950    -1.0817680    -0.8531670
  H        3.8470510     0.3069850     1.5449930
units angstrom
no_reorient  #important for SAPT in psi4, default
symmetry c1  #important for SAPT in psi4, default
}

set PROPERTIES_ORIGIN ["COM"]
properties('MP2/aug-cc-pvtz', properties = ['dipole'])
--------------------------------------------------------------------------

    Molecular point group: c1
  Charge       = 0
  Multiplicity = 1
  Basis Set: AUG-CC-PVTZ
    Blend: AUG-CC-PVTZ
  Basis Set: (AUG-CC-PVTZ AUX)
    Blend: AUG-CC-PVTZ-JKFIT

    Orbital Energies [Eh]
    ---------------------

    Doubly Occupied:

       1A    -80.114392     2A    -20.610690     3A    -20.604338
       4A    -20.604220     5A    -20.603834     6A    -20.598011
       7A    -20.595119     8A    -20.577328     9A    -20.514120
      10A    -11.361819    11A    -11.322487    12A    -11.320016
      13A    -11.316599    14A    -11.309870    15A     -7.629344
      16A     -5.527762    17A     -5.527683    18A     -5.526183
      19A     -1.462348    20A     -1.447667    21A     -1.410540
      22A     -1.390135    23A     -1.381743    24A     -1.377596
      25A     -1.369630    26A     -1.295458    27A     -1.076220
      28A     -1.043439    29A     -0.944760    30A     -0.853754
      31A     -0.845326    32A     -0.829624    33A     -0.771034
      34A     -0.763268    35A     -0.745297    36A     -0.730907
      37A     -0.715917    38A     -0.693098    39A     -0.688696
      40A     -0.671877    41A     -0.653364    42A     -0.647680
      43A     -0.635785    44A     -0.613672    45A     -0.599837
      46A     -0.599291    47A     -0.582370    48A     -0.578021
      49A     -0.568198    50A     -0.561974    51A     -0.543105
      52A     -0.531725    53A     -0.527547    54A     -0.508547
      55A     -0.487400    56A     -0.481583    57A     -0.475334
      58A     -0.469877    59A     -0.464468    60A     -0.439650

  @DF-RHF Final Energy: -1135.81521991262662

   => Energetics <=

    Nuclear Repulsion Energy =           1214.5862694198856389
    One-Electron Energy =               -3982.5198192963107431
    Two-Electron Energy =                1632.1183299637982600
    Total Energy =                      -1135.8152199126266169
  Basis Set: (AUG-CC-PVTZ AUX)
    Blend: AUG-CC-PVTZ-RI
    Molecular point group: c1

    Geometry (in Angstrom), charge = 0, multiplicity = 1:

       Center              X                  Y                   Z               Mass
    ------------   -----------------  -----------------  -----------------  -----------------
         P            2.561137332752     0.055405752812    -0.169019417032    30.973761998420
         O           -0.791886667248    -0.504602247188    -0.855153417032    15.994914619570
         O           -3.197433667248     1.764572752812     0.206518582968    15.994914619570
         O           -3.607742667248    -0.540414247188    -0.935261417032    15.994914619570
         O           -0.976539667248    -1.685496247188     1.171561582968    15.994914619570
         O            1.450972332752     1.235365752812    -0.299616417032    15.994914619570
         O            1.691166332752    -1.287392247188    -0.335939417032    15.994914619570
         O            2.908700332752    -0.053247247188     1.411775582968    15.994914619570
         O            3.725052332752     0.296434752812    -1.044647417032    15.994914619570
         C           -2.228981667248     0.781315752812     0.563124582968    12.000000000000
         C           -0.945236667248     0.825525752812    -0.295793417032    12.000000000000
         C           -2.872447267248    -0.683479847188     0.223120182968    12.000000000000
         C           -1.587245667248    -1.396913247188    -0.062819417032    12.000000000000
         C            0.272216332752     1.204460752812     0.528696582968    12.000000000000
         H           -1.987978667248     0.840666752812     1.632492582968     1.007825032230
         H           -1.067258667248     1.507556752812    -1.142216417032     1.007825032230
         H           -3.391642667248    -1.010695247188     1.091465582968     1.007825032230
         H           -1.758108667248    -2.282710247188    -0.682024417032     1.007825032230
         H            0.391321332752     0.508921752812     1.363857582968     1.007825032230
         H            0.147239332752     2.216517752812     0.930061582968     1.007825032230
         H           -2.941307667248     2.616934752812     0.596359582968     1.007825032230
         H           -4.092634667248     0.306119752812    -0.905313417032     1.007825032230
         H           -0.092234667248    -2.061940247188     0.993810582968     1.007825032230
         H            0.856981332752    -1.069715247188    -0.832390417032     1.007825032230
         H            3.796737332752     0.319037752812     1.565769582968     1.007825032230

  Basis Set: AUG-CC-PVTZ
    Blend: AUG-CC-PVTZ
  Basis Set: (AUG-CC-PVTZ AUX)
    Blend: AUG-CC-PVTZ-JKFIT
	 Reference Energy          =   -1135.8152199126266169 [Eh]
	 Singles Energy            =      -0.0000000000000000 [Eh]
	 Same-Spin Energy          =      -0.8163270683901820 [Eh]
	 Opposite-Spin Energy      =      -2.4216568249810670 [Eh]
	 Correlation Energy        =      -3.2379838933712488 [Eh]
	 Total Energy              =   -1139.0532038059977822 [Eh]

	 ================> DF-SCS-MP2 Energies <==================
	-----------------------------------------------------------
	 SCS Same-Spin Scale       =       0.3333333333333333 [-]
	 SCS Opposite-Spin Scale   =       1.2000000000000000 [-]
	 SCS Same-Spin Energy      =      -0.2721090227967273 [Eh]
	 SCS Opposite-Spin Energy  =      -2.9059881899772804 [Eh]
	 SCS Correlation Energy    =      -3.1780972127740075 [Eh]
	 SCS Total Energy          =   -1138.9933171254006083 [Eh]
	-----------------------------------------------------------

  Dipole Moment: [D]
     X:    -3.6500      Y:     2.2218      Z:     3.9903     Total:     5.8464

*** Psi4 exiting successfully. Buy a developer a beer!
