                               Psi4 1.4a3.dev225

  ==> Input File <==

--------------------------------------------------------------------------
#psi4
#
memory 32 gb

molecule  {
0 1
  P        2.6113660     0.0433910    -0.1897900
  O       -0.7416560    -0.5164190    -0.8762010
  O       -3.1473860     1.7523070     0.1855430
  O       -3.5574330    -0.5529450    -0.9556820
  O       -0.9255690    -1.6972900     1.1506350
  O        1.5012550     1.2233910    -0.3202530
  O        1.7411940    -1.2993510    -0.3564950
  O        2.9591660    -0.0655390     1.3909200
  O        3.7751240     0.2843830    -1.0656400
  C       -2.1787050     0.7693270     0.5422590
  C       -0.8949630     0.8136090    -0.3166340
  C       -2.7825860    -0.6061320     0.2233240
  C       -1.5366410    -1.4089160    -0.0835620
  C        0.2815394     1.1913454     0.5367495
  H       -1.9377070     0.8289040     1.6116220
  H       -1.0168440     1.4957790    -1.1629650
  H       -3.3408870    -1.0228010     1.0710960
  H       -1.7074320    -2.2947510    -0.7027390
  H        0.4414920     0.4968360     1.3431340
  H        0.1974400     2.2044510     0.9094280
  H       -2.8916000     2.6047160     0.5754970
  H       -4.0429610     0.2932130    -0.9254450
  H       -0.0410590    -2.0731950     0.9726900
  H        0.9073710    -1.0816890    -0.8535130
  H        3.8468470     0.3075270     1.5450430
units angstrom
no_reorient  #important for SAPT in psi4, default
symmetry c1  #important for SAPT in psi4, default
}

set PROPERTIES_ORIGIN ["COM"]
properties('MP2/aug-cc-pvtz', properties = ['dipole'])
--------------------------------------------------------------------------

    Molecular point group: c1
  Charge       = 0
  Multiplicity = 1
  Basis Set: AUG-CC-PVTZ
    Blend: AUG-CC-PVTZ
  Basis Set: (AUG-CC-PVTZ AUX)
    Blend: AUG-CC-PVTZ-JKFIT

    Orbital Energies [Eh]
    ---------------------

    Doubly Occupied:

       1A    -80.111424     2A    -20.609167     3A    -20.607404
       4A    -20.605134     5A    -20.599422     6A    -20.596467
       7A    -20.595715     8A    -20.575728     9A    -20.511970
      10A    -11.363176    11A    -11.324399    12A    -11.322694
      13A    -11.319992    14A    -11.308158    15A     -7.626380
      16A     -5.524794    17A     -5.524725    18A     -5.523231
      19A     -1.461847    20A     -1.444617    21A     -1.412559
      22A     -1.383585    23A     -1.374829    24A     -1.372100
      25A     -1.368135    26A     -1.292880    27A     -1.089541
      28A     -1.049163    29A     -0.947780    30A     -0.856479
      31A     -0.842655    32A     -0.829959    33A     -0.771162
      34A     -0.758851    35A     -0.746900    36A     -0.733612
      37A     -0.713888    38A     -0.692129    39A     -0.684300
      40A     -0.667575    41A     -0.650806    42A     -0.645690
      43A     -0.629746    44A     -0.614812    45A     -0.602628
      46A     -0.595994    47A     -0.581227    48A     -0.577899
      49A     -0.570723    50A     -0.560595    51A     -0.540934
      52A     -0.532760    53A     -0.524511    54A     -0.513835
      55A     -0.493198    56A     -0.489883    57A     -0.475723
      58A     -0.468551    59A     -0.464321    60A     -0.450908

  @DF-RHF Final Energy: -1135.81980977695184

   => Energetics <=

    Nuclear Repulsion Energy =           1215.4748822296444359
    One-Electron Energy =               -3984.3308416551426490
    Two-Electron Energy =                1633.0361496485465977
    Total Energy =                      -1135.8198097769518427
  Basis Set: (AUG-CC-PVTZ AUX)
    Blend: AUG-CC-PVTZ-RI
    Molecular point group: c1

    Geometry (in Angstrom), charge = 0, multiplicity = 1:

       Center              X                  Y                   Z               Mass
    ------------   -----------------  -----------------  -----------------  -----------------
         P            2.561134636745     0.050831418707    -0.171595079002    30.973761998420
         O           -0.791887363255    -0.508978581293    -0.858006079002    15.994914619570
         O           -3.197617363255     1.759747418707     0.203737920998    15.994914619570
         O           -3.607664363255    -0.545504581293    -0.937487079002    15.994914619570
         O           -0.975800363255    -1.689849581293     1.168829920998    15.994914619570
         O            1.451023636745     1.230831418707    -0.302058079002    15.994914619570
         O            1.690962636745    -1.291910581293    -0.338300079002    15.994914619570
         O            2.908934636745    -0.058098581293     1.409114920998    15.994914619570
         O            3.724892636745     0.291823418707    -1.047445079002    15.994914619570
         C           -2.228936363255     0.776767418707     0.560453920998    12.000000000000
         C           -0.945194363255     0.821049418707    -0.298439079002    12.000000000000
         C           -2.832817363255    -0.598691581293     0.241518920998    12.000000000000
         C           -1.586872363255    -1.401475581293    -0.065367079002    12.000000000000
         C            0.231308036745     1.198785818707     0.554944420998    12.000000000000
         H           -1.987938363255     0.836344418707     1.629816920998     1.007825032230
         H           -1.067075363255     1.503219418707    -1.144770079002     1.007825032230
         H           -3.391118363255    -1.015360581293     1.089290920998     1.007825032230
         H           -1.757663363255    -2.287310581293    -0.684544079002     1.007825032230
         H            0.391260636745     0.504276418707     1.361328920998     1.007825032230
         H            0.147208636745     2.211891418707     0.927622920998     1.007825032230
         H           -2.941831363255     2.612156418707     0.593691920998     1.007825032230
         H           -4.093192363255     0.300653418707    -0.907250079002     1.007825032230
         H           -0.091290363255    -2.065754581293     0.990884920998     1.007825032230
         H            0.857139636745    -1.074248581293    -0.835318079002     1.007825032230
         H            3.796615636745     0.314967418707     1.563237920998     1.007825032230

  Basis Set: AUG-CC-PVTZ
    Blend: AUG-CC-PVTZ
  Basis Set: (AUG-CC-PVTZ AUX)
    Blend: AUG-CC-PVTZ-JKFIT
	 Reference Energy          =   -1135.8198097769518427 [Eh]
	 Singles Energy            =      -0.0000000000000000 [Eh]
	 Same-Spin Energy          =      -0.8164191291977523 [Eh]
	 Opposite-Spin Energy      =      -2.4224838041883299 [Eh]
	 Correlation Energy        =      -3.2389029333860822 [Eh]
	 Total Energy              =   -1139.0587127103378862 [Eh]

	 ================> DF-SCS-MP2 Energies <==================
	-----------------------------------------------------------
	 SCS Same-Spin Scale       =       0.3333333333333333 [-]
	 SCS Opposite-Spin Scale   =       1.2000000000000000 [-]
	 SCS Same-Spin Energy      =      -0.2721397097325841 [Eh]
	 SCS Opposite-Spin Energy  =      -2.9069805650259957 [Eh]
	 SCS Correlation Energy    =      -3.1791202747585796 [Eh]
	 SCS Total Energy          =   -1138.9989300517104311 [Eh]
	-----------------------------------------------------------

  Dipole Moment: [D]
     X:    -3.6995      Y:     2.3285      Z:     4.1065     Total:     5.9977

*** Psi4 exiting successfully. Buy a developer a beer!
