                               Psi4 1.3.2 release

  ==> Input File <==

--------------------------------------------------------------------------
#psi4
#
memory 32 gb

molecule  {
0 1
  P        2.6114510     0.0433530    -0.1897960
  O       -0.7415730    -0.5166550    -0.8759300
  O       -3.1471200     1.7525200     0.1857420
  O       -3.5574290    -0.5524670    -0.9560380
  O       -0.9262260    -1.6975490     1.1507850
  O        1.5012860     1.2233130    -0.3203930
  O        1.7414800    -1.2994450    -0.3567160
  O        2.9590140    -0.0653000     1.3909990
  O        3.7753660     0.2843820    -1.0654240
  C       -2.1786680     0.7692630     0.5423480
  C       -0.8949230     0.8134730    -0.3165700
  C       -2.7827930    -0.6059770     0.2231310
  C       -1.6478539    -1.5334090     0.0269041
  C        0.3225300     1.1924080     0.5079200
  H       -1.9376650     0.8286140     1.6117160
  H       -1.0169450     1.4955040    -1.1629930
  H       -3.3413290    -1.0227480     1.0706890
  H       -1.7077950    -2.2947630    -0.7028010
  H        0.4416350     0.4968690     1.3430810
  H        0.1975530     2.2044650     0.9092850
  H       -2.8909940     2.6048820     0.5755830
  H       -4.0423210     0.2940670    -0.9260900
  H       -0.0419210    -2.0739930     0.9730340
  H        0.9072950    -1.0817680    -0.8531670
  H        3.8470510     0.3069850     1.5449930
units angstrom
no_reorient  #important for SAPT in psi4, default
symmetry c1  #important for SAPT in psi4, default
}

set PROPERTIES_ORIGIN ["COM"]
properties('MP2/aug-cc-pvtz', properties = ['dipole'])
--------------------------------------------------------------------------

    Molecular point group: c1
  Charge       = 0
  Multiplicity = 1
  Basis Set: AUG-CC-PVTZ
    Blend: AUG-CC-PVTZ
  Basis Set: (AUG-CC-PVTZ AUX)
    Blend: AUG-CC-PVTZ-JKFIT

    Orbital Energies [Eh]
    ---------------------

    Doubly Occupied:

       1A    -80.110270     2A    -20.616178     3A    -20.607959
       4A    -20.605204     5A    -20.598706     6A    -20.592028
       7A    -20.578499     8A    -20.568434     9A    -20.510540
      10A    -11.377670    11A    -11.323001    12A    -11.314695
      13A    -11.313656    14A    -11.304308    15A     -7.625199
      16A     -5.523625    17A     -5.523534    18A     -5.522050
      19A     -1.458456    20A     -1.447769    21A     -1.415209
      22A     -1.386176    23A     -1.376554    24A     -1.372508
      25A     -1.338562    26A     -1.291646    27A     -1.074952
      28A     -1.049698    29A     -0.950204    30A     -0.856617
      31A     -0.834068    32A     -0.829367    33A     -0.788817
      34A     -0.763851    35A     -0.739240    36A     -0.727266
      37A     -0.712638    38A     -0.690749    39A     -0.683641
      40A     -0.663085    41A     -0.649162    42A     -0.644847
      43A     -0.633319    44A     -0.621526    45A     -0.600503
      46A     -0.590063    47A     -0.576606    48A     -0.574326
      49A     -0.564999    50A     -0.555612    51A     -0.539840
      52A     -0.526430    53A     -0.518197    54A     -0.511885
      55A     -0.499968    56A     -0.470971    57A     -0.466800
      58A     -0.463332    59A     -0.456781    60A     -0.440920

  @DF-RHF Final Energy: -1135.79500854425100

   => Energetics <=

    Nuclear Repulsion Energy =           1212.6073761753871167
    One-Electron Energy =               -3978.8593422087315048
    Two-Electron Energy =                1630.4569574890936110
    Total Energy =                      -1135.7950085442510044
  Basis Set: (AUG-CC-PVTZ AUX)
    Blend: AUG-CC-PVTZ-RI
    Molecular point group: c1

    Geometry (in Angstrom), charge = 0, multiplicity = 1:

       Center              X                  Y                   Z               Mass
    ------------   -----------------  -----------------  -----------------  -----------------
         P            2.564871698277     0.057225813412    -0.175868629241    30.973761998420
         O           -0.788152301723    -0.502782186588    -0.862002629241    15.994914619570
         O           -3.193699301723     1.766392813412     0.199669370759    15.994914619570
         O           -3.604008301723    -0.538594186588    -0.942110629241    15.994914619570
         O           -0.972805301723    -1.683676186588     1.164712370759    15.994914619570
         O            1.454706698277     1.237185813412    -0.306465629241    15.994914619570
         O            1.694900698277    -1.285572186588    -0.342788629241    15.994914619570
         O            2.912434698277    -0.051427186588     1.404926370759    15.994914619570
         O            3.728786698277     0.298254813412    -1.051496629241    15.994914619570
         C           -2.225247301723     0.783135813412     0.556275370759    12.000000000000
         C           -0.941502301723     0.827345813412    -0.302642629241    12.000000000000
         C           -2.829372301723    -0.592104186588     0.237058370759    12.000000000000
         C           -1.694433201723    -1.519536186588     0.040831470759    12.000000000000
         C            0.275950698277     1.206280813412     0.521847370759    12.000000000000
         H           -1.984244301723     0.842486813412     1.625643370759     1.007825032230
         H           -1.063524301723     1.509376813412    -1.149065629241     1.007825032230
         H           -3.387908301723    -1.008875186588     1.084616370759     1.007825032230
         H           -1.754374301723    -2.280890186588    -0.688873629241     1.007825032230
         H            0.395055698277     0.510741813412     1.357008370759     1.007825032230
         H            0.150973698277     2.218337813412     0.923212370759     1.007825032230
         H           -2.937573301723     2.618754813412     0.589510370759     1.007825032230
         H           -4.088900301723     0.307939813412    -0.912162629241     1.007825032230
         H           -0.088500301723    -2.060120186588     0.986961370759     1.007825032230
         H            0.860715698277    -1.067895186588    -0.839239629241     1.007825032230
         H            3.800471698277     0.320857813412     1.558920370759     1.007825032230

  Basis Set: AUG-CC-PVTZ
    Blend: AUG-CC-PVTZ
  Basis Set: (AUG-CC-PVTZ AUX)
    Blend: AUG-CC-PVTZ-JKFIT
	 Reference Energy          =   -1135.7950085442510044 [Eh]
	 Singles Energy            =      -0.0000000000000000 [Eh]
	 Same-Spin Energy          =      -0.8178512853638654 [Eh]
	 Opposite-Spin Energy      =      -2.4248196001211926 [Eh]
	 Correlation Energy        =      -3.2426708854850581 [Eh]
	 Total Energy              =   -1139.0376794297360448 [Eh]

	 ================> DF-SCS-MP2 Energies <==================
	-----------------------------------------------------------
	 SCS Same-Spin Scale       =       0.3333333333333333 [-]
	 SCS Opposite-Spin Scale   =       1.2000000000000000 [-]
	 SCS Same-Spin Energy      =      -0.2726170951212885 [Eh]
	 SCS Opposite-Spin Energy  =      -2.9097835201454312 [Eh]
	 SCS Correlation Energy    =      -3.1824006152667197 [Eh]
	 SCS Total Energy          =   -1138.9774091595177197 [Eh]
	-----------------------------------------------------------

  Dipole Moment: [D]
     X:    -3.9337      Y:     1.5939      Z:     4.5390     Total:     6.2142

*** Psi4 exiting successfully. Buy a developer a beer!
