                               Psi4 1.3.2 release

  ==> Input File <==

--------------------------------------------------------------------------
#psi4
#
memory 32 gb

molecule  {
0 1
  P        2.6114510     0.0433530    -0.1897960
  O       -0.7415730    -0.5166550    -0.8759300
  O       -3.1471200     1.7525200     0.1857420
  O       -3.5574290    -0.5524670    -0.9560380
  O       -0.9262260    -1.6975490     1.1507850
  O        1.5012860     1.2233130    -0.3203930
  O        1.7414800    -1.2994450    -0.3567160
  O        2.9590140    -0.0653000     1.3909990
  O        3.7753660     0.2843820    -1.0654240
  C       -2.1786680     0.7692630     0.5423480
  C       -0.8949230     0.8134730    -0.3165700
  C       -2.7827930    -0.6059770     0.2231310
  C       -1.4814710    -1.3467445    -0.1388460
  C        0.3225300     1.1924080     0.5079200
  H       -1.9376650     0.8286140     1.6117160
  H       -1.0169450     1.4955040    -1.1629930
  H       -3.3413290    -1.0227480     1.0706890
  H       -1.7077950    -2.2947630    -0.7028010
  H        0.4416350     0.4968690     1.3430810
  H        0.1975530     2.2044650     0.9092850
  H       -2.8909940     2.6048820     0.5755830
  H       -4.0423210     0.2940670    -0.9260900
  H       -0.0419210    -2.0739930     0.9730340
  H        0.9072950    -1.0817680    -0.8531670
  H        3.8470510     0.3069850     1.5449930
units angstrom
no_reorient  #important for SAPT in psi4, default
symmetry c1  #important for SAPT in psi4, default
}

set PROPERTIES_ORIGIN ["COM"]
properties('MP2/aug-cc-pvtz', properties = ['dipole'])
--------------------------------------------------------------------------

    Molecular point group: c1
  Charge       = 0
  Multiplicity = 1
  Basis Set: AUG-CC-PVTZ
    Blend: AUG-CC-PVTZ
  Basis Set: (AUG-CC-PVTZ AUX)
    Blend: AUG-CC-PVTZ-JKFIT

    Orbital Energies [Eh]
    ---------------------

    Doubly Occupied:

       1A    -80.117270     2A    -20.617824     3A    -20.612782
       4A    -20.608253     5A    -20.606783     6A    -20.601745
       7A    -20.584045     8A    -20.573189     9A    -20.516608
      10A    -11.359469    11A    -11.325526    12A    -11.324879
      13A    -11.323569    14A    -11.304645    15A     -7.632232
      16A     -5.530652    17A     -5.530567    18A     -5.529062
      19A     -1.486566    20A     -1.454837    21A     -1.412441
      22A     -1.392413    23A     -1.381085    24A     -1.371256
      25A     -1.364627    26A     -1.298006    27A     -1.093157
      28A     -1.043815    29A     -0.946606    30A     -0.859529
      31A     -0.849665    32A     -0.828063    33A     -0.775012
      34A     -0.756034    35A     -0.750079    36A     -0.737035
      37A     -0.719019    38A     -0.696964    39A     -0.689639
      40A     -0.667113    41A     -0.654324    42A     -0.649199
      43A     -0.635786    44A     -0.615998    45A     -0.605272
      46A     -0.596155    47A     -0.584616    48A     -0.578512
      49A     -0.571008    50A     -0.560927    51A     -0.544496
      52A     -0.532494    53A     -0.526049    54A     -0.511132
      55A     -0.495255    56A     -0.482992    57A     -0.475323
      58A     -0.468702    59A     -0.463348    60A     -0.452486

  @DF-RHF Final Energy: -1135.81478134634608

   => Energetics <=

    Nuclear Repulsion Energy =           1217.6160331833541477
    One-Electron Energy =               -3988.3093565801691511
    Two-Electron Energy =                1634.8785420504686954
    Total Energy =                      -1135.8147813463460807
  Basis Set: (AUG-CC-PVTZ AUX)
    Blend: AUG-CC-PVTZ-RI
    Molecular point group: c1

    Geometry (in Angstrom), charge = 0, multiplicity = 1:

       Center              X                  Y                   Z               Mass
    ------------   -----------------  -----------------  -----------------  -----------------
         P            2.556191574198     0.047487607014    -0.167221518065    30.973761998420
         O           -0.796832425802    -0.512520392986    -0.853355518065    15.994914619570
         O           -3.202379425802     1.756654607014     0.208316481935    15.994914619570
         O           -3.612688425802    -0.548332392986    -0.933463518065    15.994914619570
         O           -0.981485425802    -1.693414392986     1.173359481935    15.994914619570
         O            1.446026574198     1.227447607014    -0.297818518065    15.994914619570
         O            1.686220574198    -1.295310392986    -0.334141518065    15.994914619570
         O            2.903754574198    -0.061165392986     1.413573481935    15.994914619570
         O            3.720106574198     0.288516607014    -1.042849518065    15.994914619570
         C           -2.233927425802     0.773397607014     0.564922481935    12.000000000000
         C           -0.950182425802     0.817607607014    -0.293995518065    12.000000000000
         C           -2.838052425802    -0.601842392986     0.245705481935    12.000000000000
         C           -1.536730425802    -1.342609892986    -0.116271518065    12.000000000000
         C            0.267270574198     1.196542607014     0.530494481935    12.000000000000
         H           -1.992924425802     0.832748607014     1.634290481935     1.007825032230
         H           -1.072204425802     1.499638607014    -1.140418518065     1.007825032230
         H           -3.396588425802    -1.018613392986     1.093263481935     1.007825032230
         H           -1.763054425802    -2.290628392986    -0.680226518065     1.007825032230
         H            0.386375574198     0.501003607014     1.365655481935     1.007825032230
         H            0.142293574198     2.208599607014     0.931859481935     1.007825032230
         H           -2.946253425802     2.609016607014     0.598157481935     1.007825032230
         H           -4.097580425802     0.298201607014    -0.903515518065     1.007825032230
         H           -0.097180425802    -2.069858392986     0.995608481935     1.007825032230
         H            0.852035574198    -1.077633392986    -0.830592518065     1.007825032230
         H            3.791791574198     0.311119607014     1.567567481935     1.007825032230

  Basis Set: AUG-CC-PVTZ
    Blend: AUG-CC-PVTZ
  Basis Set: (AUG-CC-PVTZ AUX)
    Blend: AUG-CC-PVTZ-JKFIT
	 Reference Energy          =   -1135.8147813463460807 [Eh]
	 Singles Energy            =      -0.0000000000000000 [Eh]
	 Same-Spin Energy          =      -0.8165820201367678 [Eh]
	 Opposite-Spin Energy      =      -2.4218654100871886 [Eh]
	 Correlation Energy        =      -3.2384474302239563 [Eh]
	 Total Energy              =   -1139.0532287765699948 [Eh]

	 ================> DF-SCS-MP2 Energies <==================
	-----------------------------------------------------------
	 SCS Same-Spin Scale       =       0.3333333333333333 [-]
	 SCS Opposite-Spin Scale   =       1.2000000000000000 [-]
	 SCS Same-Spin Energy      =      -0.2721940067122559 [Eh]
	 SCS Opposite-Spin Energy  =      -2.9062384921046260 [Eh]
	 SCS Correlation Energy    =      -3.1784324988168819 [Eh]
	 SCS Total Energy          =   -1138.9932138451629271 [Eh]
	-----------------------------------------------------------

  Dipole Moment: [D]
     X:    -3.2379      Y:     2.6790      Z:     3.7795     Total:     5.6520

*** Psi4 exiting successfully. Buy a developer a beer!
