                               Psi4 1.3.2 release

  ==> Input File <==

--------------------------------------------------------------------------
#psi4
#
memory 32 gb

molecule  {
0 1
  P        2.6114510     0.0433530    -0.1897960
  O       -0.8784688    -0.4973175    -0.9388222
  O       -3.1471200     1.7525200     0.1857420
  O       -3.5574290    -0.5524670    -0.9560380
  O       -0.9262260    -1.6975490     1.1507850
  O        1.5012860     1.2233130    -0.3203930
  O        1.7414800    -1.2994450    -0.3567160
  O        2.9590140    -0.0653000     1.3909990
  O        3.7753660     0.2843820    -1.0654240
  C       -2.1786680     0.7692630     0.5423480
  C       -0.8949230     0.8134730    -0.3165700
  C       -2.7827930    -0.6059770     0.2231310
  C       -1.5369320    -1.4089660    -0.0835960
  C        0.3225300     1.1924080     0.5079200
  H       -1.9376650     0.8286140     1.6117160
  H       -1.0169450     1.4955040    -1.1629930
  H       -3.3413290    -1.0227480     1.0706890
  H       -1.7077950    -2.2947630    -0.7028010
  H        0.4416350     0.4968690     1.3430810
  H        0.1975530     2.2044650     0.9092850
  H       -2.8909940     2.6048820     0.5755830
  H       -4.0423210     0.2940670    -0.9260900
  H       -0.0419210    -2.0739930     0.9730340
  H        0.9072950    -1.0817680    -0.8531670
  H        3.8470510     0.3069850     1.5449930
units angstrom
no_reorient  #important for SAPT in psi4, default
symmetry c1  #important for SAPT in psi4, default
}

set PROPERTIES_ORIGIN ["COM"]
properties('MP2/aug-cc-pvtz', properties = ['dipole'])
--------------------------------------------------------------------------

    Molecular point group: c1
  Charge       = 0
  Multiplicity = 1
  Basis Set: AUG-CC-PVTZ
    Blend: AUG-CC-PVTZ
  Basis Set: (AUG-CC-PVTZ AUX)
    Blend: AUG-CC-PVTZ-JKFIT

    Orbital Energies [Eh]
    ---------------------

    Doubly Occupied:

       1A    -80.119272     2A    -20.614553     3A    -20.608238
       4A    -20.608168     5A    -20.602765     6A    -20.601967
       7A    -20.598553     8A    -20.569516     9A    -20.518139
      10A    -11.357546    11A    -11.325024    12A    -11.319016
      13A    -11.316801    14A    -11.300998    15A     -7.634244
      16A     -5.532640    17A     -5.532603    18A     -5.531066
      19A     -1.465083    20A     -1.452657    21A     -1.407810
      22A     -1.393646    23A     -1.384531    24A     -1.376482
      25A     -1.365637    26A     -1.299481    27A     -1.082825
      28A     -1.043922    29A     -0.950466    30A     -0.856599
      31A     -0.841898    32A     -0.826385    33A     -0.771175
      34A     -0.759911    35A     -0.747132    36A     -0.734839
      37A     -0.720900    38A     -0.697570    39A     -0.684319
      40A     -0.664664    41A     -0.654645    42A     -0.650901
      43A     -0.628618    44A     -0.618097    45A     -0.598932
      46A     -0.595987    47A     -0.586341    48A     -0.579052
      49A     -0.567113    50A     -0.556349    51A     -0.547631
      52A     -0.534694    53A     -0.528200    54A     -0.508470
      55A     -0.493335    56A     -0.486292    57A     -0.476900
      58A     -0.470706    59A     -0.464272    60A     -0.446820

  @DF-RHF Final Energy: -1135.81590850596081

   => Energetics <=

    Nuclear Repulsion Energy =           1214.5867804327519934
    One-Electron Energy =               -3982.3805871133963592
    Two-Electron Energy =                1631.9778981746837871
    Total Energy =                      -1135.8159085059608060
  Basis Set: (AUG-CC-PVTZ AUX)
    Blend: AUG-CC-PVTZ-RI
    Molecular point group: c1

    Geometry (in Angstrom), charge = 0, multiplicity = 1:

       Center              X                  Y                   Z               Mass
    ------------   -----------------  -----------------  -----------------  -----------------
         P            2.568604317134     0.049388997965    -0.165730531933    30.973761998420
         O           -0.921315482866    -0.491281502035    -0.914756731933    15.994914619570
         O           -3.189966682866     1.758555997965     0.209807468067    15.994914619570
         O           -3.600275682866    -0.546431002035    -0.931972531933    15.994914619570
         O           -0.969072682866    -1.691513002035     1.174850468067    15.994914619570
         O            1.458439317134     1.229348997965    -0.296327531933    15.994914619570
         O            1.698633317134    -1.293409002035    -0.332650531933    15.994914619570
         O            2.916167317134    -0.059264002035     1.415064468067    15.994914619570
         O            3.732519317134     0.290417997965    -1.041358531933    15.994914619570
         C           -2.221514682866     0.775298997965     0.566413468067    12.000000000000
         C           -0.937769682866     0.819508997965    -0.292504531933    12.000000000000
         C           -2.825639682866    -0.599941002035     0.247196468067    12.000000000000
         C           -1.579778682866    -1.402930002035    -0.059530531933    12.000000000000
         C            0.279683317134     1.198443997965     0.531985468067    12.000000000000
         H           -1.980511682866     0.834649997965     1.635781468067     1.007825032230
         H           -1.059791682866     1.501539997965    -1.138927531933     1.007825032230
         H           -3.384175682866    -1.016712002035     1.094754468067     1.007825032230
         H           -1.750641682866    -2.288727002035    -0.678735531933     1.007825032230
         H            0.398788317134     0.502904997965     1.367146468067     1.007825032230
         H            0.154706317134     2.210500997965     0.933350468067     1.007825032230
         H           -2.933840682866     2.610917997965     0.599648468067     1.007825032230
         H           -4.085167682866     0.300102997965    -0.902024531933     1.007825032230
         H           -0.084767682866    -2.067957002035     0.997099468067     1.007825032230
         H            0.864448317134    -1.075732002035    -0.829101531933     1.007825032230
         H            3.804204317134     0.313020997965     1.569058468067     1.007825032230

  Basis Set: AUG-CC-PVTZ
    Blend: AUG-CC-PVTZ
  Basis Set: (AUG-CC-PVTZ AUX)
    Blend: AUG-CC-PVTZ-JKFIT
	 Reference Energy          =   -1135.8159085059608060 [Eh]
	 Singles Energy            =      -0.0000000000000000 [Eh]
	 Same-Spin Energy          =      -0.8164748498354545 [Eh]
	 Opposite-Spin Energy      =      -2.4221594518441769 [Eh]
	 Correlation Energy        =      -3.2386343016796313 [Eh]
	 Total Energy              =   -1139.0545428076404733 [Eh]

	 ================> DF-SCS-MP2 Energies <==================
	-----------------------------------------------------------
	 SCS Same-Spin Scale       =       0.3333333333333333 [-]
	 SCS Opposite-Spin Scale   =       1.2000000000000000 [-]
	 SCS Same-Spin Energy      =      -0.2721582832784848 [Eh]
	 SCS Opposite-Spin Energy  =      -2.9065913422130123 [Eh]
	 SCS Correlation Energy    =      -3.1787496254914971 [Eh]
	 SCS Total Energy          =   -1138.9946581314522973 [Eh]
	-----------------------------------------------------------

  Dipole Moment: [D]
     X:    -2.9132      Y:     2.2685      Z:     4.1001     Total:     5.5176

*** Psi4 exiting successfully. Buy a developer a beer!
