                               Psi4 1.3.2 release

  ==> Input File <==

--------------------------------------------------------------------------
#psi4
#
memory 32 gb

molecule  {
0 1
  P        2.6114510     0.0433530    -0.1897960
  O       -0.7415730    -0.5166550    -0.8759300
  O       -3.1471200     1.7525200     0.1857420
  O       -3.5574290    -0.5524670    -0.9560380
  O       -0.9262260    -1.6975490     1.1507850
  O        1.5012860     1.2233130    -0.3203930
  O        1.7414800    -1.2994450    -0.3567160
  O        2.9590140    -0.0653000     1.3909990
  O        3.7753660     0.2843820    -1.0654240
  C       -2.1786680     0.7692630     0.5423480
  C       -0.8949230     0.8134730    -0.3165700
  C       -2.7827930    -0.6059770     0.2231310
  C       -1.4935303    -1.4294750     0.0041290
  C        0.3225300     1.1924080     0.5079200
  H       -1.9376650     0.8286140     1.6117160
  H       -1.0169450     1.4955040    -1.1629930
  H       -3.3413290    -1.0227480     1.0706890
  H       -1.7077950    -2.2947630    -0.7028010
  H        0.4416350     0.4968690     1.3430810
  H        0.1975530     2.2044650     0.9092850
  H       -2.8909940     2.6048820     0.5755830
  H       -4.0423210     0.2940670    -0.9260900
  H       -0.0419210    -2.0739930     0.9730340
  H        0.9072950    -1.0817680    -0.8531670
  H        3.8470510     0.3069850     1.5449930
units angstrom
no_reorient  #important for SAPT in psi4, default
symmetry c1  #important for SAPT in psi4, default
}

set PROPERTIES_ORIGIN ["COM"]
properties('MP2/aug-cc-pvtz', properties = ['dipole'])
--------------------------------------------------------------------------

    Molecular point group: c1
  Charge       = 0
  Multiplicity = 1
  Basis Set: AUG-CC-PVTZ
    Blend: AUG-CC-PVTZ
  Basis Set: (AUG-CC-PVTZ AUX)
    Blend: AUG-CC-PVTZ-JKFIT

    Orbital Energies [Eh]
    ---------------------

    Doubly Occupied:

       1A    -80.115253     2A    -20.611895     3A    -20.611868
       4A    -20.604641     5A    -20.604025     6A    -20.599090
       7A    -20.595354     8A    -20.573547     9A    -20.514802
      10A    -11.364795    11A    -11.320619    12A    -11.320416
      13A    -11.313913    14A    -11.306345    15A     -7.630201
      16A     -5.528615    17A     -5.528545    18A     -5.527039
      19A     -1.478638    20A     -1.454200    21A     -1.414818
      22A     -1.393113    23A     -1.381281    24A     -1.377732
      25A     -1.366935    26A     -1.296093    27A     -1.079933
      28A     -1.041128    29A     -0.943079    30A     -0.859023
      31A     -0.838252    32A     -0.830142    33A     -0.781169
      34A     -0.766456    35A     -0.745358    36A     -0.731448
      37A     -0.717197    38A     -0.697874    39A     -0.684765
      40A     -0.672290    41A     -0.653886    42A     -0.652878
      43A     -0.635378    44A     -0.623159    45A     -0.602393
      46A     -0.595114    47A     -0.581501    48A     -0.577641
      49A     -0.569304    50A     -0.556238    51A     -0.544710
      52A     -0.531332    53A     -0.527118    54A     -0.508756
      55A     -0.483087    56A     -0.481919    57A     -0.473966
      58A     -0.467363    59A     -0.461089    60A     -0.447283

  @DF-RHF Final Energy: -1135.81209326452313

   => Energetics <=

    Nuclear Repulsion Energy =           1216.3274410392732534
    One-Electron Energy =               -3985.8870531483498780
    Two-Electron Energy =                1633.7475188445534968
    Total Energy =                      -1135.8120932645231278
  Basis Set: (AUG-CC-PVTZ AUX)
    Blend: AUG-CC-PVTZ-RI
    Molecular point group: c1

    Geometry (in Angstrom), charge = 0, multiplicity = 1:

       Center              X                  Y                   Z               Mass
    ------------   -----------------  -----------------  -----------------  -----------------
         P            2.556820702674     0.051803621491    -0.174680462105    30.973761998420
         O           -0.796203297326    -0.508204378509    -0.860814462105    15.994914619570
         O           -3.201750297326     1.760970621491     0.200857537895    15.994914619570
         O           -3.612059297326    -0.544016378509    -0.940922462105    15.994914619570
         O           -0.980856297326    -1.689098378509     1.165900537895    15.994914619570
         O            1.446655702674     1.231763621491    -0.305277462105    15.994914619570
         O            1.686849702674    -1.290994378509    -0.341600462105    15.994914619570
         O            2.904383702674    -0.056849378509     1.406114537895    15.994914619570
         O            3.720735702674     0.292832621491    -1.050308462105    15.994914619570
         C           -2.233298297326     0.777713621491     0.557463537895    12.000000000000
         C           -0.949553297326     0.821923621491    -0.301454462105    12.000000000000
         C           -2.837423297326    -0.597526378509     0.238246537895    12.000000000000
         C           -1.548160597326    -1.421024378509     0.019244537895    12.000000000000
         C            0.267899702674     1.200858621491     0.523035537895    12.000000000000
         H           -1.992295297326     0.837064621491     1.626831537895     1.007825032230
         H           -1.071575297326     1.503954621491    -1.147877462105     1.007825032230
         H           -3.395959297326    -1.014297378509     1.085804537895     1.007825032230
         H           -1.762425297326    -2.286312378509    -0.687685462105     1.007825032230
         H            0.387004702674     0.505319621491     1.358196537895     1.007825032230
         H            0.142922702674     2.212915621491     0.924400537895     1.007825032230
         H           -2.945624297326     2.613332621491     0.590698537895     1.007825032230
         H           -4.096951297326     0.302517621491    -0.910974462105     1.007825032230
         H           -0.096551297326    -2.065542378509     0.988149537895     1.007825032230
         H            0.852664702674    -1.073317378509    -0.838051462105     1.007825032230
         H            3.792420702674     0.315435621491     1.560108537895     1.007825032230

  Basis Set: AUG-CC-PVTZ
    Blend: AUG-CC-PVTZ
  Basis Set: (AUG-CC-PVTZ AUX)
    Blend: AUG-CC-PVTZ-JKFIT
	 Reference Energy          =   -1135.8120932645231278 [Eh]
	 Singles Energy            =      -0.0000000000000000 [Eh]
	 Same-Spin Energy          =      -0.8169781116533521 [Eh]
	 Opposite-Spin Energy      =      -2.4220272909902669 [Eh]
	 Correlation Energy        =      -3.2390054026436190 [Eh]
	 Total Energy              =   -1139.0510986671667979 [Eh]

	 ================> DF-SCS-MP2 Energies <==================
	-----------------------------------------------------------
	 SCS Same-Spin Scale       =       0.3333333333333333 [-]
	 SCS Opposite-Spin Scale   =       1.2000000000000000 [-]
	 SCS Same-Spin Energy      =      -0.2723260372177840 [Eh]
	 SCS Opposite-Spin Energy  =      -2.9064327491883204 [Eh]
	 SCS Correlation Energy    =      -3.1787587864061044 [Eh]
	 SCS Total Energy          =   -1138.9908520509293339 [Eh]
	-----------------------------------------------------------

  Dipole Moment: [D]
     X:    -3.2953      Y:     2.0624      Z:     4.4280     Total:     5.8923

*** Psi4 exiting successfully. Buy a developer a beer!
