                               Psi4 1.3.2 release

  ==> Input File <==

--------------------------------------------------------------------------
#psi4
#
memory 32 gb

molecule  {
0 1
  P        2.6114510     0.0433530    -0.1897960
  O       -0.7415730    -0.5166550    -0.8759300
  O       -3.1471200     1.7525200     0.1857420
  O       -3.5574290    -0.5524670    -0.9560380
  O       -0.9262260    -1.6975490     1.1507850
  O        1.4118502     1.1842328    -0.4353922
  O        1.7414800    -1.2994450    -0.3567160
  O        2.9590140    -0.0653000     1.3909990
  O        3.7753660     0.2843820    -1.0654240
  C       -2.1786680     0.7692630     0.5423480
  C       -0.8949230     0.8134730    -0.3165700
  C       -2.7827930    -0.6059770     0.2231310
  C       -1.5369320    -1.4089660    -0.0835960
  C        0.3225300     1.1924080     0.5079200
  H       -1.9376650     0.8286140     1.6117160
  H       -1.0169450     1.4955040    -1.1629930
  H       -3.3413290    -1.0227480     1.0706890
  H       -1.7077950    -2.2947630    -0.7028010
  H        0.4416350     0.4968690     1.3430810
  H        0.1975530     2.2044650     0.9092850
  H       -2.8909940     2.6048820     0.5755830
  H       -4.0423210     0.2940670    -0.9260900
  H       -0.0419210    -2.0739930     0.9730340
  H        0.9072950    -1.0817680    -0.8531670
  H        3.8470510     0.3069850     1.5449930
units angstrom
no_reorient  #important for SAPT in psi4, default
symmetry c1  #important for SAPT in psi4, default
}

set PROPERTIES_ORIGIN ["COM"]
properties('MP2/aug-cc-pvtz', properties = ['dipole'])
--------------------------------------------------------------------------

    Molecular point group: c1
  Charge       = 0
  Multiplicity = 1
  Basis Set: AUG-CC-PVTZ
    Blend: AUG-CC-PVTZ
  Basis Set: (AUG-CC-PVTZ AUX)
    Blend: AUG-CC-PVTZ-JKFIT

    Orbital Energies [Eh]
    ---------------------

    Doubly Occupied:

       1A    -80.121125     2A    -20.621443     3A    -20.604922
       4A    -20.603669     5A    -20.600612     6A    -20.596395
       7A    -20.593401     8A    -20.572781     9A    -20.518582
      10A    -11.359996    11A    -11.319396    12A    -11.318161
      13A    -11.313451    14A    -11.304688    15A     -7.635379
      16A     -5.533793    17A     -5.533577    18A     -5.532214
      19A     -1.460840    20A     -1.446043    21A     -1.409023
      22A     -1.393581    23A     -1.374588    24A     -1.371229
      25A     -1.365814    26A     -1.299411    27A     -1.080128
      28A     -1.043260    29A     -0.941404    30A     -0.855403
      31A     -0.842849    32A     -0.828222    33A     -0.768491
      34A     -0.756523    35A     -0.743801    36A     -0.732781
      37A     -0.718657    38A     -0.693184    39A     -0.681388
      40A     -0.667687    41A     -0.656190    42A     -0.642923
      43A     -0.628491    44A     -0.611497    45A     -0.600019
      46A     -0.592485    47A     -0.583876    48A     -0.577706
      49A     -0.567478    50A     -0.560066    51A     -0.547735
      52A     -0.529371    53A     -0.522357    54A     -0.509274
      55A     -0.487861    56A     -0.485512    57A     -0.478643
      58A     -0.471286    59A     -0.465637    60A     -0.445276

  @DF-RHF Final Energy: -1135.81354161767581

   => Energetics <=

    Nuclear Repulsion Energy =           1215.8508256120494480
    One-Electron Energy =               -3985.0855838698612388
    Two-Electron Energy =                1633.4212166401359809
    Total Energy =                      -1135.8135416176758099
  Basis Set: (AUG-CC-PVTZ AUX)
    Blend: AUG-CC-PVTZ-RI
    Molecular point group: c1

    Geometry (in Angstrom), charge = 0, multiplicity = 1:

       Center              X                  Y                   Z               Mass
    ------------   -----------------  -----------------  -----------------  -----------------
         P            2.565304076117     0.053451208030    -0.162107151008    30.973761998420
         O           -0.787719923883    -0.506556791970    -0.848241151008    15.994914619570
         O           -3.193266923883     1.762618208030     0.213430848992    15.994914619570
         O           -3.603575923883    -0.542368791970    -0.928349151008    15.994914619570
         O           -0.972372923883    -1.687450791970     1.178473848992    15.994914619570
         O            1.365703276117     1.194331008030    -0.407703351008    15.994914619570
         O            1.695333076117    -1.289346791970    -0.329027151008    15.994914619570
         O            2.912867076117    -0.055201791970     1.418687848992    15.994914619570
         O            3.729219076117     0.294480208030    -1.037735151008    15.994914619570
         C           -2.224814923883     0.779361208030     0.570036848992    12.000000000000
         C           -0.941069923883     0.823571208030    -0.288881151008    12.000000000000
         C           -2.828939923883    -0.595878791970     0.250819848992    12.000000000000
         C           -1.583078923883    -1.398867791970    -0.055907151008    12.000000000000
         C            0.276383076117     1.202506208030     0.535608848992    12.000000000000
         H           -1.983811923883     0.838712208030     1.639404848992     1.007825032230
         H           -1.063091923883     1.505602208030    -1.135304151008     1.007825032230
         H           -3.387475923883    -1.012649791970     1.098377848992     1.007825032230
         H           -1.753941923883    -2.284664791970    -0.675112151008     1.007825032230
         H            0.395488076117     0.506967208030     1.370769848992     1.007825032230
         H            0.151406076117     2.214563208030     0.936973848992     1.007825032230
         H           -2.937140923883     2.614980208030     0.603271848992     1.007825032230
         H           -4.088467923883     0.304165208030    -0.898401151008     1.007825032230
         H           -0.088067923883    -2.063894791970     1.000722848992     1.007825032230
         H            0.861148076117    -1.071669791970    -0.825478151008     1.007825032230
         H            3.800904076117     0.317083208030     1.572681848992     1.007825032230

  Basis Set: AUG-CC-PVTZ
    Blend: AUG-CC-PVTZ
  Basis Set: (AUG-CC-PVTZ AUX)
    Blend: AUG-CC-PVTZ-JKFIT
	 Reference Energy          =   -1135.8135416176758099 [Eh]
	 Singles Energy            =      -0.0000000000000000 [Eh]
	 Same-Spin Energy          =      -0.8172817926595713 [Eh]
	 Opposite-Spin Energy      =      -2.4243638225475541 [Eh]
	 Correlation Energy        =      -3.2416456152071254 [Eh]
	 Total Energy              =   -1139.0551872328828722 [Eh]

	 ================> DF-SCS-MP2 Energies <==================
	-----------------------------------------------------------
	 SCS Same-Spin Scale       =       0.3333333333333333 [-]
	 SCS Opposite-Spin Scale   =       1.2000000000000000 [-]
	 SCS Same-Spin Energy      =      -0.2724272642198571 [Eh]
	 SCS Opposite-Spin Energy  =      -2.9092365870570647 [Eh]
	 SCS Correlation Energy    =      -3.1816638512769218 [Eh]
	 SCS Total Energy          =   -1138.9952054689526904 [Eh]
	-----------------------------------------------------------

  Dipole Moment: [D]
     X:    -3.0249      Y:     2.3056      Z:     4.2448     Total:     5.6994

*** Psi4 exiting successfully. Buy a developer a beer!
