                               Psi4 1.3.2 release

  ==> Input File <==

--------------------------------------------------------------------------
#psi4
#
memory 32 gb

molecule  {
0 1
  P        2.6114510     0.0433530    -0.1897960
  O       -0.7415730    -0.5166550    -0.8759300
  O       -3.1471200     1.7525200     0.1857420
  O       -3.5574290    -0.5524670    -0.9560380
  O       -0.9262260    -1.6975490     1.1507850
  O        1.5012860     1.2233130    -0.3203930
  O        1.7414800    -1.2994450    -0.3567160
  O        2.9590140    -0.0653000     1.3909990
  O        3.7753660     0.2843820    -1.0654240
  C       -2.1786680     0.7692630     0.5423480
  C       -0.8949230     0.8134730    -0.3165700
  C       -2.7827930    -0.6059770     0.2231310
  C       -1.5369320    -1.4089660    -0.0835960
  C        0.3225300     1.1924080     0.5079200
  H       -1.9376650     0.8286140     1.6117160
  H       -1.0169450     1.4955040    -1.1629930
  H       -3.3413290    -1.0227480     1.0706890
  H       -1.7077950    -2.2947630    -0.7028010
  H        0.4416350     0.4968690     1.3430810
  H        0.1975530     2.2044650     0.9092850
  H       -2.8909940     2.6048820     0.5755830
  H       -4.0423210     0.2940670    -0.9260900
  H       -0.0419210    -2.0739930     0.9730340
  H        0.9072950    -1.0817680    -0.8531670
  H        3.8470510     0.3069850     1.5449930
units angstrom
no_reorient  #important for SAPT in psi4, default
symmetry c1  #important for SAPT in psi4, default
}

set PROPERTIES_ORIGIN ["COM"]
properties('MP2/aug-cc-pvtz', properties = ['dipole'])
--------------------------------------------------------------------------

    Molecular point group: c1
  Charge       = 0
  Multiplicity = 1
  Basis Set: AUG-CC-PVTZ
    Blend: AUG-CC-PVTZ
  Basis Set: (AUG-CC-PVTZ AUX)
    Blend: AUG-CC-PVTZ-JKFIT

    Orbital Energies [Eh]
    ---------------------

    Doubly Occupied:

       1A    -80.114960     2A    -20.611203     3A    -20.606231
       4A    -20.605104     5A    -20.603496     6A    -20.598471
       7A    -20.594821     8A    -20.574839     9A    -20.514612
      10A    -11.362209    11A    -11.323311    12A    -11.321274
      13A    -11.318215    14A    -11.307243    15A     -7.629911
      16A     -5.528331    17A     -5.528248    18A     -5.526748
      19A     -1.463171    20A     -1.448276    21A     -1.411430
      22A     -1.390682    23A     -1.378201    24A     -1.373630
      25A     -1.368666    26A     -1.295948    27A     -1.084214
      28A     -1.046961    29A     -0.946734    30A     -0.857858
      31A     -0.841878    32A     -0.829251    33A     -0.771939
      34A     -0.759530    35A     -0.747644    36A     -0.734193
      37A     -0.716811    38A     -0.692774    39A     -0.684346
      40A     -0.667196    41A     -0.653128    42A     -0.647682
      43A     -0.632928    44A     -0.613719    45A     -0.600986
      46A     -0.596157    47A     -0.582038    48A     -0.577506
      49A     -0.569836    50A     -0.560107    51A     -0.543394
      52A     -0.532222    53A     -0.527036    54A     -0.511919
      55A     -0.490474    56A     -0.487924    57A     -0.475107
      58A     -0.469241    59A     -0.465779    60A     -0.450506

  @DF-RHF Final Energy: -1135.82271398346097

   => Energetics <=

    Nuclear Repulsion Energy =           1215.9213934057240749
    One-Electron Energy =               -3985.1517088817840886
    Two-Electron Energy =                1633.4076014925992695
    Total Energy =                      -1135.8227139834609716
  Basis Set: (AUG-CC-PVTZ AUX)
    Blend: AUG-CC-PVTZ-RI
    Molecular point group: c1

    Geometry (in Angstrom), charge = 0, multiplicity = 1:

       Center              X                  Y                   Z               Mass
    ------------   -----------------  -----------------  -----------------  -----------------
         P            2.559084950630     0.050733675813    -0.170103886718    30.973761998420
         O           -0.793939049370    -0.509274324187    -0.856237886718    15.994914619570
         O           -3.199486049370     1.759900675813     0.205434113282    15.994914619570
         O           -3.609795049370    -0.545086324187    -0.936345886718    15.994914619570
         O           -0.978592049370    -1.690168324187     1.170477113282    15.994914619570
         O            1.448919950630     1.230693675813    -0.300700886718    15.994914619570
         O            1.689113950630    -1.292064324187    -0.337023886718    15.994914619570
         O            2.906647950630    -0.057919324187     1.410691113282    15.994914619570
         O            3.722999950630     0.291762675813    -1.045731886718    15.994914619570
         C           -2.231034049370     0.776643675813     0.562040113282    12.000000000000
         C           -0.947289049370     0.820853675813    -0.296877886718    12.000000000000
         C           -2.835159049370    -0.598596324187     0.242823113282    12.000000000000
         C           -1.589298049370    -1.401585324187    -0.063903886718    12.000000000000
         C            0.270163950630     1.199788675813     0.527612113282    12.000000000000
         H           -1.990031049370     0.835994675813     1.631408113282     1.007825032230
         H           -1.069311049370     1.502884675813    -1.143300886718     1.007825032230
         H           -3.393695049370    -1.015367324187     1.090381113282     1.007825032230
         H           -1.760161049370    -2.287382324187    -0.683108886718     1.007825032230
         H            0.389268950630     0.504249675813     1.362773113282     1.007825032230
         H            0.145186950630     2.211845675813     0.928977113282     1.007825032230
         H           -2.943360049370     2.612262675813     0.595275113282     1.007825032230
         H           -4.094687049370     0.301447675813    -0.906397886718     1.007825032230
         H           -0.094287049370    -2.066612324187     0.992726113282     1.007825032230
         H            0.854928950630    -1.074387324187    -0.833474886718     1.007825032230
         H            3.794684950630     0.314365675813     1.564685113282     1.007825032230

  Basis Set: AUG-CC-PVTZ
    Blend: AUG-CC-PVTZ
  Basis Set: (AUG-CC-PVTZ AUX)
    Blend: AUG-CC-PVTZ-JKFIT
	 Reference Energy          =   -1135.8227139834609716 [Eh]
	 Singles Energy            =      -0.0000000000000000 [Eh]
	 Same-Spin Energy          =      -0.8162648636384255 [Eh]
	 Opposite-Spin Energy      =      -2.4218285179054790 [Eh]
	 Correlation Energy        =      -3.2380933815439046 [Eh]
	 Total Energy              =   -1139.0608073650048482 [Eh]

	 ================> DF-SCS-MP2 Energies <==================
	-----------------------------------------------------------
	 SCS Same-Spin Scale       =       0.3333333333333333 [-]
	 SCS Opposite-Spin Scale   =       1.2000000000000000 [-]
	 SCS Same-Spin Energy      =      -0.2720882878794751 [Eh]
	 SCS Opposite-Spin Energy  =      -2.9061942214865746 [Eh]
	 SCS Correlation Energy    =      -3.1782825093660496 [Eh]
	 SCS Total Energy          =   -1139.0009964928269710 [Eh]
	-----------------------------------------------------------

  Dipole Moment: [D]
     X:    -3.4830      Y:     2.2973      Z:     4.0331     Total:     5.8030

*** Psi4 exiting successfully. Buy a developer a beer!
