                               Psi4 1.3.2 release

  ==> Input File <==

--------------------------------------------------------------------------
#psi4
#
memory 32 gb

molecule  {
0 1
  P        2.6114510     0.0433530    -0.1897960
  O       -0.6063573    -0.5214193    -0.8069093
  O       -3.1471200     1.7525200     0.1857420
  O       -3.5574290    -0.5524670    -0.9560380
  O       -0.9262260    -1.6975490     1.1507850
  O        1.5012860     1.2233130    -0.3203930
  O        1.7414800    -1.2994450    -0.3567160
  O        2.9590140    -0.0653000     1.3909990
  O        3.7753660     0.2843820    -1.0654240
  C       -2.1786680     0.7692630     0.5423480
  C       -0.8949230     0.8134730    -0.3165700
  C       -2.7827930    -0.6059770     0.2231310
  C       -1.5369320    -1.4089660    -0.0835960
  C        0.3225300     1.1924080     0.5079200
  H       -1.9376650     0.8286140     1.6117160
  H       -1.0169450     1.4955040    -1.1629930
  H       -3.3413290    -1.0227480     1.0706890
  H       -1.7077950    -2.2947630    -0.7028010
  H        0.4416350     0.4968690     1.3430810
  H        0.1975530     2.2044650     0.9092850
  H       -2.8909940     2.6048820     0.5755830
  H       -4.0423210     0.2940670    -0.9260900
  H       -0.0419210    -2.0739930     0.9730340
  H        0.9072950    -1.0817680    -0.8531670
  H        3.8470510     0.3069850     1.5449930
units angstrom
no_reorient  #important for SAPT in psi4, default
symmetry c1  #important for SAPT in psi4, default
}

set PROPERTIES_ORIGIN ["COM"]
properties('MP2/aug-cc-pvtz', properties = ['dipole'])
--------------------------------------------------------------------------

    Molecular point group: c1
  Charge       = 0
  Multiplicity = 1
  Basis Set: AUG-CC-PVTZ
    Blend: AUG-CC-PVTZ
  Basis Set: (AUG-CC-PVTZ AUX)
    Blend: AUG-CC-PVTZ-JKFIT

    Orbital Energies [Eh]
    ---------------------

    Doubly Occupied:

       1A    -80.110309     2A    -20.609526     3A    -20.607615
       4A    -20.603842     5A    -20.601680     6A    -20.593181
       7A    -20.587756     8A    -20.579803     9A    -20.510813
      10A    -11.369233    11A    -11.327354    12A    -11.319143
      13A    -11.317253    14A    -11.313856    15A     -7.625236
      16A     -5.523689    17A     -5.523547    18A     -5.522090
      19A     -1.460646    20A     -1.442978    21A     -1.414810
      22A     -1.387741    23A     -1.377226    24A     -1.372193
      25A     -1.363905    26A     -1.292090    27A     -1.085862
      28A     -1.048413    29A     -0.943437    30A     -0.861612
      31A     -0.840186    32A     -0.830759    33A     -0.772076
      34A     -0.760246    35A     -0.747808    36A     -0.732859
      37A     -0.712820    38A     -0.689848    39A     -0.683899
      40A     -0.668497    41A     -0.651585    42A     -0.647284
      43A     -0.636032    44A     -0.609188    45A     -0.602971
      46A     -0.592512    47A     -0.578292    48A     -0.577006
      49A     -0.570494    50A     -0.560403    51A     -0.539169
      52A     -0.530483    53A     -0.523931    54A     -0.513857
      55A     -0.492633    56A     -0.489481    57A     -0.472183
      58A     -0.468085    59A     -0.463464    60A     -0.451079

  @DF-RHF Final Energy: -1135.81440750033494

   => Energetics <=

    Nuclear Repulsion Energy =           1217.3926167100660223
    One-Electron Energy =               -3988.2021123888803231
    Two-Electron Energy =                1634.9950881784795911
    Total Energy =                      -1135.8144075003349371
  Basis Set: (AUG-CC-PVTZ AUX)
    Blend: AUG-CC-PVTZ-RI
    Molecular point group: c1

    Geometry (in Angstrom), charge = 0, multiplicity = 1:

       Center              X                  Y                   Z               Mass
    ------------   -----------------  -----------------  -----------------  -----------------
         P            2.549682413771     0.051064972448    -0.174903400945    30.973761998420
         O           -0.668125886229    -0.513707327552    -0.792016700945    15.994914619570
         O           -3.208888586229     1.760231972448     0.200634599055    15.994914619570
         O           -3.619197586229    -0.544755027552    -0.941145400945    15.994914619570
         O           -0.987994586229    -1.689837027552     1.165677599055    15.994914619570
         O            1.439517413771     1.231024972448    -0.305500400945    15.994914619570
         O            1.679711413771    -1.291733027552    -0.341823400945    15.994914619570
         O            2.897245413771    -0.057588027552     1.405891599055    15.994914619570
         O            3.713597413771     0.292093972448    -1.050531400945    15.994914619570
         C           -2.240436586229     0.776974972448     0.557240599055    12.000000000000
         C           -0.956691586229     0.821184972448    -0.301677400945    12.000000000000
         C           -2.844561586229    -0.598265027552     0.238023599055    12.000000000000
         C           -1.598700586229    -1.401254027552    -0.068703400945    12.000000000000
         C            0.260761413771     1.200119972448     0.522812599055    12.000000000000
         H           -1.999433586229     0.836325972448     1.626608599055     1.007825032230
         H           -1.078713586229     1.503215972448    -1.148100400945     1.007825032230
         H           -3.403097586229    -1.015036027552     1.085581599055     1.007825032230
         H           -1.769563586229    -2.287051027552    -0.687908400945     1.007825032230
         H            0.379866413771     0.504580972448     1.357973599055     1.007825032230
         H            0.135784413771     2.212176972448     0.924177599055     1.007825032230
         H           -2.952762586229     2.612593972448     0.590475599055     1.007825032230
         H           -4.104089586229     0.301778972448    -0.911197400945     1.007825032230
         H           -0.103689586229    -2.066281027552     0.987926599055     1.007825032230
         H            0.845526413771    -1.074056027552    -0.838274400945     1.007825032230
         H            3.785282413771     0.314696972448     1.559885599055     1.007825032230

  Basis Set: AUG-CC-PVTZ
    Blend: AUG-CC-PVTZ
  Basis Set: (AUG-CC-PVTZ AUX)
    Blend: AUG-CC-PVTZ-JKFIT
	 Reference Energy          =   -1135.8144075003349371 [Eh]
	 Singles Energy            =      -0.0000000000000000 [Eh]
	 Same-Spin Energy          =      -0.8168524034684526 [Eh]
	 Opposite-Spin Energy      =      -2.4231052546608058 [Eh]
	 Correlation Energy        =      -3.2399576581292582 [Eh]
	 Total Energy              =   -1139.0543651584641793 [Eh]

	 ================> DF-SCS-MP2 Energies <==================
	-----------------------------------------------------------
	 SCS Same-Spin Scale       =       0.3333333333333333 [-]
	 SCS Opposite-Spin Scale   =       1.2000000000000000 [-]
	 SCS Same-Spin Energy      =      -0.2722841344894842 [Eh]
	 SCS Opposite-Spin Energy  =      -2.9077263055929667 [Eh]
	 SCS Correlation Energy    =      -3.1800104400824507 [Eh]
	 SCS Total Energy          =   -1138.9944179404174065 [Eh]
	-----------------------------------------------------------

  Dipole Moment: [D]
     X:    -4.0624      Y:     2.2616      Z:     3.9718     Total:     6.1150

*** Psi4 exiting successfully. Buy a developer a beer!
