                               Psi4 1.4a3.dev225

  ==> Input File <==

--------------------------------------------------------------------------
#psi4
#
memory 32 gb

molecule  {
0 1
  P        2.6113660     0.0433910    -0.1897900
  O       -0.7416560    -0.5164190    -0.8762010
  O       -3.1473860     1.7523070     0.1855430
  O       -3.5574330    -0.5529450    -0.9556820
  O       -0.9255690    -1.6972900     1.1506350
  O        1.5012550     1.2233910    -0.3202530
  O        1.7411940    -1.2993510    -0.3564950
  O        2.9591660    -0.0655390     1.3909200
  O        3.7751240     0.2843830    -1.0656400
  C       -2.1447263     0.7348468     0.5547716
  C       -0.8949630     0.8136090    -0.3166340
  C       -2.7825860    -0.6061320     0.2233240
  C       -1.5366410    -1.4089160    -0.0835620
  C        0.3224410     1.1924200     0.5080110
  H       -1.9377070     0.8289040     1.6116220
  H       -1.0168440     1.4957790    -1.1629650
  H       -3.3408870    -1.0228010     1.0710960
  H       -1.7074320    -2.2947510    -0.7027390
  H        0.4414920     0.4968360     1.3431340
  H        0.1974400     2.2044510     0.9094280
  H       -2.8916000     2.6047160     0.5754970
  H       -4.0429610     0.2932130    -0.9254450
  H       -0.0410590    -2.0731950     0.9726900
  H        0.9073710    -1.0816890    -0.8535130
  H        3.8468470     0.3075270     1.5450430
units angstrom
no_reorient  #important for SAPT in psi4, default
symmetry c1  #important for SAPT in psi4, default
}

set PROPERTIES_ORIGIN ["COM"]
properties('MP2/aug-cc-pvtz', properties = ['dipole'])
--------------------------------------------------------------------------

    Molecular point group: c1
  Charge       = 0
  Multiplicity = 1
  Basis Set: AUG-CC-PVTZ
    Blend: AUG-CC-PVTZ
  Basis Set: (AUG-CC-PVTZ AUX)
    Blend: AUG-CC-PVTZ-JKFIT

    Orbital Energies [Eh]
    ---------------------

    Doubly Occupied:

       1A    -80.115615     2A    -20.611814     3A    -20.605945
       4A    -20.604257     5A    -20.600548     6A    -20.599163
       7A    -20.595943     8A    -20.575785     9A    -20.515173
      10A    -11.362861    11A    -11.323428    12A    -11.322325
      13A    -11.319625    14A    -11.308145    15A     -7.630566
      16A     -5.528987    17A     -5.528904    18A     -5.527402
      19A     -1.464376    20A     -1.449143    21A     -1.399007
      22A     -1.391457    23A     -1.378842    24A     -1.371037
      25A     -1.367052    26A     -1.296510    27A     -1.090359
      28A     -1.050299    29A     -0.947743    30A     -0.858052
      31A     -0.842817    32A     -0.830735    33A     -0.771253
      34A     -0.759725    35A     -0.745664    36A     -0.734577
      37A     -0.716749    38A     -0.693817    39A     -0.682155
      40A     -0.665937    41A     -0.653733    42A     -0.648273
      43A     -0.631160    44A     -0.613377    45A     -0.599730
      46A     -0.595508    47A     -0.582569    48A     -0.577247
      49A     -0.563813    50A     -0.559334    51A     -0.544096
      52A     -0.533506    53A     -0.527703    54A     -0.514951
      55A     -0.493285    56A     -0.491064    57A     -0.475759
      58A     -0.470368    59A     -0.467473    60A     -0.453215

  @DF-RHF Final Energy: -1135.81920550006657

   => Energetics <=

    Nuclear Repulsion Energy =           1216.3647825325997474
    One-Electron Energy =               -3986.0080620193539289
    Two-Electron Energy =                1633.8240739866876083
    Total Energy =                      -1135.8192055000665732
  Basis Set: (AUG-CC-PVTZ AUX)
    Blend: AUG-CC-PVTZ-RI
    Molecular point group: c1

    Geometry (in Angstrom), charge = 0, multiplicity = 1:

       Center              X                  Y                   Z               Mass
    ------------   -----------------  -----------------  -----------------  -----------------
         P            2.557228163813     0.052574174441    -0.170748580802    30.973761998420
         O           -0.795793836187    -0.507235825559    -0.857159580802    15.994914619570
         O           -3.201523836187     1.761490174441     0.204584419198    15.994914619570
         O           -3.611570836187    -0.543761825559    -0.936640580802    15.994914619570
         O           -0.979706836187    -1.688106825559     1.169676419198    15.994914619570
         O            1.447117163813     1.232574174441    -0.301211580802    15.994914619570
         O            1.687056163813    -1.290167825559    -0.337453580802    15.994914619570
         O            2.905028163813    -0.056355825559     1.409961419198    15.994914619570
         O            3.720986163813     0.293566174441    -1.046598580802    15.994914619570
         C           -2.198864136187     0.744029974441     0.573813019198    12.000000000000
         C           -0.949100836187     0.822792174441    -0.297592580802    12.000000000000
         C           -2.836723836187    -0.596948825559     0.242365419198    12.000000000000
         C           -1.590778836187    -1.399732825559    -0.064520580802    12.000000000000
         C            0.268303163813     1.201603174441     0.527052419198    12.000000000000
         H           -1.991844836187     0.838087174441     1.630663419198     1.007825032230
         H           -1.070981836187     1.504962174441    -1.143923580802     1.007825032230
         H           -3.395024836187    -1.013617825559     1.090137419198     1.007825032230
         H           -1.761569836187    -2.285567825559    -0.683697580802     1.007825032230
         H            0.387354163813     0.506019174441     1.362175419198     1.007825032230
         H            0.143302163813     2.213634174441     0.928469419198     1.007825032230
         H           -2.945737836187     2.613899174441     0.594538419198     1.007825032230
         H           -4.097098836187     0.302396174441    -0.906403580802     1.007825032230
         H           -0.095196836187    -2.064011825559     0.991731419198     1.007825032230
         H            0.853233163813    -1.072505825559    -0.834471580802     1.007825032230
         H            3.792709163813     0.316710174441     1.564084419198     1.007825032230

  Basis Set: AUG-CC-PVTZ
    Blend: AUG-CC-PVTZ
  Basis Set: (AUG-CC-PVTZ AUX)
    Blend: AUG-CC-PVTZ-JKFIT
	 Reference Energy          =   -1135.8192055000665732 [Eh]
	 Singles Energy            =      -0.0000000000000000 [Eh]
	 Same-Spin Energy          =      -0.8165911928057101 [Eh]
	 Opposite-Spin Energy      =      -2.4228000713447733 [Eh]
	 Correlation Energy        =      -3.2393912641504832 [Eh]
	 Total Energy              =   -1139.0585967642170999 [Eh]

	 ================> DF-SCS-MP2 Energies <==================
	-----------------------------------------------------------
	 SCS Same-Spin Scale       =       0.3333333333333333 [-]
	 SCS Opposite-Spin Scale   =       1.2000000000000000 [-]
	 SCS Same-Spin Energy      =      -0.2721970642685700 [Eh]
	 SCS Opposite-Spin Energy  =      -2.9073600856137278 [Eh]
	 SCS Correlation Energy    =      -3.1795571498822977 [Eh]
	 SCS Total Energy          =   -1138.9987626499489579 [Eh]
	-----------------------------------------------------------

  Dipole Moment: [D]
     X:    -3.3479      Y:     2.1748      Z:     4.0462     Total:     5.6842

*** Psi4 exiting successfully. Buy a developer a beer!
