                               Psi4 1.3.2 release

  ==> Input File <==

--------------------------------------------------------------------------
#psi4
#
memory 32 gb

molecule  {
0 1
  P        2.6114510     0.0433530    -0.1897960
  O       -0.7415730    -0.5166550    -0.8759300
  O       -3.1471200     1.7525200     0.1857420
  O       -3.5574290    -0.5524670    -0.9560380
  O       -0.9262260    -1.6975490     1.1507850
  O        1.5012860     1.2233130    -0.3203930
  O        1.7414800    -1.2994450    -0.3567160
  O        2.9590140    -0.0653000     1.3909990
  O        3.7753660     0.2843820    -1.0654240
  C       -2.1786680     0.7692630     0.5423480
  C       -0.8949230     0.8134730    -0.3165700
  C       -2.7827930    -0.6059770     0.2231310
  C       -1.5369320    -1.4089660    -0.0835960
  C        0.1589292     1.1881187     0.6228825
  H       -1.9376650     0.8286140     1.6117160
  H       -1.0169450     1.4955040    -1.1629930
  H       -3.3413290    -1.0227480     1.0706890
  H       -1.7077950    -2.2947630    -0.7028010
  H        0.4416350     0.4968690     1.3430810
  H        0.1975530     2.2044650     0.9092850
  H       -2.8909940     2.6048820     0.5755830
  H       -4.0423210     0.2940670    -0.9260900
  H       -0.0419210    -2.0739930     0.9730340
  H        0.9072950    -1.0817680    -0.8531670
  H        3.8470510     0.3069850     1.5449930
units angstrom
no_reorient  #important for SAPT in psi4, default
symmetry c1  #important for SAPT in psi4, default
}

set PROPERTIES_ORIGIN ["COM"]
properties('MP2/aug-cc-pvtz', properties = ['dipole'])
--------------------------------------------------------------------------

    Molecular point group: c1
  Charge       = 0
  Multiplicity = 1
  Basis Set: AUG-CC-PVTZ
    Blend: AUG-CC-PVTZ
  Basis Set: (AUG-CC-PVTZ AUX)
    Blend: AUG-CC-PVTZ-JKFIT

    Orbital Energies [Eh]
    ---------------------

    Doubly Occupied:

       1A    -80.100251     2A    -20.611813     3A    -20.610384
       4A    -20.602684     5A    -20.598689     6A    -20.590203
       7A    -20.579331     8A    -20.578997     9A    -20.503268
      10A    -11.366447    11A    -11.332373    12A    -11.329161
      13A    -11.326273    14A    -11.311743    15A     -7.615244
      16A     -5.513751    17A     -5.513480    18A     -5.512128
      19A     -1.463870    20A     -1.434035    21A     -1.416735
      22A     -1.379128    23A     -1.376996    24A     -1.370483
      25A     -1.338118    26A     -1.282437    27A     -1.107898
      28A     -1.054760    29A     -0.952631    30A     -0.859334
      31A     -0.842369    32A     -0.830646    33A     -0.774150
      34A     -0.760588    35A     -0.747274    36A     -0.729757
      37A     -0.706555    38A     -0.696237    39A     -0.684391
      40A     -0.671693    41A     -0.648014    42A     -0.640210
      43A     -0.623175    44A     -0.616826    45A     -0.607138
      46A     -0.596777    47A     -0.582128    48A     -0.578070
      49A     -0.569050    50A     -0.562300    51A     -0.530979
      52A     -0.527994    53A     -0.515107    54A     -0.513338
      55A     -0.499948    56A     -0.494554    57A     -0.480093
      58A     -0.466017    59A     -0.455864    60A     -0.445153

  @DF-RHF Final Energy: -1135.79261993848854

   => Energetics <=

    Nuclear Repulsion Energy =           1214.1880551514250328
    One-Electron Energy =               -3981.9032684626968148
    Two-Electron Energy =                1631.9225933727832398
    Total Energy =                      -1135.7926199384885422
  Basis Set: (AUG-CC-PVTZ AUX)
    Blend: AUG-CC-PVTZ-RI
    Molecular point group: c1

    Geometry (in Angstrom), charge = 0, multiplicity = 1:

       Center              X                  Y                   Z               Mass
    ------------   -----------------  -----------------  -----------------  -----------------
         P            2.567619933753     0.050957446743    -0.176101430723    30.973761998420
         O           -0.785404066247    -0.509050553257    -0.862235430723    15.994914619570
         O           -3.190951066247     1.760124446743     0.199436569277    15.994914619570
         O           -3.601260066247    -0.544862553257    -0.942343430723    15.994914619570
         O           -0.970057066247    -1.689944553257     1.164479569277    15.994914619570
         O            1.457454933753     1.230917446743    -0.306698430723    15.994914619570
         O            1.697648933753    -1.291840553257    -0.343021430723    15.994914619570
         O            2.915182933753    -0.057695553257     1.404693569277    15.994914619570
         O            3.731534933753     0.291986446743    -1.051729430723    15.994914619570
         C           -2.222499066247     0.776867446743     0.556042569277    12.000000000000
         C           -0.938754066247     0.821077446743    -0.302875430723    12.000000000000
         C           -2.826624066247    -0.598372553257     0.236825569277    12.000000000000
         C           -1.580763066247    -1.401361553257    -0.069901430723    12.000000000000
         C            0.115098133753     1.195723146743     0.636577069277    12.000000000000
         H           -1.981496066247     0.836218446743     1.625410569277     1.007825032230
         H           -1.060776066247     1.503108446743    -1.149298430723     1.007825032230
         H           -3.385160066247    -1.015143553257     1.084383569277     1.007825032230
         H           -1.751626066247    -2.287158553257    -0.689106430723     1.007825032230
         H            0.397803933753     0.504473446743     1.356775569277     1.007825032230
         H            0.153721933753     2.212069446743     0.922979569277     1.007825032230
         H           -2.934825066247     2.612486446743     0.589277569277     1.007825032230
         H           -4.086152066247     0.301671446743    -0.912395430723     1.007825032230
         H           -0.085752066247    -2.066388553257     0.986728569277     1.007825032230
         H            0.863463933753    -1.074163553257    -0.839472430723     1.007825032230
         H            3.803219933753     0.314589446743     1.558687569277     1.007825032230

  Basis Set: AUG-CC-PVTZ
    Blend: AUG-CC-PVTZ
  Basis Set: (AUG-CC-PVTZ AUX)
    Blend: AUG-CC-PVTZ-JKFIT
	 Reference Energy          =   -1135.7926199384885422 [Eh]
	 Singles Energy            =      -0.0000000000000000 [Eh]
	 Same-Spin Energy          =      -0.8177332878260966 [Eh]
	 Opposite-Spin Energy      =      -2.4255808494920936 [Eh]
	 Correlation Energy        =      -3.2433141373181904 [Eh]
	 Total Energy              =   -1139.0359340758068356 [Eh]

	 ================> DF-SCS-MP2 Energies <==================
	-----------------------------------------------------------
	 SCS Same-Spin Scale       =       0.3333333333333333 [-]
	 SCS Opposite-Spin Scale   =       1.2000000000000000 [-]
	 SCS Same-Spin Energy      =      -0.2725777626086988 [Eh]
	 SCS Opposite-Spin Energy  =      -2.9106970193905122 [Eh]
	 SCS Correlation Energy    =      -3.1832747819992111 [Eh]
	 SCS Total Energy          =   -1138.9758947204877586 [Eh]
	-----------------------------------------------------------

  Dipole Moment: [D]
     X:    -4.3559      Y:     2.3863      Z:     4.2944     Total:     6.5658

*** Psi4 exiting successfully. Buy a developer a beer!
