                               Psi4 1.3.2 release

  ==> Input File <==

--------------------------------------------------------------------------
#psi4
#
memory 32 gb

molecule  {
0 1
  P        2.6114510     0.0433530    -0.1897960
  O       -0.7415730    -0.5166550    -0.8759300
  O       -3.1471200     1.7525200     0.1857420
  O       -3.5574290    -0.5524670    -0.9560380
  O       -0.8223588    -1.7683746     1.0740520
  O        1.5012860     1.2233130    -0.3203930
  O        1.7414800    -1.2994450    -0.3567160
  O        2.9590140    -0.0653000     1.3909990
  O        3.7753660     0.2843820    -1.0654240
  C       -2.1786680     0.7692630     0.5423480
  C       -0.8949230     0.8134730    -0.3165700
  C       -2.7827930    -0.6059770     0.2231310
  C       -1.5369320    -1.4089660    -0.0835960
  C        0.3225300     1.1924080     0.5079200
  H       -1.9376650     0.8286140     1.6117160
  H       -1.0169450     1.4955040    -1.1629930
  H       -3.3413290    -1.0227480     1.0706890
  H       -1.7077950    -2.2947630    -0.7028010
  H        0.4416350     0.4968690     1.3430810
  H        0.1975530     2.2044650     0.9092850
  H       -2.8909940     2.6048820     0.5755830
  H       -4.0423210     0.2940670    -0.9260900
  H       -0.0419210    -2.0739930     0.9730340
  H        0.9072950    -1.0817680    -0.8531670
  H        3.8470510     0.3069850     1.5449930
units angstrom
no_reorient  #important for SAPT in psi4, default
symmetry c1  #important for SAPT in psi4, default
}

set PROPERTIES_ORIGIN ["COM"]
properties('MP2/aug-cc-pvtz', properties = ['dipole'])
--------------------------------------------------------------------------

    Molecular point group: c1
  Charge       = 0
  Multiplicity = 1
  Basis Set: AUG-CC-PVTZ
    Blend: AUG-CC-PVTZ
  Basis Set: (AUG-CC-PVTZ AUX)
    Blend: AUG-CC-PVTZ-JKFIT

    Orbital Energies [Eh]
    ---------------------

    Doubly Occupied:

       1A    -80.113768     2A    -20.610256     3A    -20.608159
       4A    -20.604649     5A    -20.601688     6A    -20.596044
       7A    -20.579174     8A    -20.575373     9A    -20.513596
      10A    -11.366422    11A    -11.325719    12A    -11.321451
      13A    -11.318656    14A    -11.313328    15A     -7.628717
      16A     -5.527150    17A     -5.527043    18A     -5.525557
      19A     -1.467939    20A     -1.450215    21A     -1.416841
      22A     -1.392717    23A     -1.383644    24A     -1.376501
      25A     -1.373391    26A     -1.294960    27A     -1.085571
      28A     -1.054716    29A     -0.953300    30A     -0.862132
      31A     -0.843272    32A     -0.836031    33A     -0.785141
      34A     -0.767861    35A     -0.748606    36A     -0.735656
      37A     -0.715864    38A     -0.692660    39A     -0.688597
      40A     -0.671209    41A     -0.653564    42A     -0.645495
      43A     -0.634919    44A     -0.616133    45A     -0.601084
      46A     -0.598712    47A     -0.580710    48A     -0.577737
      49A     -0.570623    50A     -0.561791    51A     -0.541780
      52A     -0.532163    53A     -0.527025    54A     -0.513527
      55A     -0.490089    56A     -0.485745    57A     -0.474782
      58A     -0.470776    59A     -0.466101    60A     -0.451644

  @DF-RHF Final Energy: -1135.80745536587187

   => Energetics <=

    Nuclear Repulsion Energy =           1216.6566731653570059
    One-Electron Energy =               -3986.4323171428463866
    Two-Electron Energy =                1633.9681886116175065
    Total Energy =                      -1135.8074553658718742
  Basis Set: (AUG-CC-PVTZ AUX)
    Blend: AUG-CC-PVTZ-RI
    Molecular point group: c1

    Geometry (in Angstrom), charge = 0, multiplicity = 1:

       Center              X                  Y                   Z               Mass
    ------------   -----------------  -----------------  -----------------  -----------------
         P            2.551862304322     0.055658697942    -0.164768079850    30.973761998420
         O           -0.801161695678    -0.504349302058    -0.850902079850    15.994914619570
         O           -3.206708695678     1.764825697942     0.210769920150    15.994914619570
         O           -3.617017695678    -0.540161302058    -0.931010079850    15.994914619570
         O           -0.881947495678    -1.756068902058     1.099079920150    15.994914619570
         O            1.441697304322     1.235618697942    -0.295365079850    15.994914619570
         O            1.681891304322    -1.287139302058    -0.331688079850    15.994914619570
         O            2.899425304322    -0.052994302058     1.416026920150    15.994914619570
         O            3.715777304322     0.296687697942    -1.040396079850    15.994914619570
         C           -2.238256695678     0.781568697942     0.567375920150    12.000000000000
         C           -0.954511695678     0.825778697942    -0.291542079850    12.000000000000
         C           -2.842381695678    -0.593671302058     0.248158920150    12.000000000000
         C           -1.596520695678    -1.396660302058    -0.058568079850    12.000000000000
         C            0.262941304322     1.204713697942     0.532947920150    12.000000000000
         H           -1.997253695678     0.840919697942     1.636743920150     1.007825032230
         H           -1.076533695678     1.507809697942    -1.137965079850     1.007825032230
         H           -3.400917695678    -1.010442302058     1.095716920150     1.007825032230
         H           -1.767383695678    -2.282457302058    -0.677773079850     1.007825032230
         H            0.382046304322     0.509174697942     1.368108920150     1.007825032230
         H            0.137964304322     2.216770697942     0.934312920150     1.007825032230
         H           -2.950582695678     2.617187697942     0.600610920150     1.007825032230
         H           -4.101909695678     0.306372697942    -0.901062079850     1.007825032230
         H           -0.101509695678    -2.061687302058     0.998061920150     1.007825032230
         H            0.847706304322    -1.069462302058    -0.828139079850     1.007825032230
         H            3.787462304322     0.319290697942     1.570020920150     1.007825032230

  Basis Set: AUG-CC-PVTZ
    Blend: AUG-CC-PVTZ
  Basis Set: (AUG-CC-PVTZ AUX)
    Blend: AUG-CC-PVTZ-JKFIT
	 Reference Energy          =   -1135.8074553658718742 [Eh]
	 Singles Energy            =      -0.0000000000000000 [Eh]
	 Same-Spin Energy          =      -0.8140968566032180 [Eh]
	 Opposite-Spin Energy      =      -2.4171226531068335 [Eh]
	 Correlation Energy        =      -3.2312195097100513 [Eh]
	 Total Energy              =   -1139.0386748755818189 [Eh]

	 ================> DF-SCS-MP2 Energies <==================
	-----------------------------------------------------------
	 SCS Same-Spin Scale       =       0.3333333333333333 [-]
	 SCS Opposite-Spin Scale   =       1.2000000000000000 [-]
	 SCS Same-Spin Energy      =      -0.2713656188677393 [Eh]
	 SCS Opposite-Spin Energy  =      -2.9005471837282002 [Eh]
	 SCS Correlation Energy    =      -3.1719128025959393 [Eh]
	 SCS Total Energy          =   -1138.9793681684677722 [Eh]
	-----------------------------------------------------------

  Dipole Moment: [D]
     X:    -3.7598      Y:     2.4662      Z:     4.0687     Total:     6.0640

*** Psi4 exiting successfully. Buy a developer a beer!
