                               Psi4 1.4a3.dev225

  ==> Input File <==

--------------------------------------------------------------------------
#psi4
#
memory 32 gb

molecule  {
0 1
  P        2.6113660     0.0433910    -0.1897900
  O       -0.7416560    -0.5164190    -0.8762010
  O       -3.1473860     1.7523070     0.1855430
  O       -3.5574330    -0.5529450    -0.9556820
  O       -0.9255690    -1.6972900     1.1506350
  O        1.5012550     1.2233910    -0.3202530
  O        1.7411940    -1.2993510    -0.3564950
  O        2.9591660    -0.0655390     1.3909200
  O        3.7751240     0.2843830    -1.0656400
  C       -2.1787050     0.7693270     0.5422590
  C       -0.8949630     0.8136090    -0.3166340
  C       -2.7825860    -0.6061320     0.2233240
  C       -1.5453268    -1.4048170    -0.1011050
  C        0.3224410     1.1924200     0.5080110
  H       -1.9377070     0.8289040     1.6116220
  H       -1.0168440     1.4957790    -1.1629650
  H       -3.3408870    -1.0228010     1.0710960
  H       -1.7074320    -2.2947510    -0.7027390
  H        0.4414920     0.4968360     1.3431340
  H        0.1974400     2.2044510     0.9094280
  H       -2.8916000     2.6047160     0.5754970
  H       -4.0429610     0.2932130    -0.9254450
  H       -0.0410590    -2.0731950     0.9726900
  H        0.9073710    -1.0816890    -0.8535130
  H        3.8468470     0.3075270     1.5450430
units angstrom
no_reorient  #important for SAPT in psi4, default
symmetry c1  #important for SAPT in psi4, default
}

set PROPERTIES_ORIGIN ["COM"]
properties('MP2/aug-cc-pvtz', properties = ['dipole'])
--------------------------------------------------------------------------

    Molecular point group: c1
  Charge       = 0
  Multiplicity = 1
  Basis Set: AUG-CC-PVTZ
    Blend: AUG-CC-PVTZ
  Basis Set: (AUG-CC-PVTZ AUX)
    Blend: AUG-CC-PVTZ-JKFIT

    Orbital Energies [Eh]
    ---------------------

    Doubly Occupied:

       1A    -80.114917     2A    -20.611095     3A    -20.606654
       4A    -20.605202     5A    -20.605004     6A    -20.598377
       7A    -20.591353     8A    -20.575125     9A    -20.514588
      10A    -11.362052    11A    -11.323831    12A    -11.321455
      13A    -11.319028    14A    -11.307491    15A     -7.629868
      16A     -5.528289    17A     -5.528205    18A     -5.526705
      19A     -1.463012    20A     -1.447809    21A     -1.411217
      22A     -1.390308    23A     -1.378084    24A     -1.372869
      25A     -1.365528    26A     -1.295931    27A     -1.085051
      28A     -1.048090    29A     -0.947542    30A     -0.858018
      31A     -0.842854    32A     -0.829475    33A     -0.771558
      34A     -0.757144    35A     -0.748204    36A     -0.734734
      37A     -0.716700    38A     -0.692256    39A     -0.683946
      40A     -0.666688    41A     -0.653119    42A     -0.647458
      43A     -0.632984    44A     -0.611379    45A     -0.600907
      46A     -0.596156    47A     -0.582171    48A     -0.577665
      49A     -0.569509    50A     -0.560815    51A     -0.543045
      52A     -0.531790    53A     -0.526595    54A     -0.512461
      55A     -0.491774    56A     -0.488911    57A     -0.475083
      58A     -0.469533    59A     -0.465939    60A     -0.451057

  @DF-RHF Final Energy: -1135.82231087181594

   => Energetics <=

    Nuclear Repulsion Energy =           1215.8667482898645176
    One-Electron Energy =               -3985.0489007551368559
    Two-Electron Energy =                1633.3598415934563945
    Total Energy =                      -1135.8223108718159438
  Basis Set: (AUG-CC-PVTZ AUX)
    Blend: AUG-CC-PVTZ-RI
    Molecular point group: c1

    Geometry (in Angstrom), charge = 0, multiplicity = 1:

       Center              X                  Y                   Z               Mass
    ------------   -----------------  -----------------  -----------------  -----------------
         P            2.559453952364     0.050561514228    -0.169180593122    30.973761998420
         O           -0.793568047636    -0.509248485772    -0.855591593122    15.994914619570
         O           -3.199298047636     1.759477514228     0.206152406878    15.994914619570
         O           -3.609345047636    -0.545774485772    -0.935072593122    15.994914619570
         O           -0.977481047636    -1.690119485772     1.171244406878    15.994914619570
         O            1.449342952364     1.230561514228    -0.299643593122    15.994914619570
         O            1.689281952364    -1.292180485772    -0.335885593122    15.994914619570
         O            2.907253952364    -0.058368485772     1.411529406878    15.994914619570
         O            3.723211952364     0.291553514228    -1.045030593122    15.994914619570
         C           -2.230617047636     0.776497514228     0.562868406878    12.000000000000
         C           -0.946875047636     0.820779514228    -0.296024593122    12.000000000000
         C           -2.834498047636    -0.598961485772     0.243933406878    12.000000000000
         C           -1.597238847636    -1.397646485772    -0.080495593122    12.000000000000
         C            0.270528952364     1.199590514228     0.528620406878    12.000000000000
         H           -1.989619047636     0.836074514228     1.632231406878     1.007825032230
         H           -1.068756047636     1.502949514228    -1.142355593122     1.007825032230
         H           -3.392799047636    -1.015630485772     1.091705406878     1.007825032230
         H           -1.759344047636    -2.287580485772    -0.682129593122     1.007825032230
         H            0.389579952364     0.504006514228     1.363743406878     1.007825032230
         H            0.145527952364     2.211621514228     0.930037406878     1.007825032230
         H           -2.943512047636     2.611886514228     0.596106406878     1.007825032230
         H           -4.094873047636     0.300383514228    -0.904835593122     1.007825032230
         H           -0.092971047636    -2.066024485772     0.993299406878     1.007825032230
         H            0.855458952364    -1.074518485772    -0.832903593122     1.007825032230
         H            3.794934952364     0.314697514228     1.565652406878     1.007825032230

  Basis Set: AUG-CC-PVTZ
    Blend: AUG-CC-PVTZ
  Basis Set: (AUG-CC-PVTZ AUX)
    Blend: AUG-CC-PVTZ-JKFIT
	 Reference Energy          =   -1135.8223108718159438 [Eh]
	 Singles Energy            =      -0.0000000000000000 [Eh]
	 Same-Spin Energy          =      -0.8162223989796593 [Eh]
	 Opposite-Spin Energy      =      -2.4219542066353870 [Eh]
	 Correlation Energy        =      -3.2381766056150463 [Eh]
	 Total Energy              =   -1139.0604874774310247 [Eh]

	 ================> DF-SCS-MP2 Energies <==================
	-----------------------------------------------------------
	 SCS Same-Spin Scale       =       0.3333333333333333 [-]
	 SCS Opposite-Spin Scale   =       1.2000000000000000 [-]
	 SCS Same-Spin Energy      =      -0.2720741329932198 [Eh]
	 SCS Opposite-Spin Energy  =      -2.9063450479624642 [Eh]
	 SCS Correlation Energy    =      -3.1784191809556841 [Eh]
	 SCS Total Energy          =   -1139.0007300527715870 [Eh]
	-----------------------------------------------------------

  Dipole Moment: [D]
     X:    -3.5177      Y:     2.3469      Z:     3.9588     Total:     5.7926

*** Psi4 exiting successfully. Buy a developer a beer!
