                               Psi4 1.4a3.dev225

  ==> Input File <==

--------------------------------------------------------------------------
#psi4
#
memory 32 gb

molecule  {
0 1
  P        2.6113660     0.0433910    -0.1897900
  O       -0.7416560    -0.5164190    -0.8762010
  O       -3.1473860     1.7523070     0.1855430
  O       -3.5574330    -0.5529450    -0.9556820
  O       -0.9255690    -1.6972900     1.1506350
  O        1.5012550     1.2233910    -0.3202530
  O        1.7411940    -1.2993510    -0.3564950
  O        2.9591660    -0.0655390     1.3909200
  O        3.7751240     0.2843830    -1.0656400
  C       -2.1922965     0.7831191     0.5372540
  C       -0.8949630     0.8136090    -0.3166340
  C       -2.7825860    -0.6061320     0.2233240
  C       -1.5366410    -1.4089160    -0.0835620
  C        0.3224410     1.1924200     0.5080110
  H       -1.9377070     0.8289040     1.6116220
  H       -1.0168440     1.4957790    -1.1629650
  H       -3.3408870    -1.0228010     1.0710960
  H       -1.7074320    -2.2947510    -0.7027390
  H        0.4414920     0.4968360     1.3431340
  H        0.1974400     2.2044510     0.9094280
  H       -2.8916000     2.6047160     0.5754970
  H       -4.0429610     0.2932130    -0.9254450
  H       -0.0410590    -2.0731950     0.9726900
  H        0.9073710    -1.0816890    -0.8535130
  H        3.8468470     0.3075270     1.5450430
units angstrom
no_reorient  #important for SAPT in psi4, default
symmetry c1  #important for SAPT in psi4, default
}

set PROPERTIES_ORIGIN ["COM"]
properties('MP2/aug-cc-pvtz', properties = ['dipole'])
--------------------------------------------------------------------------

    Molecular point group: c1
  Charge       = 0
  Multiplicity = 1
  Basis Set: AUG-CC-PVTZ
    Blend: AUG-CC-PVTZ
  Basis Set: (AUG-CC-PVTZ AUX)
    Blend: AUG-CC-PVTZ-JKFIT

    Orbital Energies [Eh]
    ---------------------

    Doubly Occupied:

       1A    -80.114711     2A    -20.610982     3A    -20.608447
       4A    -20.604763     5A    -20.603159     6A    -20.598225
       7A    -20.594369     8A    -20.574470     9A    -20.514401
      10A    -11.361951    11A    -11.323482    12A    -11.320833
      13A    -11.317602    14A    -11.306902    15A     -7.629662
      16A     -5.528081    17A     -5.528000    18A     -5.526500
      19A     -1.462772    20A     -1.448068    21A     -1.417810
      22A     -1.390380    23A     -1.377987    24A     -1.374687
      25A     -1.368302    26A     -1.295734    27A     -1.081740
      28A     -1.045599    29A     -0.946333    30A     -0.857964
      31A     -0.841654    32A     -0.828661    33A     -0.772534
      34A     -0.759711    35A     -0.748518    36A     -0.733840
      37A     -0.716744    38A     -0.692378    39A     -0.685670
      40A     -0.667540    41A     -0.652885    42A     -0.647500
      43A     -0.633858    44A     -0.613995    45A     -0.601927
      46A     -0.596474    47A     -0.581854    48A     -0.578462
      49A     -0.571005    50A     -0.559998    51A     -0.543106
      52A     -0.531712    53A     -0.526737    54A     -0.510484
      55A     -0.489526    56A     -0.486024    57A     -0.474810
      58A     -0.468896    59A     -0.465043    60A     -0.448983

  @DF-RHF Final Energy: -1135.82274751408363

   => Energetics <=

    Nuclear Repulsion Energy =           1215.7790817987668106
    One-Electron Energy =               -3984.8747654753310599
    Two-Electron Energy =                1633.2729361624808462
    Total Energy =                      -1135.8227475140836304
  Basis Set: (AUG-CC-PVTZ AUX)
    Blend: AUG-CC-PVTZ-RI
    Molecular point group: c1

    Geometry (in Angstrom), charge = 0, multiplicity = 1:

       Center              X                  Y                   Z               Mass
    ------------   -----------------  -----------------  -----------------  -----------------
         P            2.559709880615     0.050055829385    -0.169834695171    30.973761998420
         O           -0.793312119385    -0.509754170615    -0.856245695171    15.994914619570
         O           -3.199042119385     1.758971829385     0.205498304829    15.994914619570
         O           -3.609089119385    -0.546280170615    -0.935726695171    15.994914619570
         O           -0.977225119385    -1.690625170615     1.170590304829    15.994914619570
         O            1.449598880615     1.230055829385    -0.300297695171    15.994914619570
         O            1.689537880615    -1.292686170615    -0.336539695171    15.994914619570
         O            2.907509880615    -0.058874170615     1.410875304829    15.994914619570
         O            3.723467880615     0.291047829385    -1.045684695171    15.994914619570
         C           -2.243952619385     0.789783929385     0.557209304829    12.000000000000
         C           -0.946619119385     0.820273829385    -0.296678695171    12.000000000000
         C           -2.834242119385    -0.599467170615     0.243279304829    12.000000000000
         C           -1.588297119385    -1.402251170615    -0.063606695171    12.000000000000
         C            0.270784880615     1.199084829385     0.527966304829    12.000000000000
         H           -1.989363119385     0.835568829385     1.631577304829     1.007825032230
         H           -1.068500119385     1.502443829385    -1.143009695171     1.007825032230
         H           -3.392543119385    -1.016136170615     1.091051304829     1.007825032230
         H           -1.759088119385    -2.288086170615    -0.682783695171     1.007825032230
         H            0.389835880615     0.503500829385     1.363089304829     1.007825032230
         H            0.145783880615     2.211115829385     0.929383304829     1.007825032230
         H           -2.943256119385     2.611380829385     0.595452304829     1.007825032230
         H           -4.094617119385     0.299877829385    -0.905489695171     1.007825032230
         H           -0.092715119385    -2.066530170615     0.992645304829     1.007825032230
         H            0.855714880615    -1.075024170615    -0.833557695171     1.007825032230
         H            3.795190880615     0.314191829385     1.564998304829     1.007825032230

  Basis Set: AUG-CC-PVTZ
    Blend: AUG-CC-PVTZ
  Basis Set: (AUG-CC-PVTZ AUX)
    Blend: AUG-CC-PVTZ-JKFIT
	 Reference Energy          =   -1135.8227475140836304 [Eh]
	 Singles Energy            =      -0.0000000000000000 [Eh]
	 Same-Spin Energy          =      -0.8161947922545205 [Eh]
	 Opposite-Spin Energy      =      -2.4215401450729868 [Eh]
	 Correlation Energy        =      -3.2377349373275073 [Eh]
	 Total Energy              =   -1139.0604824514111897 [Eh]

	 ================> DF-SCS-MP2 Energies <==================
	-----------------------------------------------------------
	 SCS Same-Spin Scale       =       0.3333333333333333 [-]
	 SCS Opposite-Spin Scale   =       1.2000000000000000 [-]
	 SCS Same-Spin Energy      =      -0.2720649307515068 [Eh]
	 SCS Opposite-Spin Energy  =      -2.9058481740875841 [Eh]
	 SCS Correlation Energy    =      -3.1779131048390910 [Eh]
	 SCS Total Energy          =   -1139.0006606189226659 [Eh]
	-----------------------------------------------------------

  Dipole Moment: [D]
     X:    -3.5394      Y:     2.3507      Z:     4.0272     Total:     5.8542

*** Psi4 exiting successfully. Buy a developer a beer!
