                               Psi4 1.3.2 release

  ==> Input File <==

--------------------------------------------------------------------------
#psi4
#
memory 32 gb

molecule  {
0 1
  P        2.6114510     0.0433530    -0.1897960
  O       -0.7415730    -0.5166550    -0.8759300
  O       -3.1471200     1.7525200     0.1857420
  O       -3.5574290    -0.5524670    -0.9560380
  O       -0.9259307    -1.7922084     1.1246015
  O        1.5012860     1.2233130    -0.3203930
  O        1.7414800    -1.2994450    -0.3567160
  O        2.9590140    -0.0653000     1.3909990
  O        3.7753660     0.2843820    -1.0654240
  C       -2.1786680     0.7692630     0.5423480
  C       -0.8949230     0.8134730    -0.3165700
  C       -2.7827930    -0.6059770     0.2231310
  C       -1.5369320    -1.4089660    -0.0835960
  C        0.3225300     1.1924080     0.5079200
  H       -1.9376650     0.8286140     1.6117160
  H       -1.0169450     1.4955040    -1.1629930
  H       -3.3413290    -1.0227480     1.0706890
  H       -1.7077950    -2.2947630    -0.7028010
  H        0.4416350     0.4968690     1.3430810
  H        0.1975530     2.2044650     0.9092850
  H       -2.8909940     2.6048820     0.5755830
  H       -4.0423210     0.2940670    -0.9260900
  H       -0.0419210    -2.0739930     0.9730340
  H        0.9072950    -1.0817680    -0.8531670
  H        3.8470510     0.3069850     1.5449930
units angstrom
no_reorient  #important for SAPT in psi4, default
symmetry c1  #important for SAPT in psi4, default
}

set PROPERTIES_ORIGIN ["COM"]
properties('MP2/aug-cc-pvtz', properties = ['dipole'])
--------------------------------------------------------------------------

    Molecular point group: c1
  Charge       = 0
  Multiplicity = 1
  Basis Set: AUG-CC-PVTZ
    Blend: AUG-CC-PVTZ
  Basis Set: (AUG-CC-PVTZ AUX)
    Blend: AUG-CC-PVTZ-JKFIT

    Orbital Energies [Eh]
    ---------------------

    Doubly Occupied:

       1A    -80.115672     2A    -20.611881     3A    -20.607499
       4A    -20.606383     5A    -20.606000     6A    -20.599088
       7A    -20.589338     8A    -20.576014     9A    -20.515212
      10A    -11.362244    11A    -11.324855    12A    -11.323358
      13A    -11.319749    14A    -11.308910    15A     -7.630629
      16A     -5.529053    17A     -5.528962    18A     -5.527465
      19A     -1.463951    20A     -1.449084    21A     -1.413001
      22A     -1.392039    23A     -1.378958    24A     -1.377323
      25A     -1.371389    26A     -1.296555    27A     -1.085755
      28A     -1.049179    29A     -0.949129    30A     -0.859727
      31A     -0.842928    32A     -0.831454    33A     -0.773435
      34A     -0.763246    35A     -0.748965    36A     -0.735793
      37A     -0.717560    38A     -0.694337    39A     -0.686896
      40A     -0.666771    41A     -0.653753    42A     -0.648155
      43A     -0.633816    44A     -0.614865    45A     -0.603225
      46A     -0.597450    47A     -0.582616    48A     -0.578944
      49A     -0.571463    50A     -0.561632    51A     -0.544290
      52A     -0.531519    53A     -0.528149    54A     -0.514578
      55A     -0.490275    56A     -0.485607    57A     -0.476158
      58A     -0.470088    59A     -0.466872    60A     -0.451747

  @DF-RHF Final Energy: -1135.82333054879859

   => Energetics <=

    Nuclear Repulsion Energy =           1214.4779909294402387
    One-Electron Energy =               -3982.1326675106288349
    Two-Electron Energy =                1631.8313460323900017
    Total Energy =                      -1135.8233305487985945
  Basis Set: (AUG-CC-PVTZ AUX)
    Blend: AUG-CC-PVTZ-RI
    Molecular point group: c1

    Geometry (in Angstrom), charge = 0, multiplicity = 1:

       Center              X                  Y                   Z               Mass
    ------------   -----------------  -----------------  -----------------  -----------------
         P            2.559064416261     0.057316036424    -0.168283156405    30.973761998420
         O           -0.793959583739    -0.502691963576    -0.854417156405    15.994914619570
         O           -3.199506583739     1.766483036424     0.207254843595    15.994914619570
         O           -3.609815583739    -0.538503963576    -0.934525156405    15.994914619570
         O           -0.978317283739    -1.778245363576     1.146114343595    15.994914619570
         O            1.448899416261     1.237276036424    -0.298880156405    15.994914619570
         O            1.689093416261    -1.285481963576    -0.335203156405    15.994914619570
         O            2.906627416261    -0.051336963576     1.412511843595    15.994914619570
         O            3.722979416261     0.298345036424    -1.043911156405    15.994914619570
         C           -2.231054583739     0.783226036424     0.563860843595    12.000000000000
         C           -0.947309583739     0.827436036424    -0.295057156405    12.000000000000
         C           -2.835179583739    -0.592013963576     0.244643843595    12.000000000000
         C           -1.589318583739    -1.395002963576    -0.062083156405    12.000000000000
         C            0.270143416261     1.206371036424     0.529432843595    12.000000000000
         H           -1.990051583739     0.842577036424     1.633228843595     1.007825032230
         H           -1.069331583739     1.509467036424    -1.141480156405     1.007825032230
         H           -3.393715583739    -1.008784963576     1.092201843595     1.007825032230
         H           -1.760181583739    -2.280799963576    -0.681288156405     1.007825032230
         H            0.389248416261     0.510832036424     1.364593843595     1.007825032230
         H            0.145166416261     2.218428036424     0.930797843595     1.007825032230
         H           -2.943380583739     2.618845036424     0.597095843595     1.007825032230
         H           -4.094707583739     0.308030036424    -0.904577156405     1.007825032230
         H           -0.094307583739    -2.060029963576     0.994546843595     1.007825032230
         H            0.854908416261    -1.067804963576    -0.831654156405     1.007825032230
         H            3.794664416261     0.320948036424     1.566505843595     1.007825032230

  Basis Set: AUG-CC-PVTZ
    Blend: AUG-CC-PVTZ
  Basis Set: (AUG-CC-PVTZ AUX)
    Blend: AUG-CC-PVTZ-JKFIT
	 Reference Energy          =   -1135.8233305487985945 [Eh]
	 Singles Energy            =      -0.0000000000000000 [Eh]
	 Same-Spin Energy          =      -0.8155085839589497 [Eh]
	 Opposite-Spin Energy      =      -2.4203343886799935 [Eh]
	 Correlation Energy        =      -3.2358429726389430 [Eh]
	 Total Energy              =   -1139.0591735214375149 [Eh]

	 ================> DF-SCS-MP2 Energies <==================
	-----------------------------------------------------------
	 SCS Same-Spin Scale       =       0.3333333333333333 [-]
	 SCS Opposite-Spin Scale   =       1.2000000000000000 [-]
	 SCS Same-Spin Energy      =      -0.2718361946529832 [Eh]
	 SCS Opposite-Spin Energy  =      -2.9044012664159919 [Eh]
	 SCS Correlation Energy    =      -3.1762374610689750 [Eh]
	 SCS Total Energy          =   -1138.9995680098675166 [Eh]
	-----------------------------------------------------------

  Dipole Moment: [D]
     X:    -3.4594      Y:     2.5544      Z:     4.0319     Total:     5.8948

*** Psi4 exiting successfully. Buy a developer a beer!
