                               Psi4 1.3.2 release

  ==> Input File <==

--------------------------------------------------------------------------
#psi4
#
memory 32 gb

molecule  {
0 1
  P        2.6114510     0.0433530    -0.1897960
  O       -0.7415730    -0.5166550    -0.8759300
  O       -3.1471200     1.7525200     0.1857420
  O       -3.5574290    -0.5524670    -0.9560380
  O       -0.9262260    -1.6975490     1.1507850
  O        1.5225056     1.1893725    -0.2899350
  O        1.7414800    -1.2994450    -0.3567160
  O        2.9590140    -0.0653000     1.3909990
  O        3.7753660     0.2843820    -1.0654240
  C       -2.1786680     0.7692630     0.5423480
  C       -0.8949230     0.8134730    -0.3165700
  C       -2.7827930    -0.6059770     0.2231310
  C       -1.5369320    -1.4089660    -0.0835960
  C        0.3225300     1.1924080     0.5079200
  H       -1.9376650     0.8286140     1.6117160
  H       -1.0169450     1.4955040    -1.1629930
  H       -3.3413290    -1.0227480     1.0706890
  H       -1.7077950    -2.2947630    -0.7028010
  H        0.4416350     0.4968690     1.3430810
  H        0.1975530     2.2044650     0.9092850
  H       -2.8909940     2.6048820     0.5755830
  H       -4.0423210     0.2940670    -0.9260900
  H       -0.0419210    -2.0739930     0.9730340
  H        0.9072950    -1.0817680    -0.8531670
  H        3.8470510     0.3069850     1.5449930
units angstrom
no_reorient  #important for SAPT in psi4, default
symmetry c1  #important for SAPT in psi4, default
}

set PROPERTIES_ORIGIN ["COM"]
properties('MP2/aug-cc-pvtz', properties = ['dipole'])
--------------------------------------------------------------------------

    Molecular point group: c1
  Charge       = 0
  Multiplicity = 1
  Basis Set: AUG-CC-PVTZ
    Blend: AUG-CC-PVTZ
  Basis Set: (AUG-CC-PVTZ AUX)
    Blend: AUG-CC-PVTZ-JKFIT

    Orbital Energies [Eh]
    ---------------------

    Doubly Occupied:

       1A    -80.109754     2A    -20.607343     3A    -20.606608
       4A    -20.604748     5A    -20.604264     6A    -20.594887
       7A    -20.594884     8A    -20.575552     9A    -20.512188
      10A    -11.362708    11A    -11.324828    12A    -11.324784
      13A    -11.320364    14A    -11.308097    15A     -7.625450
      16A     -5.524083    17A     -5.523742    18A     -5.522231
      19A     -1.466057    20A     -1.450926    21A     -1.412412
      22A     -1.391811    23A     -1.376406    24A     -1.374319
      25A     -1.369212    26A     -1.293832    27A     -1.086657
      28A     -1.049077    29A     -0.951115    30A     -0.859158
      31A     -0.841752    32A     -0.828798    33A     -0.773378
      34A     -0.760975    35A     -0.748416    36A     -0.734913
      37A     -0.716186    38A     -0.696201    39A     -0.686077
      40A     -0.667971    41A     -0.652063    42A     -0.648300
      43A     -0.635024    44A     -0.614036    45A     -0.601760
      46A     -0.596470    47A     -0.580655    48A     -0.577469
      49A     -0.570383    50A     -0.559514    51A     -0.541324
      52A     -0.533099    53A     -0.528466    54A     -0.512808
      55A     -0.491629    56A     -0.488794    57A     -0.473864
      58A     -0.468765    59A     -0.464647    60A     -0.452048

  @DF-RHF Final Energy: -1135.82473366436489

   => Energetics <=

    Nuclear Repulsion Energy =           1217.4359334083337671
    One-Electron Energy =               -3988.1747713179288439
    Two-Electron Energy =                1634.9141042452301917
    Total Energy =                      -1135.8247336643648850
  Basis Set: (AUG-CC-PVTZ AUX)
    Blend: AUG-CC-PVTZ-RI
    Molecular point group: c1

    Geometry (in Angstrom), charge = 0, multiplicity = 1:

       Center              X                  Y                   Z               Mass
    ------------   -----------------  -----------------  -----------------  -----------------
         P            2.557609396600     0.053093807087    -0.172221854289    30.973761998420
         O           -0.795414603400    -0.506914192913    -0.858355854289    15.994914619570
         O           -3.200961603400     1.762260807087     0.203316145711    15.994914619570
         O           -3.611270603400    -0.542726192913    -0.938463854289    15.994914619570
         O           -0.980067603400    -1.687808192913     1.168359145711    15.994914619570
         O            1.468663996600     1.199113307087    -0.272360854289    15.994914619570
         O            1.687638396600    -1.289704192913    -0.339141854289    15.994914619570
         O            2.905172396600    -0.055559192913     1.408573145711    15.994914619570
         O            3.721524396600     0.294122807087    -1.047849854289    15.994914619570
         C           -2.232509603400     0.779003807087     0.559922145711    12.000000000000
         C           -0.948764603400     0.823213807087    -0.298995854289    12.000000000000
         C           -2.836634603400    -0.596236192913     0.240705145711    12.000000000000
         C           -1.590773603400    -1.399225192913    -0.066021854289    12.000000000000
         C            0.268688396600     1.202148807087     0.525494145711    12.000000000000
         H           -1.991506603400     0.838354807087     1.629290145711     1.007825032230
         H           -1.070786603400     1.505244807087    -1.145418854289     1.007825032230
         H           -3.395170603400    -1.013007192913     1.088263145711     1.007825032230
         H           -1.761636603400    -2.285022192913    -0.685226854289     1.007825032230
         H            0.387793396600     0.506609807087     1.360655145711     1.007825032230
         H            0.143711396600     2.214205807087     0.926859145711     1.007825032230
         H           -2.944835603400     2.614622807087     0.593157145711     1.007825032230
         H           -4.096162603400     0.303807807087    -0.908515854289     1.007825032230
         H           -0.095762603400    -2.064252192913     0.990608145711     1.007825032230
         H            0.853453396600    -1.072027192913    -0.835592854289     1.007825032230
         H            3.793209396600     0.316725807087     1.562567145711     1.007825032230

  Basis Set: AUG-CC-PVTZ
    Blend: AUG-CC-PVTZ
  Basis Set: (AUG-CC-PVTZ AUX)
    Blend: AUG-CC-PVTZ-JKFIT
	 Reference Energy          =   -1135.8247336643648850 [Eh]
	 Singles Energy            =      -0.0000000000000000 [Eh]
	 Same-Spin Energy          =      -0.8156823781373070 [Eh]
	 Opposite-Spin Energy      =      -2.4201736272151915 [Eh]
	 Correlation Energy        =      -3.2358560053524985 [Eh]
	 Total Energy              =   -1139.0605896697172739 [Eh]

	 ================> DF-SCS-MP2 Energies <==================
	-----------------------------------------------------------
	 SCS Same-Spin Scale       =       0.3333333333333333 [-]
	 SCS Opposite-Spin Scale   =       1.2000000000000000 [-]
	 SCS Same-Spin Energy      =      -0.2718941260457690 [Eh]
	 SCS Opposite-Spin Energy  =      -2.9042083526582299 [Eh]
	 SCS Correlation Energy    =      -3.1761024787039989 [Eh]
	 SCS Total Energy          =   -1139.0008361430689092 [Eh]
	-----------------------------------------------------------

  Dipole Moment: [D]
     X:    -3.6870      Y:     2.4463      Z:     3.9835     Total:     5.9536

*** Psi4 exiting successfully. Buy a developer a beer!
