                               Psi4 1.3.2 release

  ==> Input File <==

--------------------------------------------------------------------------
#psi4
#
memory 32 gb

molecule  {
0 1
  P        2.6114510     0.0433530    -0.1897960
  O       -0.7415730    -0.5166550    -0.8759300
  O       -3.1471200     1.7525200     0.1857420
  O       -3.5574290    -0.5524670    -0.9560380
  O       -0.9262260    -1.6975490     1.1507850
  O        1.5012860     1.2233130    -0.3203930
  O        1.7414800    -1.2994450    -0.3567160
  O        2.9590140    -0.0653000     1.3909990
  O        3.7753660     0.2843820    -1.0654240
  C       -2.3290905     0.8201854     0.5671754
  C       -0.8949230     0.8134730    -0.3165700
  C       -2.7827930    -0.6059770     0.2231310
  C       -1.5369320    -1.4089660    -0.0835960
  C        0.3225300     1.1924080     0.5079200
  H       -1.9376650     0.8286140     1.6117160
  H       -1.0169450     1.4955040    -1.1629930
  H       -3.3413290    -1.0227480     1.0706890
  H       -1.7077950    -2.2947630    -0.7028010
  H        0.4416350     0.4968690     1.3430810
  H        0.1975530     2.2044650     0.9092850
  H       -2.8909940     2.6048820     0.5755830
  H       -4.0423210     0.2940670    -0.9260900
  H       -0.0419210    -2.0739930     0.9730340
  H        0.9072950    -1.0817680    -0.8531670
  H        3.8470510     0.3069850     1.5449930
units angstrom
no_reorient  #important for SAPT in psi4, default
symmetry c1  #important for SAPT in psi4, default
}

set PROPERTIES_ORIGIN ["COM"]
properties('MP2/aug-cc-pvtz', properties = ['dipole'])
--------------------------------------------------------------------------

    Molecular point group: c1
  Charge       = 0
  Multiplicity = 1
  Basis Set: AUG-CC-PVTZ
    Blend: AUG-CC-PVTZ
  Basis Set: (AUG-CC-PVTZ AUX)
    Blend: AUG-CC-PVTZ-JKFIT

    Orbital Energies [Eh]
    ---------------------

    Doubly Occupied:

       1A    -80.112266     2A    -20.621285     3A    -20.608859
       4A    -20.601279     5A    -20.599351     6A    -20.595787
       7A    -20.592362     8A    -20.574015     9A    -20.512303
      10A    -11.361578    11A    -11.328308    12A    -11.316191
      13A    -11.310737    14A    -11.304976    15A     -7.627216
      16A     -5.525633    17A     -5.525556    18A     -5.524062
      19A     -1.472909    20A     -1.455824    21A     -1.441057
      22A     -1.387518    23A     -1.378602    24A     -1.375175
      25A     -1.364875    26A     -1.293631    27A     -1.062679
      28A     -1.041910    29A     -0.943343    30A     -0.862831
      31A     -0.841817    32A     -0.822347    33A     -0.783816
      34A     -0.761076    35A     -0.749614    36A     -0.735036
      37A     -0.714912    38A     -0.700449    39A     -0.688409
      40A     -0.667764    41A     -0.650727    42A     -0.647340
      43A     -0.638770    44A     -0.617244    45A     -0.607725
      46A     -0.597489    47A     -0.586613    48A     -0.578769
      49A     -0.569212    50A     -0.556534    51A     -0.540515
      52A     -0.528470    53A     -0.523818    54A     -0.507823
      55A     -0.487440    56A     -0.474191    57A     -0.472402
      58A     -0.466673    59A     -0.460032    60A     -0.422427

  @DF-RHF Final Energy: -1135.80174995904986

   => Energetics <=

    Nuclear Repulsion Energy =           1214.0982358883072720
    One-Electron Energy =               -3981.5568293562005238
    Two-Electron Energy =                1631.6568435088436217
    Total Energy =                      -1135.8017499590498574
  Basis Set: (AUG-CC-PVTZ AUX)
    Blend: AUG-CC-PVTZ-RI
    Molecular point group: c1

    Geometry (in Angstrom), charge = 0, multiplicity = 1:

       Center              X                  Y                   Z               Mass
    ------------   -----------------  -----------------  -----------------  -----------------
         P            2.566932427530     0.048077076185    -0.171399121460    30.973761998420
         O           -0.786091572470    -0.511930923815    -0.857533121460    15.994914619570
         O           -3.191638572470     1.757244076185     0.204138878540    15.994914619570
         O           -3.601947572470    -0.547742923815    -0.937641121460    15.994914619570
         O           -0.970744572470    -1.692824923815     1.169181878540    15.994914619570
         O            1.456767427530     1.228037076185    -0.301996121460    15.994914619570
         O            1.696961427530    -1.294720923815    -0.338319121460    15.994914619570
         O            2.914495427530    -0.060575923815     1.409395878540    15.994914619570
         O            3.730847427530     0.289106076185    -1.047027121460    15.994914619570
         C           -2.373609072470     0.824909476185     0.585572278540    12.000000000000
         C           -0.939441572470     0.818197076185    -0.298173121460    12.000000000000
         C           -2.827311572470    -0.601252923815     0.241527878540    12.000000000000
         C           -1.581450572470    -1.404241923815    -0.065199121460    12.000000000000
         C            0.278011427530     1.197132076185     0.526316878540    12.000000000000
         H           -1.982183572470     0.833338076185     1.630112878540     1.007825032230
         H           -1.061463572470     1.500228076185    -1.144596121460     1.007825032230
         H           -3.385847572470    -1.018023923815     1.089085878540     1.007825032230
         H           -1.752313572470    -2.290038923816    -0.684404121460     1.007825032230
         H            0.397116427530     0.501593076185     1.361477878540     1.007825032230
         H            0.153034427530     2.209189076184     0.927681878540     1.007825032230
         H           -2.935512572470     2.609606076185     0.593979878540     1.007825032230
         H           -4.086839572470     0.298791076185    -0.907693121460     1.007825032230
         H           -0.086439572470    -2.069268923815     0.991430878540     1.007825032230
         H            0.862776427530    -1.077043923815    -0.834770121460     1.007825032230
         H            3.802532427530     0.311709076185     1.563389878540     1.007825032230

  Basis Set: AUG-CC-PVTZ
    Blend: AUG-CC-PVTZ
  Basis Set: (AUG-CC-PVTZ AUX)
    Blend: AUG-CC-PVTZ-JKFIT
	 Reference Energy          =   -1135.8017499590498574 [Eh]
	 Singles Energy            =      -0.0000000000000000 [Eh]
	 Same-Spin Energy          =      -0.8164455943058697 [Eh]
	 Opposite-Spin Energy      =      -2.4210636080223877 [Eh]
	 Correlation Energy        =      -3.2375092023282575 [Eh]
	 Total Energy              =   -1139.0392591613781406 [Eh]

	 ================> DF-SCS-MP2 Energies <==================
	-----------------------------------------------------------
	 SCS Same-Spin Scale       =       0.3333333333333333 [-]
	 SCS Opposite-Spin Scale   =       1.2000000000000000 [-]
	 SCS Same-Spin Energy      =      -0.2721485314352899 [Eh]
	 SCS Opposite-Spin Energy  =      -2.9052763296268651 [Eh]
	 SCS Correlation Energy    =      -3.1774248610621552 [Eh]
	 SCS Total Energy          =   -1138.9791748201121209 [Eh]
	-----------------------------------------------------------

  Dipole Moment: [D]
     X:    -4.0047      Y:     2.6594      Z:     4.0691     Total:     6.2982

*** Psi4 exiting successfully. Buy a developer a beer!
