                               Psi4 1.3.2 release

  ==> Input File <==

--------------------------------------------------------------------------
#psi4
#
memory 32 gb

molecule  {
0 1
  P        2.6114510     0.0433530    -0.1897960
  O       -0.7415730    -0.5166550    -0.8759300
  O       -3.1471200     1.7525200     0.1857420
  O       -3.5845035    -0.6962919    -0.9355179
  O       -0.9262260    -1.6975490     1.1507850
  O        1.5012860     1.2233130    -0.3203930
  O        1.7414800    -1.2994450    -0.3567160
  O        2.9590140    -0.0653000     1.3909990
  O        3.7753660     0.2843820    -1.0654240
  C       -2.1786680     0.7692630     0.5423480
  C       -0.8949230     0.8134730    -0.3165700
  C       -2.7827930    -0.6059770     0.2231310
  C       -1.5369320    -1.4089660    -0.0835960
  C        0.3225300     1.1924080     0.5079200
  H       -1.9376650     0.8286140     1.6117160
  H       -1.0169450     1.4955040    -1.1629930
  H       -3.3413290    -1.0227480     1.0706890
  H       -1.7077950    -2.2947630    -0.7028010
  H        0.4416350     0.4968690     1.3430810
  H        0.1975530     2.2044650     0.9092850
  H       -2.8909940     2.6048820     0.5755830
  H       -4.0423210     0.2940670    -0.9260900
  H       -0.0419210    -2.0739930     0.9730340
  H        0.9072950    -1.0817680    -0.8531670
  H        3.8470510     0.3069850     1.5449930
units angstrom
no_reorient  #important for SAPT in psi4, default
symmetry c1  #important for SAPT in psi4, default
}

set PROPERTIES_ORIGIN ["COM"]
properties('MP2/aug-cc-pvtz', properties = ['dipole'])
--------------------------------------------------------------------------

    Molecular point group: c1
  Charge       = 0
  Multiplicity = 1
  Basis Set: AUG-CC-PVTZ
    Blend: AUG-CC-PVTZ
  Basis Set: (AUG-CC-PVTZ AUX)
    Blend: AUG-CC-PVTZ-JKFIT

    Orbital Energies [Eh]
    ---------------------

    Doubly Occupied:

       1A    -80.115286     2A    -20.611470     3A    -20.610399
       4A    -20.605808     5A    -20.603915     6A    -20.598587
       7A    -20.592625     8A    -20.585223     9A    -20.514915
      10A    -11.359280    11A    -11.327060    12A    -11.322315
      13A    -11.319763    14A    -11.304474    15A     -7.630237
      16A     -5.528660    17A     -5.528572    18A     -5.527073
      19A     -1.462929    20A     -1.447880    21A     -1.411745
      22A     -1.391021    23A     -1.378387    24A     -1.370166
      25A     -1.358512    26A     -1.296247    27A     -1.085289
      28A     -1.042581    29A     -0.946700    30A     -0.858772
      31A     -0.840520    32A     -0.826639    33A     -0.772701
      34A     -0.750858    35A     -0.747939    36A     -0.735678
      37A     -0.717148    38A     -0.692907    39A     -0.681626
      40A     -0.656482    41A     -0.652070    42A     -0.647785
      43A     -0.634812    44A     -0.610022    45A     -0.602278
      46A     -0.593933    47A     -0.582431    48A     -0.576960
      49A     -0.568632    50A     -0.560289    51A     -0.543469
      52A     -0.531957    53A     -0.527557    54A     -0.514278
      55A     -0.491073    56A     -0.486521    57A     -0.475260
      58A     -0.468439    59A     -0.463098    60A     -0.451398

  @DF-RHF Final Energy: -1135.80291534369940

   => Energetics <=

    Nuclear Repulsion Energy =           1214.0820417308291326
    One-Electron Energy =               -3981.4886148664309076
    Two-Electron Energy =                1631.6036577919023784
    Total Energy =                      -1135.8029153436993965
  Basis Set: (AUG-CC-PVTZ AUX)
    Blend: AUG-CC-PVTZ-RI
    Molecular point group: c1

    Geometry (in Angstrom), charge = 0, multiplicity = 1:

       Center              X                  Y                   Z               Mass
    ------------   -----------------  -----------------  -----------------  -----------------
         P            2.560967638692     0.060734873334    -0.171530799396    30.973761998420
         O           -0.792056361308    -0.499273126666    -0.857664799396    15.994914619570
         O           -3.197603361308     1.769901873334     0.204007200604    15.994914619570
         O           -3.634986861308    -0.678910026666    -0.917252699396    15.994914619570
         O           -0.976709361308    -1.680167126666     1.169050200604    15.994914619570
         O            1.450802638692     1.240694873334    -0.302127799396    15.994914619570
         O            1.690996638692    -1.282063126666    -0.338450799396    15.994914619570
         O            2.908530638692    -0.047918126666     1.409264200604    15.994914619570
         O            3.724882638692     0.301763873334    -1.047158799396    15.994914619570
         C           -2.229151361308     0.786644873334     0.560613200604    12.000000000000
         C           -0.945406361308     0.830854873334    -0.298304799396    12.000000000000
         C           -2.833276361308    -0.588595126666     0.241396200604    12.000000000000
         C           -1.587415361308    -1.391584126666    -0.065330799396    12.000000000000
         C            0.272046638692     1.209789873334     0.526185200604    12.000000000000
         H           -1.988148361308     0.845995873334     1.629981200604     1.007825032230
         H           -1.067428361308     1.512885873334    -1.144727799396     1.007825032230
         H           -3.391812361308    -1.005366126666     1.088954200604     1.007825032230
         H           -1.758278361308    -2.277381126666    -0.684535799396     1.007825032230
         H            0.391151638692     0.514250873334     1.361346200604     1.007825032230
         H            0.147069638692     2.221846873334     0.927550200604     1.007825032230
         H           -2.941477361308     2.622263873334     0.593848200604     1.007825032230
         H           -4.092804361308     0.311448873334    -0.907824799396     1.007825032230
         H           -0.092404361308    -2.056611126666     0.991299200604     1.007825032230
         H            0.856811638692    -1.064386126666    -0.834901799396     1.007825032230
         H            3.796567638692     0.324366873334     1.563258200604     1.007825032230

  Basis Set: AUG-CC-PVTZ
    Blend: AUG-CC-PVTZ
  Basis Set: (AUG-CC-PVTZ AUX)
    Blend: AUG-CC-PVTZ-JKFIT
	 Reference Energy          =   -1135.8029153436993965 [Eh]
	 Singles Energy            =      -0.0000000000000000 [Eh]
	 Same-Spin Energy          =      -0.8179840550107327 [Eh]
	 Opposite-Spin Energy      =      -2.4262838806998057 [Eh]
	 Correlation Energy        =      -3.2442679357105382 [Eh]
	 Total Energy              =   -1139.0471832794098646 [Eh]

	 ================> DF-SCS-MP2 Energies <==================
	-----------------------------------------------------------
	 SCS Same-Spin Scale       =       0.3333333333333333 [-]
	 SCS Opposite-Spin Scale   =       1.2000000000000000 [-]
	 SCS Same-Spin Energy      =      -0.2726613516702442 [Eh]
	 SCS Opposite-Spin Energy  =      -2.9115406568397666 [Eh]
	 SCS Correlation Energy    =      -3.1842020085100109 [Eh]
	 SCS Total Energy          =   -1138.9871173522094523 [Eh]
	-----------------------------------------------------------

  Dipole Moment: [D]
     X:    -3.3857      Y:     2.5791      Z:     3.9800     Total:     5.8271

*** Psi4 exiting successfully. Buy a developer a beer!
