                               Psi4 1.3.2 release

  ==> Input File <==

--------------------------------------------------------------------------
#psi4
#
memory 32 gb

molecule  {
0 1
  P        2.6420578     0.0690569    -0.2300601
  O       -0.7415730    -0.5166550    -0.8759300
  O       -3.1471200     1.7525200     0.1857420
  O       -3.5574290    -0.5524670    -0.9560380
  O       -0.9262260    -1.6975490     1.1507850
  O        1.5012860     1.2233130    -0.3203930
  O        1.7414800    -1.2994450    -0.3567160
  O        2.9590140    -0.0653000     1.3909990
  O        3.7753660     0.2843820    -1.0654240
  C       -2.1786680     0.7692630     0.5423480
  C       -0.8949230     0.8134730    -0.3165700
  C       -2.7827930    -0.6059770     0.2231310
  C       -1.5369320    -1.4089660    -0.0835960
  C        0.3225300     1.1924080     0.5079200
  H       -1.9376650     0.8286140     1.6117160
  H       -1.0169450     1.4955040    -1.1629930
  H       -3.3413290    -1.0227480     1.0706890
  H       -1.7077950    -2.2947630    -0.7028010
  H        0.4416350     0.4968690     1.3430810
  H        0.1975530     2.2044650     0.9092850
  H       -2.8909940     2.6048820     0.5755830
  H       -4.0423210     0.2940670    -0.9260900
  H       -0.0419210    -2.0739930     0.9730340
  H        0.9072950    -1.0817680    -0.8531670
  H        3.8470510     0.3069850     1.5449930
units angstrom
no_reorient  #important for SAPT in psi4, default
symmetry c1  #important for SAPT in psi4, default
}

set PROPERTIES_ORIGIN ["COM"]
properties('MP2/aug-cc-pvtz', properties = ['dipole'])
--------------------------------------------------------------------------

    Molecular point group: c1
  Charge       = 0
  Multiplicity = 1
  Basis Set: AUG-CC-PVTZ
    Blend: AUG-CC-PVTZ
  Basis Set: (AUG-CC-PVTZ AUX)
    Blend: AUG-CC-PVTZ-JKFIT

    Orbital Energies [Eh]
    ---------------------

    Doubly Occupied:

       1A    -80.112877     2A    -20.605156     3A    -20.604376
       4A    -20.604153     5A    -20.600931     6A    -20.592076
       7A    -20.590784     8A    -20.573598     9A    -20.526016
      10A    -11.360106    11A    -11.321995    12A    -11.320419
      13A    -11.316767    14A    -11.305727    15A     -7.629118
      16A     -5.527252    17A     -5.527123    18A     -5.526474
      19A     -1.458999    20A     -1.442890    21A     -1.410108
      22A     -1.382812    23A     -1.372006    24A     -1.367378
      25A     -1.362489    26A     -1.327794    27A     -1.082842
      28A     -1.045480    29A     -0.945847    30A     -0.853130
      31A     -0.837469    32A     -0.823253    33A     -0.768523
      34A     -0.757188    35A     -0.744180    36A     -0.730705
      37A     -0.704508    38A     -0.690987    39A     -0.682267
      40A     -0.664780    41A     -0.650851    42A     -0.643268
      43A     -0.630691    44A     -0.611716    45A     -0.598274
      46A     -0.595985    47A     -0.582806    48A     -0.573181
      49A     -0.568693    50A     -0.555215    51A     -0.545228
      52A     -0.528551    53A     -0.524444    54A     -0.509885
      55A     -0.493854    56A     -0.490194    57A     -0.485164
      58A     -0.484307    59A     -0.466789    60A     -0.450869

  @DF-RHF Final Energy: -1135.81790514516388

   => Energetics <=

    Nuclear Repulsion Energy =           1214.7526243091328979
    One-Electron Energy =               -3982.9599646600318010
    Two-Electron Energy =                1632.3894352057350261
    Total Energy =                      -1135.8179051451638770
  Basis Set: (AUG-CC-PVTZ AUX)
    Blend: AUG-CC-PVTZ-RI
    Molecular point group: c1

    Geometry (in Angstrom), charge = 0, multiplicity = 1:

       Center              X                  Y                   Z               Mass
    ------------   -----------------  -----------------  -----------------  -----------------
         P            2.585570321084     0.072976357623    -0.204946131072    30.973761998420
         O           -0.798060478916    -0.512735542377    -0.850816031072    15.994914619570
         O           -3.203607478916     1.756439457623     0.210855968928    15.994914619570
         O           -3.613916478916    -0.548547542377    -0.930924031072    15.994914619570
         O           -0.982713478916    -1.693629542377     1.175898968928    15.994914619570
         O            1.444798521084     1.227232457623    -0.295279031072    15.994914619570
         O            1.684992521084    -1.295525542377    -0.331602031072    15.994914619570
         O            2.902526521084    -0.061380542377     1.416112968928    15.994914619570
         O            3.718878521084     0.288301457623    -1.040310031072    15.994914619570
         C           -2.235155478916     0.773182457623     0.567461968928    12.000000000000
         C           -0.951410478916     0.817392457623    -0.291456031072    12.000000000000
         C           -2.839280478916    -0.602057542377     0.248244968928    12.000000000000
         C           -1.593419478916    -1.405046542377    -0.058482031072    12.000000000000
         C            0.266042521084     1.196327457623     0.533033968928    12.000000000000
         H           -1.994152478916     0.832533457623     1.636829968928     1.007825032230
         H           -1.073432478916     1.499423457623    -1.137879031072     1.007825032230
         H           -3.397816478916    -1.018828542377     1.095802968928     1.007825032230
         H           -1.764282478916    -2.290843542377    -0.677687031072     1.007825032230
         H            0.385147521084     0.500788457623     1.368194968928     1.007825032230
         H            0.141065521084     2.208384457623     0.934398968928     1.007825032230
         H           -2.947481478916     2.608801457623     0.600696968928     1.007825032230
         H           -4.098808478916     0.297986457623    -0.900976031072     1.007825032230
         H           -0.098408478916    -2.070073542377     0.998147968928     1.007825032230
         H            0.850807521084    -1.077848542377    -0.828053031072     1.007825032230
         H            3.790563521084     0.310904457623     1.570106968928     1.007825032230

  Basis Set: AUG-CC-PVTZ
    Blend: AUG-CC-PVTZ
  Basis Set: (AUG-CC-PVTZ AUX)
    Blend: AUG-CC-PVTZ-JKFIT
	 Reference Energy          =   -1135.8179051451638770 [Eh]
	 Singles Energy            =      -0.0000000000000000 [Eh]
	 Same-Spin Energy          =      -0.8157130752481240 [Eh]
	 Opposite-Spin Energy      =      -2.4213350470069623 [Eh]
	 Correlation Energy        =      -3.2370481222550862 [Eh]
	 Total Energy              =   -1139.0549532674190232 [Eh]

	 ================> DF-SCS-MP2 Energies <==================
	-----------------------------------------------------------
	 SCS Same-Spin Scale       =       0.3333333333333333 [-]
	 SCS Opposite-Spin Scale   =       1.2000000000000000 [-]
	 SCS Same-Spin Energy      =      -0.2719043584160413 [Eh]
	 SCS Opposite-Spin Energy  =      -2.9056020564083549 [Eh]
	 SCS Correlation Energy    =      -3.1775064148243963 [Eh]
	 SCS Total Energy          =   -1138.9954115599882698 [Eh]
	-----------------------------------------------------------

  Dipole Moment: [D]
     X:    -3.1117      Y:     2.5310      Z:     3.6455     Total:     5.4202

*** Psi4 exiting successfully. Buy a developer a beer!
