                               Psi4 1.4a3.dev225

  ==> Input File <==

--------------------------------------------------------------------------
#psi4
#
memory 32 gb

molecule  {
0 1
  P        2.6113660     0.0433910    -0.1897900
  O       -0.7416560    -0.5164190    -0.8762010
  O       -3.1473860     1.7523070     0.1855430
  O       -3.5574330    -0.5529450    -0.9556820
  O       -0.9255690    -1.6972900     1.1506350
  O        1.5012550     1.2233910    -0.3202530
  O        1.7411940    -1.2993510    -0.3564950
  O        2.9591660    -0.0655390     1.3909200
  O        3.7751240     0.2843830    -1.0656400
  C       -2.1787050     0.7693270     0.5422590
  C       -0.8949630     0.8136090    -0.3166340
  C       -2.7904507    -0.6240455     0.2191703
  C       -1.5366410    -1.4089160    -0.0835620
  C        0.3224410     1.1924200     0.5080110
  H       -1.9377070     0.8289040     1.6116220
  H       -1.0168440     1.4957790    -1.1629650
  H       -3.3408870    -1.0228010     1.0710960
  H       -1.7074320    -2.2947510    -0.7027390
  H        0.4414920     0.4968360     1.3431340
  H        0.1974400     2.2044510     0.9094280
  H       -2.8916000     2.6047160     0.5754970
  H       -4.0429610     0.2932130    -0.9254450
  H       -0.0410590    -2.0731950     0.9726900
  H        0.9073710    -1.0816890    -0.8535130
  H        3.8468470     0.3075270     1.5450430
units angstrom
no_reorient  #important for SAPT in psi4, default
symmetry c1  #important for SAPT in psi4, default
}

set PROPERTIES_ORIGIN ["COM"]
properties('MP2/aug-cc-pvtz', properties = ['dipole'])
--------------------------------------------------------------------------

    Molecular point group: c1
  Charge       = 0
  Multiplicity = 1
  Basis Set: AUG-CC-PVTZ
    Blend: AUG-CC-PVTZ
  Basis Set: (AUG-CC-PVTZ AUX)
    Blend: AUG-CC-PVTZ-JKFIT

    Orbital Energies [Eh]
    ---------------------

    Doubly Occupied:

       1A    -80.114864     2A    -20.611124     3A    -20.605836
       4A    -20.604940     5A    -20.603539     6A    -20.598405
       7A    -20.594856     8A    -20.575275     9A    -20.514530
      10A    -11.361995    11A    -11.323315    12A    -11.321021
      13A    -11.317880    14A    -11.307555    15A     -7.629815
      16A     -5.528234    17A     -5.528153    18A     -5.526652
      19A     -1.462991    20A     -1.448140    21A     -1.411090
      22A     -1.390579    23A     -1.378132    24A     -1.375074
      25A     -1.369197    26A     -1.295865    27A     -1.082252
      28A     -1.046191    29A     -0.946395    30A     -0.856954
      31A     -0.842415    32A     -0.829484    33A     -0.771535
      34A     -0.760382    35A     -0.747139    36A     -0.733516
      37A     -0.716629    38A     -0.692705    39A     -0.685148
      40A     -0.668051    41A     -0.653111    42A     -0.647669
      43A     -0.633637    44A     -0.613671    45A     -0.600694
      46A     -0.597008    47A     -0.582097    48A     -0.577675
      49A     -0.569484    50A     -0.560574    51A     -0.543356
      52A     -0.532103    53A     -0.527192    54A     -0.510743
      55A     -0.488586    56A     -0.487771    57A     -0.475032
      58A     -0.469610    59A     -0.465852    60A     -0.449125

  @DF-RHF Final Energy: -1135.82261019106454

   => Energetics <=

    Nuclear Repulsion Energy =           1215.6763862309171600
    One-Electron Energy =               -3984.6723069891063460
    Two-Electron Energy =                1633.1733105671246449
    Total Energy =                      -1135.8226101910645411
  Basis Set: (AUG-CC-PVTZ AUX)
    Blend: AUG-CC-PVTZ-RI
    Molecular point group: c1

    Geometry (in Angstrom), charge = 0, multiplicity = 1:

       Center              X                  Y                   Z               Mass
    ------------   -----------------  -----------------  -----------------  -----------------
         P            2.559411115931     0.051709896852    -0.169879107124    30.973761998420
         O           -0.793610884069    -0.508100103148    -0.856290107124    15.994914619570
         O           -3.199340884069     1.760625896852     0.205453892876    15.994914619570
         O           -3.609387884069    -0.544626103148    -0.935771107124    15.994914619570
         O           -0.977523884069    -1.688971103148     1.170545892876    15.994914619570
         O            1.449300115931     1.231709896852    -0.300342107124    15.994914619570
         O            1.689239115931    -1.291032103148    -0.336584107124    15.994914619570
         O            2.907211115931    -0.057220103148     1.410830892876    15.994914619570
         O            3.723169115931     0.292701896852    -1.045729107124    15.994914619570
         C           -2.230659884069     0.777645896852     0.562169892876    12.000000000000
         C           -0.946917884069     0.821927896852    -0.296723107124    12.000000000000
         C           -2.842405584069    -0.615726603148     0.239081192876    12.000000000000
         C           -1.588595884069    -1.400597103148    -0.063651107124    12.000000000000
         C            0.270486115931     1.200738896852     0.527921892876    12.000000000000
         H           -1.989661884069     0.837222896852     1.631532892876     1.007825032230
         H           -1.068798884069     1.504097896852    -1.143054107124     1.007825032230
         H           -3.392841884069    -1.014482103148     1.091006892876     1.007825032230
         H           -1.759386884069    -2.286432103148    -0.682828107124     1.007825032230
         H            0.389537115931     0.505154896852     1.363044892876     1.007825032230
         H            0.145485115931     2.212769896852     0.929338892876     1.007825032230
         H           -2.943554884069     2.613034896852     0.595407892876     1.007825032230
         H           -4.094915884069     0.301531896852    -0.905534107124     1.007825032230
         H           -0.093013884069    -2.064876103148     0.992600892876     1.007825032230
         H            0.855416115931    -1.073370103148    -0.833602107124     1.007825032230
         H            3.794892115931     0.315845896852     1.564953892876     1.007825032230

  Basis Set: AUG-CC-PVTZ
    Blend: AUG-CC-PVTZ
  Basis Set: (AUG-CC-PVTZ AUX)
    Blend: AUG-CC-PVTZ-JKFIT
	 Reference Energy          =   -1135.8226101910645411 [Eh]
	 Singles Energy            =      -0.0000000000000000 [Eh]
	 Same-Spin Energy          =      -0.8162027108078219 [Eh]
	 Opposite-Spin Energy      =      -2.4216662068967745 [Eh]
	 Correlation Energy        =      -3.2378689177045965 [Eh]
	 Total Energy              =   -1139.0604791087691865 [Eh]

	 ================> DF-SCS-MP2 Energies <==================
	-----------------------------------------------------------
	 SCS Same-Spin Scale       =       0.3333333333333333 [-]
	 SCS Opposite-Spin Scale   =       1.2000000000000000 [-]
	 SCS Same-Spin Energy      =      -0.2720675702692740 [Eh]
	 SCS Opposite-Spin Energy  =      -2.9059994482761291 [Eh]
	 SCS Correlation Energy    =      -3.1780670185454030 [Eh]
	 SCS Total Energy          =   -1139.0006772096098757 [Eh]
	-----------------------------------------------------------

  Dipole Moment: [D]
     X:    -3.5149      Y:     2.2846      Z:     4.0260     Total:     5.8123

*** Psi4 exiting successfully. Buy a developer a beer!
