                               Psi4 1.4a3.dev225

  ==> Input File <==

--------------------------------------------------------------------------
#psi4
#
memory 32 gb

molecule  {
0 1
  P        2.6113660     0.0433910    -0.1897900
  O       -0.7416560    -0.5164190    -0.8762010
  O       -3.1473860     1.7523070     0.1855430
  O       -3.5574330    -0.5529450    -0.9556820
  O       -0.9255690    -1.6972900     1.1506350
  O        1.5012550     1.2233910    -0.3202530
  O        1.7411940    -1.2993510    -0.3564950
  O        2.9591660    -0.0655390     1.3909200
  O        3.7751240     0.2843830    -1.0656400
  C       -2.1787050     0.7693270     0.5422590
  C       -0.8949630     0.8136090    -0.3166340
  C       -2.7629242    -0.5613483     0.2337082
  C       -1.5366410    -1.4089160    -0.0835620
  C        0.3224410     1.1924200     0.5080110
  H       -1.9377070     0.8289040     1.6116220
  H       -1.0168440     1.4957790    -1.1629650
  H       -3.3408870    -1.0228010     1.0710960
  H       -1.7074320    -2.2947510    -0.7027390
  H        0.4414920     0.4968360     1.3431340
  H        0.1974400     2.2044510     0.9094280
  H       -2.8916000     2.6047160     0.5754970
  H       -4.0429610     0.2932130    -0.9254450
  H       -0.0410590    -2.0731950     0.9726900
  H        0.9073710    -1.0816890    -0.8535130
  H        3.8468470     0.3075270     1.5450430
units angstrom
no_reorient  #important for SAPT in psi4, default
symmetry c1  #important for SAPT in psi4, default
}

set PROPERTIES_ORIGIN ["COM"]
properties('MP2/aug-cc-pvtz', properties = ['dipole'])
--------------------------------------------------------------------------

    Molecular point group: c1
  Charge       = 0
  Multiplicity = 1
  Basis Set: AUG-CC-PVTZ
    Blend: AUG-CC-PVTZ
  Basis Set: (AUG-CC-PVTZ AUX)
    Blend: AUG-CC-PVTZ-JKFIT

    Orbital Energies [Eh]
    ---------------------

    Doubly Occupied:

       1A    -80.115239     2A    -20.611464     3A    -20.607185
       4A    -20.605521     5A    -20.603307     6A    -20.598711
       7A    -20.594681     8A    -20.573824     9A    -20.514855
      10A    -11.362966    11A    -11.322848    12A    -11.321873
      13A    -11.318999    14A    -11.306818    15A     -7.630189
      16A     -5.528610    17A     -5.528527    18A     -5.527026
      19A     -1.463617    20A     -1.448633    21A     -1.412491
      22A     -1.390982    23A     -1.378452    24A     -1.371810
      25A     -1.365160    26A     -1.296189    27A     -1.090049
      28A     -1.048845    29A     -0.947379    30A     -0.860335
      31A     -0.840891    32A     -0.828216    33A     -0.773190
      34A     -0.757303    35A     -0.748851    36A     -0.735933
      37A     -0.717215    38A     -0.693095    39A     -0.682791
      40A     -0.665355    41A     -0.653291    42A     -0.647855
      43A     -0.630864    44A     -0.613944    45A     -0.601638
      46A     -0.593942    47A     -0.581821    48A     -0.576990
      49A     -0.570710    50A     -0.558639    51A     -0.543484
      52A     -0.532601    53A     -0.526624    54A     -0.515830
      55A     -0.494228    56A     -0.488342    57A     -0.475424
      58A     -0.468733    59A     -0.464237    60A     -0.452655

  @DF-RHF Final Energy: -1135.81934437469340

   => Energetics <=

    Nuclear Repulsion Energy =           1216.5995704620991091
    One-Electron Energy =               -3986.4752721203599322
    Two-Electron Energy =                1634.0563572835674222
    Total Energy =                      -1135.8193443746934008
  Basis Set: (AUG-CC-PVTZ AUX)
    Blend: AUG-CC-PVTZ-RI
    Molecular point group: c1

    Geometry (in Angstrom), charge = 0, multiplicity = 1:

       Center              X                  Y                   Z               Mass
    ------------   -----------------  -----------------  -----------------  -----------------
         P            2.557975070307     0.048439010990    -0.170637543093    30.973761998420
         O           -0.795046929693    -0.511370989010    -0.857048543093    15.994914619570
         O           -3.200776929693     1.757355010990     0.204695456907    15.994914619570
         O           -3.610823929693    -0.547896989010    -0.936529543093    15.994914619570
         O           -0.978959929693    -1.692241989010     1.169787456907    15.994914619570
         O            1.447864070307     1.228439010990    -0.301100543093    15.994914619570
         O            1.687803070307    -1.294302989010    -0.337342543093    15.994914619570
         O            2.905775070307    -0.060490989010     1.410072456907    15.994914619570
         O            3.721733070307     0.289431010990    -1.046487543093    15.994914619570
         C           -2.232095929693     0.774375010990     0.561411456907    12.000000000000
         C           -0.948353929693     0.818657010990    -0.297481543093    12.000000000000
         C           -2.816315129693    -0.556300289010     0.252860656907    12.000000000000
         C           -1.590031929693    -1.403867989010    -0.064409543093    12.000000000000
         C            0.269050070307     1.197468010990     0.527163456907    12.000000000000
         H           -1.991097929693     0.833952010990     1.630774456907     1.007825032230
         H           -1.070234929693     1.500827010990    -1.143812543093     1.007825032230
         H           -3.394277929693    -1.017752989010     1.090248456907     1.007825032230
         H           -1.760822929693    -2.289702989010    -0.683586543093     1.007825032230
         H            0.388101070307     0.501884010990     1.362286456907     1.007825032230
         H            0.144049070307     2.209499010990     0.928580456907     1.007825032230
         H           -2.944990929693     2.609764010990     0.594649456907     1.007825032230
         H           -4.096351929693     0.298261010990    -0.906292543093     1.007825032230
         H           -0.094449929693    -2.068146989010     0.991842456907     1.007825032230
         H            0.853980070307    -1.076640989010    -0.834360543093     1.007825032230
         H            3.793456070307     0.312575010990     1.564195456907     1.007825032230

  Basis Set: AUG-CC-PVTZ
    Blend: AUG-CC-PVTZ
  Basis Set: (AUG-CC-PVTZ AUX)
    Blend: AUG-CC-PVTZ-JKFIT
	 Reference Energy          =   -1135.8193443746934008 [Eh]
	 Singles Energy            =      -0.0000000000000000 [Eh]
	 Same-Spin Energy          =      -0.8166109518096992 [Eh]
	 Opposite-Spin Energy      =      -2.4225560065355611 [Eh]
	 Correlation Energy        =      -3.2391669583452605 [Eh]
	 Total Energy              =   -1139.0585113330387230 [Eh]

	 ================> DF-SCS-MP2 Energies <==================
	-----------------------------------------------------------
	 SCS Same-Spin Scale       =       0.3333333333333333 [-]
	 SCS Opposite-Spin Scale   =       1.2000000000000000 [-]
	 SCS Same-Spin Energy      =      -0.2722036506032330 [Eh]
	 SCS Opposite-Spin Energy  =      -2.9070672078426734 [Eh]
	 SCS Correlation Energy    =      -3.1792708584459066 [Eh]
	 SCS Total Energy          =   -1138.9986152331393896 [Eh]
	-----------------------------------------------------------

  Dipole Moment: [D]
     X:    -3.4027      Y:     2.3340      Z:     4.0504     Total:     5.7820

*** Psi4 exiting successfully. Buy a developer a beer!
