                               Psi4 1.3.2 release

  ==> Input File <==

--------------------------------------------------------------------------
#psi4
#
memory 32 gb

molecule  {
0 1
  P        2.5462186    -0.0037124    -0.1097941
  O       -0.7415730    -0.5166550    -0.8759300
  O       -3.1471200     1.7525200     0.1857420
  O       -3.5574290    -0.5524670    -0.9560380
  O       -0.9262260    -1.6975490     1.1507850
  O        1.5012860     1.2233130    -0.3203930
  O        1.7414800    -1.2994450    -0.3567160
  O        2.9590140    -0.0653000     1.3909990
  O        3.7753660     0.2843820    -1.0654240
  C       -2.1786680     0.7692630     0.5423480
  C       -0.8949230     0.8134730    -0.3165700
  C       -2.7827930    -0.6059770     0.2231310
  C       -1.5369320    -1.4089660    -0.0835960
  C        0.3225300     1.1924080     0.5079200
  H       -1.9376650     0.8286140     1.6117160
  H       -1.0169450     1.4955040    -1.1629930
  H       -3.3413290    -1.0227480     1.0706890
  H       -1.7077950    -2.2947630    -0.7028010
  H        0.4416350     0.4968690     1.3430810
  H        0.1975530     2.2044650     0.9092850
  H       -2.8909940     2.6048820     0.5755830
  H       -4.0423210     0.2940670    -0.9260900
  H       -0.0419210    -2.0739930     0.9730340
  H        0.9072950    -1.0817680    -0.8531670
  H        3.8470510     0.3069850     1.5449930
units angstrom
no_reorient  #important for SAPT in psi4, default
symmetry c1  #important for SAPT in psi4, default
}

set PROPERTIES_ORIGIN ["COM"]
properties('MP2/aug-cc-pvtz', properties = ['dipole'])
--------------------------------------------------------------------------

    Molecular point group: c1
  Charge       = 0
  Multiplicity = 1
  Basis Set: AUG-CC-PVTZ
    Blend: AUG-CC-PVTZ
  Basis Set: (AUG-CC-PVTZ AUX)
    Blend: AUG-CC-PVTZ-JKFIT

    Orbital Energies [Eh]
    ---------------------

    Doubly Occupied:

       1A    -80.116038     2A    -20.623456     3A    -20.613265
       4A    -20.608866     5A    -20.608622     6A    -20.607909
       7A    -20.600553     8A    -20.577501     9A    -20.489979
      10A    -11.366611    11A    -11.326225    12A    -11.323803
      13A    -11.321509    14A    -11.310484    15A     -7.631134
      16A     -5.529855    17A     -5.529591    18A     -5.527260
      19A     -1.479466    20A     -1.459238    21A     -1.415099
      22A     -1.411665    23A     -1.398447    24A     -1.377584
      25A     -1.373005    26A     -1.230924    27A     -1.087313
      28A     -1.050221    29A     -0.948934    30A     -0.874745
      31A     -0.850030    32A     -0.835925    33A     -0.780250
      34A     -0.766684    35A     -0.757709    36A     -0.741141
      37A     -0.737451    38A     -0.697972    39A     -0.688856
      40A     -0.673408    41A     -0.659986    42A     -0.658272
      43A     -0.637952    44A     -0.619238    45A     -0.608645
      46A     -0.602036    47A     -0.597909    48A     -0.584520
      49A     -0.573474    50A     -0.566776    51A     -0.539901
      52A     -0.534549    53A     -0.516335    54A     -0.510830
      55A     -0.494410    56A     -0.491198    57A     -0.474004
      58A     -0.458720    59A     -0.426648    60A     -0.424955

  @DF-RHF Final Energy: -1135.80290669216583

   => Energetics <=

    Nuclear Repulsion Energy =           1218.5396494059702945
    One-Electron Energy =               -3990.0269452102015748
    Two-Electron Energy =                1635.6843891120656735
    Total Energy =                      -1135.8029066921658341
  Basis Set: (AUG-CC-PVTZ AUX)
    Blend: AUG-CC-PVTZ-RI
    Molecular point group: c1

    Geometry (in Angstrom), charge = 0, multiplicity = 1:

       Center              X                  Y                   Z               Mass
    ------------   -----------------  -----------------  -----------------  -----------------
         P            2.502636570545     0.010005976264    -0.100874827865    30.973761998420
         O           -0.785155029455    -0.502936623736    -0.867010727865    15.994914619570
         O           -3.190702029455     1.766238376264     0.194661272135    15.994914619570
         O           -3.601011029455    -0.538748623736    -0.947118727865    15.994914619570
         O           -0.969808029455    -1.683830623736     1.159704272135    15.994914619570
         O            1.457703970545     1.237031376264    -0.311473727865    15.994914619570
         O            1.697897970545    -1.285726623736    -0.347796727865    15.994914619570
         O            2.915431970545    -0.051581623736     1.399918272135    15.994914619570
         O            3.731783970545     0.298100376264    -1.056504727865    15.994914619570
         C           -2.222250029455     0.782981376264     0.551267272135    12.000000000000
         C           -0.938505029455     0.827191376264    -0.307650727865    12.000000000000
         C           -2.826375029455    -0.592258623736     0.232050272135    12.000000000000
         C           -1.580514029455    -1.395247623736    -0.074676727865    12.000000000000
         C            0.278947970545     1.206126376264     0.516839272135    12.000000000000
         H           -1.981247029455     0.842332376264     1.620635272135     1.007825032230
         H           -1.060527029455     1.509222376264    -1.154073727865     1.007825032230
         H           -3.384911029455    -1.009029623736     1.079608272135     1.007825032230
         H           -1.751377029455    -2.281044623736    -0.693881727865     1.007825032230
         H            0.398052970545     0.510587376264     1.352000272135     1.007825032230
         H            0.153970970545     2.218183376264     0.918204272135     1.007825032230
         H           -2.934576029455     2.618600376264     0.584502272135     1.007825032230
         H           -4.085903029455     0.307785376264    -0.917170727865     1.007825032230
         H           -0.085503029455    -2.060274623736     0.981953272135     1.007825032230
         H            0.863712970545    -1.068049623736    -0.844247727865     1.007825032230
         H            3.803468970545     0.320703376264     1.553912272135     1.007825032230

  Basis Set: AUG-CC-PVTZ
    Blend: AUG-CC-PVTZ
  Basis Set: (AUG-CC-PVTZ AUX)
    Blend: AUG-CC-PVTZ-JKFIT
	 Reference Energy          =   -1135.8029066921658341 [Eh]
	 Singles Energy            =      -0.0000000000000000 [Eh]
	 Same-Spin Energy          =      -0.8173608820122010 [Eh]
	 Opposite-Spin Energy      =      -2.4230811627473900 [Eh]
	 Correlation Energy        =      -3.2404420447595910 [Eh]
	 Total Energy              =   -1139.0433487369255090 [Eh]

	 ================> DF-SCS-MP2 Energies <==================
	-----------------------------------------------------------
	 SCS Same-Spin Scale       =       0.3333333333333333 [-]
	 SCS Opposite-Spin Scale   =       1.2000000000000000 [-]
	 SCS Same-Spin Energy      =      -0.2724536273374003 [Eh]
	 SCS Opposite-Spin Energy  =      -2.9076973952968679 [Eh]
	 SCS Correlation Energy    =      -3.1801510226342682 [Eh]
	 SCS Total Energy          =   -1138.9830577147999975 [Eh]
	-----------------------------------------------------------

  Dipole Moment: [D]
     X:    -4.3236      Y:     1.8711      Z:     4.8178     Total:     6.7384

*** Psi4 exiting successfully. Buy a developer a beer!
