                               Psi4 1.3.2 release

  ==> Input File <==

--------------------------------------------------------------------------
#psi4
#
memory 32 gb

molecule  {
0 1
  P        2.6114510     0.0433530    -0.1897960
  O       -0.8492829    -0.5257595    -0.9800853
  O       -3.1471200     1.7525200     0.1857420
  O       -3.5574290    -0.5524670    -0.9560380
  O       -0.9262260    -1.6975490     1.1507850
  O        1.5012860     1.2233130    -0.3203930
  O        1.7414800    -1.2994450    -0.3567160
  O        2.9590140    -0.0653000     1.3909990
  O        3.7753660     0.2843820    -1.0654240
  C       -2.1786680     0.7692630     0.5423480
  C       -0.8949230     0.8134730    -0.3165700
  C       -2.7827930    -0.6059770     0.2231310
  C       -1.5369320    -1.4089660    -0.0835960
  C        0.3225300     1.1924080     0.5079200
  H       -1.9376650     0.8286140     1.6117160
  H       -1.0169450     1.4955040    -1.1629930
  H       -3.3413290    -1.0227480     1.0706890
  H       -1.7077950    -2.2947630    -0.7028010
  H        0.4416350     0.4968690     1.3430810
  H        0.1975530     2.2044650     0.9092850
  H       -2.8909940     2.6048820     0.5755830
  H       -4.0423210     0.2940670    -0.9260900
  H       -0.0419210    -2.0739930     0.9730340
  H        0.9072950    -1.0817680    -0.8531670
  H        3.8470510     0.3069850     1.5449930
units angstrom
no_reorient  #important for SAPT in psi4, default
symmetry c1  #important for SAPT in psi4, default
}

set PROPERTIES_ORIGIN ["COM"]
properties('MP2/aug-cc-pvtz', properties = ['dipole'])
--------------------------------------------------------------------------

    Molecular point group: c1
  Charge       = 0
  Multiplicity = 1
  Basis Set: AUG-CC-PVTZ
    Blend: AUG-CC-PVTZ
  Basis Set: (AUG-CC-PVTZ AUX)
    Blend: AUG-CC-PVTZ-JKFIT

    Orbital Energies [Eh]
    ---------------------

    Doubly Occupied:

       1A    -80.118444     2A    -20.614015     3A    -20.608065
       4A    -20.605754     5A    -20.604773     6A    -20.604171
       7A    -20.599673     8A    -20.570546     9A    -20.517443
      10A    -11.358323    11A    -11.326635    12A    -11.322003
      13A    -11.320138    14A    -11.303174    15A     -7.633409
      16A     -5.531813    17A     -5.531760    18A     -5.530233
      19A     -1.461079    20A     -1.445617    21A     -1.409249
      22A     -1.393305    23A     -1.382959    24A     -1.373175
      25A     -1.363673    26A     -1.298775    27A     -1.085444
      28A     -1.042432    29A     -0.947616    30A     -0.857191
      31A     -0.840189    32A     -0.826284    33A     -0.770291
      34A     -0.759438    35A     -0.744398    36A     -0.734559
      37A     -0.720231    38A     -0.696913    39A     -0.683665
      40A     -0.663476    41A     -0.653331    42A     -0.647334
      43A     -0.628980    44A     -0.614765    45A     -0.600672
      46A     -0.593819    47A     -0.585076    48A     -0.578761
      49A     -0.566895    50A     -0.557246    51A     -0.546775
      52A     -0.534024    53A     -0.526800    54A     -0.509099
      55A     -0.493080    56A     -0.488770    57A     -0.476802
      58A     -0.470210    59A     -0.466050    60A     -0.449388

  @DF-RHF Final Energy: -1135.81288672953974

   => Energetics <=

    Nuclear Repulsion Energy =           1212.9235314309182741
    One-Electron Energy =               -3979.0964172103476812
    Two-Electron Energy =                1630.3599990498898933
    Total Energy =                      -1135.8128867295397413
  Basis Set: (AUG-CC-PVTZ AUX)
    Blend: AUG-CC-PVTZ-RI
    Molecular point group: c1

    Geometry (in Angstrom), charge = 0, multiplicity = 1:

       Center              X                  Y                   Z               Mass
    ------------   -----------------  -----------------  -----------------  -----------------
         P            2.566574807983     0.051366778307    -0.162861206709    30.973761998420
         O           -0.894159092017    -0.517745721693    -0.953150506709    15.994914619570
         O           -3.191996192017     1.760533778307     0.212676793291    15.994914619570
         O           -3.602305192017    -0.544453221693    -0.929103206709    15.994914619570
         O           -0.971102192017    -1.689535221693     1.177719793291    15.994914619570
         O            1.456409807983     1.231326778307    -0.293458206709    15.994914619570
         O            1.696603807983    -1.291431221693    -0.329781206709    15.994914619570
         O            2.914137807983    -0.057286221693     1.417933793291    15.994914619570
         O            3.730489807983     0.292395778307    -1.038489206709    15.994914619570
         C           -2.223544192017     0.777276778307     0.569282793291    12.000000000000
         C           -0.939799192017     0.821486778307    -0.289635206709    12.000000000000
         C           -2.827669192017    -0.597963221693     0.250065793291    12.000000000000
         C           -1.581808192017    -1.400952221693    -0.056661206709    12.000000000000
         C            0.277653807983     1.200421778307     0.534854793291    12.000000000000
         H           -1.982541192017     0.836627778307     1.638650793291     1.007825032230
         H           -1.061821192017     1.503517778307    -1.136058206709     1.007825032230
         H           -3.386205192017    -1.014734221693     1.097623793291     1.007825032230
         H           -1.752671192017    -2.286749221693    -0.675866206709     1.007825032230
         H            0.396758807983     0.504882778307     1.370015793291     1.007825032230
         H            0.152676807983     2.212478778307     0.936219793291     1.007825032230
         H           -2.935870192017     2.612895778307     0.602517793291     1.007825032230
         H           -4.087197192017     0.302080778307    -0.899155206709     1.007825032230
         H           -0.086797192017    -2.065979221693     0.999968793291     1.007825032230
         H            0.862418807983    -1.073754221693    -0.826232206709     1.007825032230
         H            3.802174807983     0.314998778307     1.571927793291     1.007825032230

  Basis Set: AUG-CC-PVTZ
    Blend: AUG-CC-PVTZ
  Basis Set: (AUG-CC-PVTZ AUX)
    Blend: AUG-CC-PVTZ-JKFIT
	 Reference Energy          =   -1135.8128867295397413 [Eh]
	 Singles Energy            =      -0.0000000000000000 [Eh]
	 Same-Spin Energy          =      -0.8170335093474962 [Eh]
	 Opposite-Spin Energy      =      -2.4242752817882920 [Eh]
	 Correlation Energy        =      -3.2413087911357881 [Eh]
	 Total Energy              =   -1139.0541955206754210 [Eh]

	 ================> DF-SCS-MP2 Energies <==================
	-----------------------------------------------------------
	 SCS Same-Spin Scale       =       0.3333333333333333 [-]
	 SCS Opposite-Spin Scale   =       1.2000000000000000 [-]
	 SCS Same-Spin Energy      =      -0.2723445031158320 [Eh]
	 SCS Opposite-Spin Energy  =      -2.9091303381459501 [Eh]
	 SCS Correlation Energy    =      -3.1814748412617821 [Eh]
	 SCS Total Energy          =   -1138.9943615708016296 [Eh]
	-----------------------------------------------------------

  Dipole Moment: [D]
     X:    -3.0430      Y:     2.3581      Z:     4.2127     Total:     5.7068

*** Psi4 exiting successfully. Buy a developer a beer!
