                               Psi4 1.3.2 release

  ==> Input File <==

--------------------------------------------------------------------------
#psi4
#
memory 32 gb

molecule  {
0 1
  P        2.6114510     0.0433530    -0.1897960
  O       -0.7415730    -0.5166550    -0.8759300
  O       -3.1471200     1.7525200     0.1857420
  O       -3.5574290    -0.5524670    -0.9560380
  O       -0.9262260    -1.6975490     1.1507850
  O        1.5012860     1.2233130    -0.3203930
  O        1.7414800    -1.2994450    -0.3567160
  O        2.9590140    -0.0653000     1.3909990
  O        3.7753660     0.2843820    -1.0654240
  C       -2.1786680     0.7692630     0.5423480
  C       -0.8949230     0.8134730    -0.3165700
  C       -2.7827930    -0.6059770     0.2231310
  C       -1.4260101    -1.2845230    -0.1940961
  C        0.3225300     1.1924080     0.5079200
  H       -1.9376650     0.8286140     1.6117160
  H       -1.0169450     1.4955040    -1.1629930
  H       -3.3413290    -1.0227480     1.0706890
  H       -1.7077950    -2.2947630    -0.7028010
  H        0.4416350     0.4968690     1.3430810
  H        0.1975530     2.2044650     0.9092850
  H       -2.8909940     2.6048820     0.5755830
  H       -4.0423210     0.2940670    -0.9260900
  H       -0.0419210    -2.0739930     0.9730340
  H        0.9072950    -1.0817680    -0.8531670
  H        3.8470510     0.3069850     1.5449930
units angstrom
no_reorient  #important for SAPT in psi4, default
symmetry c1  #important for SAPT in psi4, default
}

set PROPERTIES_ORIGIN ["COM"]
properties('MP2/aug-cc-pvtz', properties = ['dipole'])
--------------------------------------------------------------------------

    Molecular point group: c1
  Charge       = 0
  Multiplicity = 1
  Basis Set: AUG-CC-PVTZ
    Blend: AUG-CC-PVTZ
  Basis Set: (AUG-CC-PVTZ AUX)
    Blend: AUG-CC-PVTZ-JKFIT

    Orbital Energies [Eh]
    ---------------------

    Doubly Occupied:

       1A    -80.119828     2A    -20.631891     3A    -20.614527
       4A    -20.611730     5A    -20.607500     6A    -20.605445
       7A    -20.571559     8A    -20.571535     9A    -20.518814
      10A    -11.359565    11A    -11.332890    12A    -11.329572
      13A    -11.324253    14A    -11.302101    15A     -7.634802
      16A     -5.533226    17A     -5.533133    18A     -5.531625
      19A     -1.532477    20A     -1.459136    21A     -1.413979
      22A     -1.395095    23A     -1.384336    24A     -1.370450
      25A     -1.348272    26A     -1.300259    27A     -1.104920
      28A     -1.040660    29A     -0.949505    30A     -0.862455
      31A     -0.857572    32A     -0.828436    33A     -0.781091
      34A     -0.765752    35A     -0.746784    36A     -0.738809
      37A     -0.721779    38A     -0.707301    39A     -0.693644
      40A     -0.670227    41A     -0.655818    42A     -0.646060
      43A     -0.639501    44A     -0.624761    45A     -0.610080
      46A     -0.595721    47A     -0.586606    48A     -0.580196
      49A     -0.570303    50A     -0.558834    51A     -0.545186
      52A     -0.534263    53A     -0.523746    54A     -0.506542
      55A     -0.499673    56A     -0.478688    57A     -0.474390
      58A     -0.468805    59A     -0.455690    60A     -0.445420

  @DF-RHF Final Energy: -1135.78236368792977

   => Energetics <=

    Nuclear Repulsion Energy =           1219.4242494146121771
    One-Electron Energy =               -3991.5987970539895286
    Two-Electron Energy =                1636.3921839514473504
    Total Energy =                      -1135.7823636879297737
  Basis Set: (AUG-CC-PVTZ AUX)
    Blend: AUG-CC-PVTZ-RI
    Molecular point group: c1

    Geometry (in Angstrom), charge = 0, multiplicity = 1:

       Center              X                  Y                   Z               Mass
    ------------   -----------------  -----------------  -----------------  -----------------
         P            2.553298202983     0.044241538215    -0.164339144195    30.973761998420
         O           -0.799725797017    -0.515766461785    -0.850473144195    15.994914619570
         O           -3.205272797017     1.753408538215     0.211198855805    15.994914619570
         O           -3.615581797017    -0.551578461785    -0.930581144195    15.994914619570
         O           -0.984378797017    -1.696660461785     1.176241855805    15.994914619570
         O            1.443133202983     1.224201538215    -0.294936144195    15.994914619570
         O            1.683327202983    -1.298556461785    -0.331259144195    15.994914619570
         O            2.900861202983    -0.064411461785     1.416455855805    15.994914619570
         O            3.717213202983     0.285270538215    -1.039967144195    15.994914619570
         C           -2.236820797017     0.770151538215     0.567804855805    12.000000000000
         C           -0.953075797017     0.814361538215    -0.291113144195    12.000000000000
         C           -2.840945797017    -0.605088461785     0.248587855805    12.000000000000
         C           -1.484162897017    -1.283634461785    -0.168639244195    12.000000000000
         C            0.264377202983     1.193296538215     0.533376855805    12.000000000000
         H           -1.995817797017     0.829502538215     1.637172855805     1.007825032230
         H           -1.075097797017     1.496392538215    -1.137536144195     1.007825032230
         H           -3.399481797017    -1.021859461785     1.096145855805     1.007825032230
         H           -1.765947797017    -2.293874461785    -0.677344144195     1.007825032230
         H            0.383482202983     0.497757538215     1.368537855805     1.007825032230
         H            0.139400202983     2.205353538215     0.934741855805     1.007825032230
         H           -2.949146797017     2.605770538215     0.601039855805     1.007825032230
         H           -4.100473797017     0.294955538215    -0.900633144195     1.007825032230
         H           -0.100073797017    -2.073104461785     0.998490855805     1.007825032230
         H            0.849142202983    -1.080879461785    -0.827710144195     1.007825032230
         H            3.788898202983     0.307873538215     1.570449855805     1.007825032230

  Basis Set: AUG-CC-PVTZ
    Blend: AUG-CC-PVTZ
  Basis Set: (AUG-CC-PVTZ AUX)
    Blend: AUG-CC-PVTZ-JKFIT
	 Reference Energy          =   -1135.7823636879297737 [Eh]
	 Singles Energy            =      -0.0000000000000000 [Eh]
	 Same-Spin Energy          =      -0.8178382384191318 [Eh]
	 Opposite-Spin Energy      =      -2.4233647500207676 [Eh]
	 Correlation Energy        =      -3.2412029884398992 [Eh]
	 Total Energy              =   -1139.0235666763696827 [Eh]

	 ================> DF-SCS-MP2 Energies <==================
	-----------------------------------------------------------
	 SCS Same-Spin Scale       =       0.3333333333333333 [-]
	 SCS Opposite-Spin Scale   =       1.2000000000000000 [-]
	 SCS Same-Spin Energy      =      -0.2726127461397106 [Eh]
	 SCS Opposite-Spin Energy  =      -2.9080377000249209 [Eh]
	 SCS Correlation Energy    =      -3.1806504461646314 [Eh]
	 SCS Total Energy          =   -1138.9630141340944647 [Eh]
	-----------------------------------------------------------

  Dipole Moment: [D]
     X:    -2.9610      Y:     3.1069      Z:     3.5063     Total:     5.5421

*** Psi4 exiting successfully. Buy a developer a beer!
