                               Psi4 1.3.2 release

  ==> Input File <==

--------------------------------------------------------------------------
#psi4
#
memory 32 gb

molecule  {
0 1
  P        2.6114510     0.0433530    -0.1897960
  O       -0.7415730    -0.5166550    -0.8759300
  O       -3.1471200     1.7525200     0.1857420
  O       -3.5574290    -0.5524670    -0.9560380
  O       -0.9262260    -1.6975490     1.1507850
  O        1.5012860     1.2233130    -0.3203930
  O        1.7414800    -1.2994450    -0.3567160
  O        2.9590140    -0.0653000     1.3909990
  O        3.7753660     0.2843820    -1.0654240
  C       -2.1786680     0.7692630     0.5423480
  C       -0.8847949     0.8544307    -0.3486459
  C       -2.7827930    -0.6059770     0.2231310
  C       -1.5369320    -1.4089660    -0.0835960
  C        0.3225300     1.1924080     0.5079200
  H       -1.9376650     0.8286140     1.6117160
  H       -1.0169450     1.4955040    -1.1629930
  H       -3.3413290    -1.0227480     1.0706890
  H       -1.7077950    -2.2947630    -0.7028010
  H        0.4416350     0.4968690     1.3430810
  H        0.1975530     2.2044650     0.9092850
  H       -2.8909940     2.6048820     0.5755830
  H       -4.0423210     0.2940670    -0.9260900
  H       -0.0419210    -2.0739930     0.9730340
  H        0.9072950    -1.0817680    -0.8531670
  H        3.8470510     0.3069850     1.5449930
units angstrom
no_reorient  #important for SAPT in psi4, default
symmetry c1  #important for SAPT in psi4, default
}

set PROPERTIES_ORIGIN ["COM"]
properties('MP2/aug-cc-pvtz', properties = ['dipole'])
--------------------------------------------------------------------------

    Molecular point group: c1
  Charge       = 0
  Multiplicity = 1
  Basis Set: AUG-CC-PVTZ
    Blend: AUG-CC-PVTZ
  Basis Set: (AUG-CC-PVTZ AUX)
    Blend: AUG-CC-PVTZ-JKFIT

    Orbital Energies [Eh]
    ---------------------

    Doubly Occupied:

       1A    -80.114623     2A    -20.611180     3A    -20.605386
       4A    -20.604623     5A    -20.599773     6A    -20.597592
       7A    -20.593371     8A    -20.574354     9A    -20.514350
      10A    -11.361013    11A    -11.324703    12A    -11.322389
      13A    -11.318110    14A    -11.306816    15A     -7.629576
      16A     -5.528001    17A     -5.527908    18A     -5.526417
      19A     -1.459936    20A     -1.445241    21A     -1.410669
      22A     -1.390651    23A     -1.377619    24A     -1.372617
      25A     -1.364035    26A     -1.295705    27A     -1.081281
      28A     -1.046452    29A     -0.945202    30A     -0.860069
      31A     -0.843479    32A     -0.827522    33A     -0.771263
      34A     -0.757797    35A     -0.745647    36A     -0.732916
      37A     -0.716263    38A     -0.692454    39A     -0.684120
      40A     -0.666780    41A     -0.652918    42A     -0.645881
      43A     -0.634512    44A     -0.612370    45A     -0.605150
      46A     -0.593937    47A     -0.581588    48A     -0.577765
      49A     -0.569751    50A     -0.558920    51A     -0.542868
      52A     -0.532628    53A     -0.525508    54A     -0.511218
      55A     -0.488861    56A     -0.485638    57A     -0.476218
      58A     -0.469567    59A     -0.466052    60A     -0.448847

  @DF-RHF Final Energy: -1135.81952407746871

   => Energetics <=

    Nuclear Repulsion Energy =           1214.9994661464988894
    One-Electron Energy =               -3983.3817822324167537
    Two-Electron Energy =                1632.5627920084491507
    Total Energy =                      -1135.8195240774687136
  Basis Set: (AUG-CC-PVTZ AUX)
    Blend: AUG-CC-PVTZ-RI
    Molecular point group: c1

    Geometry (in Angstrom), charge = 0, multiplicity = 1:

       Center              X                  Y                   Z               Mass
    ------------   -----------------  -----------------  -----------------  -----------------
         P            2.558556572025     0.048596930283    -0.168430500860    30.973761998420
         O           -0.794467427975    -0.511411069717    -0.854564500860    15.994914619570
         O           -3.200014427975     1.757763930283     0.207107499140    15.994914619570
         O           -3.610323427975    -0.547223069717    -0.934672500860    15.994914619570
         O           -0.979120427975    -1.692305069717     1.172150499140    15.994914619570
         O            1.448391572025     1.228556930283    -0.299027500860    15.994914619570
         O            1.688585572025    -1.294201069717    -0.335350500860    15.994914619570
         O            2.906119572025    -0.060056069717     1.412364499140    15.994914619570
         O            3.722471572025     0.289625930283    -1.044058500860    15.994914619570
         C           -2.231562427975     0.774506930283     0.563713499140    12.000000000000
         C           -0.937689327975     0.859674630283    -0.327280400860    12.000000000000
         C           -2.835687427975    -0.600733069717     0.244496499140    12.000000000000
         C           -1.589826427975    -1.403722069717    -0.062230500860    12.000000000000
         C            0.269635572025     1.197651930283     0.529285499140    12.000000000000
         H           -1.990559427975     0.833857930283     1.633081499140     1.007825032230
         H           -1.069839427975     1.500747930283    -1.141627500860     1.007825032230
         H           -3.394223427975    -1.017504069717     1.092054499140     1.007825032230
         H           -1.760689427975    -2.289519069717    -0.681435500860     1.007825032230
         H            0.388740572025     0.502112930283     1.364446499140     1.007825032230
         H            0.144658572025     2.209708930283     0.930650499140     1.007825032230
         H           -2.943888427975     2.610125930283     0.596948499140     1.007825032230
         H           -4.095215427975     0.299310930283    -0.904724500860     1.007825032230
         H           -0.094815427975    -2.068749069717     0.994399499140     1.007825032230
         H            0.854400572025    -1.076524069717    -0.831801500860     1.007825032230
         H            3.794156572025     0.312228930283     1.566358499140     1.007825032230

  Basis Set: AUG-CC-PVTZ
    Blend: AUG-CC-PVTZ
  Basis Set: (AUG-CC-PVTZ AUX)
    Blend: AUG-CC-PVTZ-JKFIT
	 Reference Energy          =   -1135.8195240774687136 [Eh]
	 Singles Energy            =      -0.0000000000000000 [Eh]
	 Same-Spin Energy          =      -0.8159937289608908 [Eh]
	 Opposite-Spin Energy      =      -2.4218132851907610 [Eh]
	 Correlation Energy        =      -3.2378070141516520 [Eh]
	 Total Energy              =   -1139.0573310916204264 [Eh]

	 ================> DF-SCS-MP2 Energies <==================
	-----------------------------------------------------------
	 SCS Same-Spin Scale       =       0.3333333333333333 [-]
	 SCS Opposite-Spin Scale   =       1.2000000000000000 [-]
	 SCS Same-Spin Energy      =      -0.2719979096536302 [Eh]
	 SCS Opposite-Spin Energy  =      -2.9061759422289133 [Eh]
	 SCS Correlation Energy    =      -3.1781738518825433 [Eh]
	 SCS Total Energy          =   -1138.9976979293512613 [Eh]
	-----------------------------------------------------------

  Dipole Moment: [D]
     X:    -3.4885      Y:     2.3956      Z:     4.0261     Total:     5.8411

*** Psi4 exiting successfully. Buy a developer a beer!
