                               Psi4 1.4a3.dev225

  ==> Input File <==

--------------------------------------------------------------------------
#psi4
#
memory 32 gb

molecule  {
0 1
  P        2.6113660     0.0433910    -0.1897900
  O       -0.7416560    -0.5164190    -0.8762010
  O       -3.1473860     1.7523070     0.1855430
  O       -3.5574330    -0.5529450    -0.9556820
  O       -0.9255690    -1.6972900     1.1506350
  O        1.5012550     1.2233910    -0.3202530
  O        1.7411940    -1.2993510    -0.3564950
  O        2.9591660    -0.0655390     1.3909200
  O        3.7751240     0.2843830    -1.0656400
  C       -2.1787050     0.7693270     0.5422590
  C       -0.8949630     0.8136090    -0.3166340
  C       -2.7825860    -0.6061320     0.2233240
  C       -1.5777990    -1.3823972    -0.0734245
  C        0.3224410     1.1924200     0.5080110
  H       -1.9377070     0.8289040     1.6116220
  H       -1.0168440     1.4957790    -1.1629650
  H       -3.3408870    -1.0228010     1.0710960
  H       -1.7074320    -2.2947510    -0.7027390
  H        0.4414920     0.4968360     1.3431340
  H        0.1974400     2.2044510     0.9094280
  H       -2.8916000     2.6047160     0.5754970
  H       -4.0429610     0.2932130    -0.9254450
  H       -0.0410590    -2.0731950     0.9726900
  H        0.9073710    -1.0816890    -0.8535130
  H        3.8468470     0.3075270     1.5450430
units angstrom
no_reorient  #important for SAPT in psi4, default
symmetry c1  #important for SAPT in psi4, default
}

set PROPERTIES_ORIGIN ["COM"]
properties('MP2/aug-cc-pvtz', properties = ['dipole'])
--------------------------------------------------------------------------

    Molecular point group: c1
  Charge       = 0
  Multiplicity = 1
  Basis Set: AUG-CC-PVTZ
    Blend: AUG-CC-PVTZ
  Basis Set: (AUG-CC-PVTZ AUX)
    Blend: AUG-CC-PVTZ-JKFIT

    Orbital Energies [Eh]
    ---------------------

    Doubly Occupied:

       1A    -80.114478     2A    -20.610794     3A    -20.607269
       4A    -20.604771     5A    -20.603048     6A    -20.597698
       7A    -20.591782     8A    -20.577190     9A    -20.514211
      10A    -11.363868    11A    -11.324962    12A    -11.320904
      13A    -11.317669    14A    -11.307586    15A     -7.629430
      16A     -5.527853    17A     -5.527765    18A     -5.526268
      19A     -1.461319    20A     -1.446746    21A     -1.411641
      22A     -1.390020    23A     -1.377578    24A     -1.374780
      25A     -1.364537    26A     -1.295543    27A     -1.086324
      28A     -1.055052    29A     -0.947781    30A     -0.858143
      31A     -0.842442    32A     -0.827873    33A     -0.771842
      34A     -0.759661    35A     -0.747377    36A     -0.735838
      37A     -0.716382    38A     -0.691888    39A     -0.683571
      40A     -0.664244    41A     -0.652190    42A     -0.647087
      43A     -0.633205    44A     -0.610060    45A     -0.600207
      46A     -0.597047    47A     -0.581909    48A     -0.578600
      49A     -0.569552    50A     -0.562763    51A     -0.542556
      52A     -0.531015    53A     -0.526882    54A     -0.513903
      55A     -0.491842    56A     -0.486992    57A     -0.474934
      58A     -0.470935    59A     -0.466399    60A     -0.451527

  @DF-RHF Final Energy: -1135.81888867770158

   => Energetics <=

    Nuclear Repulsion Energy =           1216.1895805710989862
    One-Electron Energy =               -3985.6814806867519110
    Two-Electron Energy =                1633.6730114379515726
    Total Energy =                      -1135.8188886777015796
  Basis Set: (AUG-CC-PVTZ AUX)
    Blend: AUG-CC-PVTZ-RI
    Molecular point group: c1

    Geometry (in Angstrom), charge = 0, multiplicity = 1:

       Center              X                  Y                   Z               Mass
    ------------   -----------------  -----------------  -----------------  -----------------
         P            2.561148013022     0.049391882939    -0.170624672860    30.973761998420
         O           -0.791873986978    -0.510418117061    -0.857035672860    15.994914619570
         O           -3.197603986978     1.758307882939     0.204708327140    15.994914619570
         O           -3.607650986978    -0.546944117061    -0.936516672860    15.994914619570
         O           -0.975786986978    -1.691289117061     1.169800327140    15.994914619570
         O            1.451037013022     1.229391882939    -0.301087672860    15.994914619570
         O            1.690976013022    -1.293350117061    -0.337329672860    15.994914619570
         O            2.908948013022    -0.059538117061     1.410085327140    15.994914619570
         O            3.724906013022     0.290383882939    -1.046474672860    15.994914619570
         C           -2.228922986978     0.775327882939     0.561424327140    12.000000000000
         C           -0.945180986978     0.819609882939    -0.297468672860    12.000000000000
         C           -2.832803986978    -0.600131117061     0.242489327140    12.000000000000
         C           -1.628016986978    -1.376396317061    -0.054259172860    12.000000000000
         C            0.272223013022     1.198420882939     0.527176327140    12.000000000000
         H           -1.987924986978     0.834904882939     1.630787327140     1.007825032230
         H           -1.067061986978     1.501779882939    -1.143799672860     1.007825032230
         H           -3.391104986978    -1.016800117061     1.090261327140     1.007825032230
         H           -1.757649986978    -2.288750117061    -0.683573672860     1.007825032230
         H            0.391274013022     0.502836882939     1.362299327140     1.007825032230
         H            0.147222013022     2.210451882939     0.928593327140     1.007825032230
         H           -2.941817986978     2.610716882939     0.594662327140     1.007825032230
         H           -4.093178986978     0.299213882939    -0.906279672860     1.007825032230
         H           -0.091276986978    -2.067194117061     0.991855327140     1.007825032230
         H            0.857153013022    -1.075688117061    -0.834347672860     1.007825032230
         H            3.796629013022     0.313527882939     1.564208327140     1.007825032230

  Basis Set: AUG-CC-PVTZ
    Blend: AUG-CC-PVTZ
  Basis Set: (AUG-CC-PVTZ AUX)
    Blend: AUG-CC-PVTZ-JKFIT
	 Reference Energy          =   -1135.8188886777015796 [Eh]
	 Singles Energy            =      -0.0000000000000000 [Eh]
	 Same-Spin Energy          =      -0.8166530058625685 [Eh]
	 Opposite-Spin Energy      =      -2.4225144936671152 [Eh]
	 Correlation Energy        =      -3.2391674995296835 [Eh]
	 Total Energy              =   -1139.0580561772312649 [Eh]

	 ================> DF-SCS-MP2 Energies <==================
	-----------------------------------------------------------
	 SCS Same-Spin Scale       =       0.3333333333333333 [-]
	 SCS Opposite-Spin Scale   =       1.2000000000000000 [-]
	 SCS Same-Spin Energy      =      -0.2722176686208562 [Eh]
	 SCS Opposite-Spin Energy  =      -2.9070173924005380 [Eh]
	 SCS Correlation Energy    =      -3.1792350610213940 [Eh]
	 SCS Total Energy          =   -1138.9981237387230522 [Eh]
	-----------------------------------------------------------

  Dipole Moment: [D]
     X:    -3.6121      Y:     2.3608      Z:     4.0281     Total:     5.9030

*** Psi4 exiting successfully. Buy a developer a beer!
