                               Psi4 1.3.2 release

  ==> Input File <==

--------------------------------------------------------------------------
#psi4
#
memory 32 gb

molecule  {
0 1
  P        2.6114510     0.0433530    -0.1897960
  O       -0.7415730    -0.5166550    -0.8759300
  O       -3.1471200     1.7525200     0.1857420
  O       -3.5574290    -0.5524670    -0.9560380
  O       -0.9262260    -1.6975490     1.1507850
  O        1.5012860     1.2233130    -0.3203930
  O        1.7414800    -1.2994450    -0.3567160
  O        2.9590140    -0.0653000     1.3909990
  O        3.7753660     0.2843820    -1.0654240
  C       -2.1786680     0.7692630     0.5423480
  C       -0.8949230     0.8134730    -0.3165700
  C       -2.7827930    -0.6059770     0.2231310
  C       -1.5369320    -1.4089660    -0.0835960
  C        0.3120262     1.1518420     0.5403707
  H       -1.9376650     0.8286140     1.6117160
  H       -1.0169450     1.4955040    -1.1629930
  H       -3.3413290    -1.0227480     1.0706890
  H       -1.7077950    -2.2947630    -0.7028010
  H        0.4416350     0.4968690     1.3430810
  H        0.1975530     2.2044650     0.9092850
  H       -2.8909940     2.6048820     0.5755830
  H       -4.0423210     0.2940670    -0.9260900
  H       -0.0419210    -2.0739930     0.9730340
  H        0.9072950    -1.0817680    -0.8531670
  H        3.8470510     0.3069850     1.5449930
units angstrom
no_reorient  #important for SAPT in psi4, default
symmetry c1  #important for SAPT in psi4, default
}

set PROPERTIES_ORIGIN ["COM"]
properties('MP2/aug-cc-pvtz', properties = ['dipole'])
--------------------------------------------------------------------------

    Molecular point group: c1
  Charge       = 0
  Multiplicity = 1
  Basis Set: AUG-CC-PVTZ
    Blend: AUG-CC-PVTZ
  Basis Set: (AUG-CC-PVTZ AUX)
    Blend: AUG-CC-PVTZ-JKFIT

    Orbital Energies [Eh]
    ---------------------

    Doubly Occupied:

       1A    -80.112907     2A    -20.610588     3A    -20.606751
       4A    -20.603734     5A    -20.603371     6A    -20.597856
       7A    -20.595543     8A    -20.575305     9A    -20.513130
      10A    -11.362569    11A    -11.323695    12A    -11.321726
      13A    -11.319735    14A    -11.307660    15A     -7.627991
      16A     -5.526371    17A     -5.526317    18A     -5.524851
      19A     -1.462433    20A     -1.446910    21A     -1.411959
      22A     -1.386808    23A     -1.375987    24A     -1.373952
      25A     -1.368872    26A     -1.294377    27A     -1.085809
      28A     -1.047624    29A     -0.947087    30A     -0.856518
      31A     -0.843839    32A     -0.831053    33A     -0.771603
      34A     -0.759004    35A     -0.746626    36A     -0.736139
      37A     -0.716127    38A     -0.689674    39A     -0.683247
      40A     -0.668237    41A     -0.650246    42A     -0.647828
      43A     -0.631923    44A     -0.612757    45A     -0.601963
      46A     -0.595240    47A     -0.581128    48A     -0.579650
      49A     -0.570411    50A     -0.560725    51A     -0.543910
      52A     -0.534795    53A     -0.526409    54A     -0.513995
      55A     -0.490234    56A     -0.488787    57A     -0.475399
      58A     -0.468897    59A     -0.465210    60A     -0.449984

  @DF-RHF Final Energy: -1135.81869146587269

   => Energetics <=

    Nuclear Repulsion Energy =           1216.0959184431519589
    One-Electron Energy =               -3985.5222749747995294
    Two-Electron Energy =                1633.6076650657751088
    Total Energy =                      -1135.8186914658726892
  Basis Set: (AUG-CC-PVTZ AUX)
    Blend: AUG-CC-PVTZ-RI
    Molecular point group: c1

    Geometry (in Angstrom), charge = 0, multiplicity = 1:

       Center              X                  Y                   Z               Mass
    ------------   -----------------  -----------------  -----------------  -----------------
         P            2.559632929343     0.052849986524    -0.171796825731    30.973761998420
         O           -0.793391070657    -0.507158013476    -0.857930825731    15.994914619570
         O           -3.198938070657     1.762016986524     0.203741174269    15.994914619570
         O           -3.609247070657    -0.542970013476    -0.938038825731    15.994914619570
         O           -0.978044070657    -1.688052013476     1.168784174269    15.994914619570
         O            1.449467929343     1.232809986524    -0.302393825731    15.994914619570
         O            1.689661929343    -1.289948013476    -0.338716825731    15.994914619570
         O            2.907195929343    -0.055803013476     1.408998174269    15.994914619570
         O            3.723547929343     0.293878986524    -1.047424825731    15.994914619570
         C           -2.230486070657     0.778759986524     0.560347174269    12.000000000000
         C           -0.946741070657     0.822969986524    -0.298570825731    12.000000000000
         C           -2.834611070657    -0.596480013476     0.241130174269    12.000000000000
         C           -1.588750070657    -1.399469013476    -0.065596825731    12.000000000000
         C            0.260208129343     1.161338986524     0.558369874269    12.000000000000
         H           -1.989483070657     0.838110986524     1.629715174269     1.007825032230
         H           -1.068763070657     1.505000986524    -1.144993825731     1.007825032230
         H           -3.393147070657    -1.013251013476     1.088688174269     1.007825032230
         H           -1.759613070657    -2.285266013476    -0.684801825731     1.007825032230
         H            0.389816929343     0.506365986524     1.361080174269     1.007825032230
         H            0.145734929343     2.213961986524     0.927284174269     1.007825032230
         H           -2.942812070657     2.614378986524     0.593582174269     1.007825032230
         H           -4.094139070657     0.303563986524    -0.908090825731     1.007825032230
         H           -0.093739070657    -2.064496013476     0.991033174269     1.007825032230
         H            0.855476929343    -1.072271013476    -0.835167825731     1.007825032230
         H            3.795232929343     0.316481986524     1.562992174269     1.007825032230

  Basis Set: AUG-CC-PVTZ
    Blend: AUG-CC-PVTZ
  Basis Set: (AUG-CC-PVTZ AUX)
    Blend: AUG-CC-PVTZ-JKFIT
	 Reference Energy          =   -1135.8186914658726892 [Eh]
	 Singles Energy            =      -0.0000000000000000 [Eh]
	 Same-Spin Energy          =      -0.8163949349323745 [Eh]
	 Opposite-Spin Energy      =      -2.4224693365845544 [Eh]
	 Correlation Energy        =      -3.2388642715169289 [Eh]
	 Total Energy              =   -1139.0575557373895208 [Eh]

	 ================> DF-SCS-MP2 Energies <==================
	-----------------------------------------------------------
	 SCS Same-Spin Scale       =       0.3333333333333333 [-]
	 SCS Opposite-Spin Scale   =       1.2000000000000000 [-]
	 SCS Same-Spin Energy      =      -0.2721316449774581 [Eh]
	 SCS Opposite-Spin Energy  =      -2.9069632039014652 [Eh]
	 SCS Correlation Energy    =      -3.1790948488789232 [Eh]
	 SCS Total Energy          =   -1138.9977863147516928 [Eh]
	-----------------------------------------------------------

  Dipole Moment: [D]
     X:    -3.5836      Y:     2.2764      Z:     4.0697     Total:     5.8810

*** Psi4 exiting successfully. Buy a developer a beer!
