                               Psi4 1.3.2 release

  ==> Input File <==

--------------------------------------------------------------------------
#psi4
#
memory 32 gb

molecule  {
0 1
  P        2.6114510     0.0433530    -0.1897960
  O       -0.7415730    -0.5166550    -0.8759300
  O       -3.1471200     1.7525200     0.1857420
  O       -3.5574290    -0.5524670    -0.9560380
  O       -0.9262260    -1.6975490     1.1507850
  O        1.4430394     1.1972707    -0.3981474
  O        1.7414800    -1.2994450    -0.3567160
  O        2.9590140    -0.0653000     1.3909990
  O        3.7753660     0.2843820    -1.0654240
  C       -2.1786680     0.7692630     0.5423480
  C       -0.8949230     0.8134730    -0.3165700
  C       -2.7827930    -0.6059770     0.2231310
  C       -1.5369320    -1.4089660    -0.0835960
  C        0.3225300     1.1924080     0.5079200
  H       -1.9376650     0.8286140     1.6117160
  H       -1.0169450     1.4955040    -1.1629930
  H       -3.3413290    -1.0227480     1.0706890
  H       -1.7077950    -2.2947630    -0.7028010
  H        0.4416350     0.4968690     1.3430810
  H        0.1975530     2.2044650     0.9092850
  H       -2.8909940     2.6048820     0.5755830
  H       -4.0423210     0.2940670    -0.9260900
  H       -0.0419210    -2.0739930     0.9730340
  H        0.9072950    -1.0817680    -0.8531670
  H        3.8470510     0.3069850     1.5449930
units angstrom
no_reorient  #important for SAPT in psi4, default
symmetry c1  #important for SAPT in psi4, default
}

set PROPERTIES_ORIGIN ["COM"]
properties('MP2/aug-cc-pvtz', properties = ['dipole'])
--------------------------------------------------------------------------

    Molecular point group: c1
  Charge       = 0
  Multiplicity = 1
  Basis Set: AUG-CC-PVTZ
    Blend: AUG-CC-PVTZ
  Basis Set: (AUG-CC-PVTZ AUX)
    Blend: AUG-CC-PVTZ-JKFIT

    Orbital Energies [Eh]
    ---------------------

    Doubly Occupied:

       1A    -80.118906     2A    -20.618064     3A    -20.605093
       4A    -20.604578     5A    -20.601623     6A    -20.596915
       7A    -20.593900     8A    -20.573506     9A    -20.517042
      10A    -11.360774    11A    -11.320784    12A    -11.319345
      13A    -11.315076    14A    -11.305589    15A     -7.633390
      16A     -5.531779    17A     -5.531669    18A     -5.530234
      19A     -1.461613    20A     -1.446673    21A     -1.409867
      22A     -1.392739    23A     -1.375836    24A     -1.372131
      25A     -1.366962    26A     -1.298083    27A     -1.081601
      28A     -1.044619    29A     -0.943298    30A     -0.855950
      31A     -0.842624    32A     -0.828733    33A     -0.769672
      34A     -0.757603    35A     -0.745068    36A     -0.733323
      37A     -0.718089    38A     -0.693330    39A     -0.682338
      40A     -0.667174    41A     -0.655757    42A     -0.644559
      43A     -0.630125    44A     -0.612284    45A     -0.600257
      46A     -0.593723    47A     -0.583055    48A     -0.577665
      49A     -0.568363    50A     -0.560220    51A     -0.546058
      52A     -0.530338    53A     -0.524378    54A     -0.510290
      55A     -0.488774    56A     -0.486362    57A     -0.477450
      58A     -0.470316    59A     -0.465896    60A     -0.447184

  @DF-RHF Final Energy: -1135.81785221851237

   => Energetics <=

    Nuclear Repulsion Energy =           1215.9053398671881041
    One-Electron Energy =               -3985.1690897837479497
    Two-Electron Energy =                1633.4458976980474745
    Total Energy =                      -1135.8178522185123711
  Basis Set: (AUG-CC-PVTZ AUX)
    Blend: AUG-CC-PVTZ-RI
    Molecular point group: c1

    Geometry (in Angstrom), charge = 0, multiplicity = 1:

       Center              X                  Y                   Z               Mass
    ------------   -----------------  -----------------  -----------------  -----------------
         P            2.563135262860     0.052544587458    -0.164697054435    30.973761998420
         O           -0.789888737140    -0.507463412542    -0.850831054435    15.994914619570
         O           -3.195435737140     1.761711587458     0.210840945565    15.994914619570
         O           -3.605744737140    -0.543275412542    -0.930939054435    15.994914619570
         O           -0.974541737140    -1.688357412542     1.175883945565    15.994914619570
         O            1.394723662860     1.206462287458    -0.373048454435    15.994914619570
         O            1.693164262860    -1.290253412542    -0.331617054435    15.994914619570
         O            2.910698262860    -0.056108412542     1.416097945565    15.994914619570
         O            3.727050262860     0.293573587458    -1.040325054435    15.994914619570
         C           -2.226983737140     0.778454587458     0.567446945565    12.000000000000
         C           -0.943238737140     0.822664587458    -0.291471054435    12.000000000000
         C           -2.831108737140    -0.596785412542     0.248229945565    12.000000000000
         C           -1.585247737140    -1.399774412542    -0.058497054435    12.000000000000
         C            0.274214262860     1.201599587458     0.533018945565    12.000000000000
         H           -1.985980737140     0.837805587458     1.636814945565     1.007825032230
         H           -1.065260737140     1.504695587458    -1.137894054435     1.007825032230
         H           -3.389644737140    -1.013556412542     1.095787945565     1.007825032230
         H           -1.756110737140    -2.285571412542    -0.677702054435     1.007825032230
         H            0.393319262860     0.506060587458     1.368179945565     1.007825032230
         H            0.149237262860     2.213656587458     0.934383945565     1.007825032230
         H           -2.939309737140     2.614073587458     0.600681945565     1.007825032230
         H           -4.090636737140     0.303258587458    -0.900991054435     1.007825032230
         H           -0.090236737140    -2.064801412542     0.998132945565     1.007825032230
         H            0.858979262860    -1.072576412542    -0.828068054435     1.007825032230
         H            3.798735262860     0.316176587458     1.570091945565     1.007825032230

  Basis Set: AUG-CC-PVTZ
    Blend: AUG-CC-PVTZ
  Basis Set: (AUG-CC-PVTZ AUX)
    Blend: AUG-CC-PVTZ-JKFIT
	 Reference Energy          =   -1135.8178522185123711 [Eh]
	 Singles Energy            =      -0.0000000000000000 [Eh]
	 Same-Spin Energy          =      -0.8168646115474757 [Eh]
	 Opposite-Spin Energy      =      -2.4233512330038525 [Eh]
	 Correlation Energy        =      -3.2402158445513281 [Eh]
	 Total Energy              =   -1139.0580680630637289 [Eh]

	 ================> DF-SCS-MP2 Energies <==================
	-----------------------------------------------------------
	 SCS Same-Spin Scale       =       0.3333333333333333 [-]
	 SCS Opposite-Spin Scale   =       1.2000000000000000 [-]
	 SCS Same-Spin Energy      =      -0.2722882038491585 [Eh]
	 SCS Opposite-Spin Energy  =      -2.9080214796046229 [Eh]
	 SCS Correlation Energy    =      -3.1803096834537814 [Eh]
	 SCS Total Energy          =   -1138.9981619019661139 [Eh]
	-----------------------------------------------------------

  Dipole Moment: [D]
     X:    -3.1876      Y:     2.3066      Z:     4.1797     Total:     5.7403

*** Psi4 exiting successfully. Buy a developer a beer!
