                               Psi4 1.3.2 release

  ==> Input File <==

--------------------------------------------------------------------------
#psi4
#
memory 32 gb

molecule  {
0 1
  P        2.6114510     0.0433530    -0.1897960
  O       -0.7415730    -0.5166550    -0.8759300
  O       -3.1471200     1.7525200     0.1857420
  O       -3.5574290    -0.5524670    -0.9560380
  O       -0.9262260    -1.6975490     1.1507850
  O        1.5012860     1.2233130    -0.3203930
  O        1.7414800    -1.2994450    -0.3567160
  O        2.9590140    -0.0653000     1.3909990
  O        3.7753660     0.2843820    -1.0654240
  C       -2.1299186     0.7489082     0.5332804
  C       -0.8949230     0.8134730    -0.3165700
  C       -2.7827930    -0.6059770     0.2231310
  C       -1.5369320    -1.4089660    -0.0835960
  C        0.3225300     1.1924080     0.5079200
  H       -1.9376650     0.8286140     1.6117160
  H       -1.0169450     1.4955040    -1.1629930
  H       -3.3413290    -1.0227480     1.0706890
  H       -1.7077950    -2.2947630    -0.7028010
  H        0.4416350     0.4968690     1.3430810
  H        0.1975530     2.2044650     0.9092850
  H       -2.8909940     2.6048820     0.5755830
  H       -4.0423210     0.2940670    -0.9260900
  H       -0.0419210    -2.0739930     0.9730340
  H        0.9072950    -1.0817680    -0.8531670
  H        3.8470510     0.3069850     1.5449930
units angstrom
no_reorient  #important for SAPT in psi4, default
symmetry c1  #important for SAPT in psi4, default
}

set PROPERTIES_ORIGIN ["COM"]
properties('MP2/aug-cc-pvtz', properties = ['dipole'])
--------------------------------------------------------------------------

    Molecular point group: c1
  Charge       = 0
  Multiplicity = 1
  Basis Set: AUG-CC-PVTZ
    Blend: AUG-CC-PVTZ
  Basis Set: (AUG-CC-PVTZ AUX)
    Blend: AUG-CC-PVTZ-JKFIT

    Orbital Energies [Eh]
    ---------------------

    Doubly Occupied:

       1A    -80.115698     2A    -20.611858     3A    -20.606109
       4A    -20.604605     5A    -20.601324     6A    -20.599221
       7A    -20.595709     8A    -20.575325     9A    -20.515244
      10A    -11.362540    11A    -11.323508    12A    -11.322722
      13A    -11.319023    14A    -11.308680    15A     -7.630649
      16A     -5.529070    17A     -5.528986    18A     -5.527484
      19A     -1.464666    20A     -1.449308    21A     -1.399849
      22A     -1.391563    23A     -1.378922    24A     -1.371314
      25A     -1.367622    26A     -1.296585    27A     -1.092628
      28A     -1.048854    29A     -0.948648    30A     -0.857456
      31A     -0.842023    32A     -0.831918    33A     -0.771492
      34A     -0.759854    35A     -0.746368    36A     -0.732259
      37A     -0.716856    38A     -0.694078    39A     -0.681938
      40A     -0.665692    41A     -0.653845    42A     -0.647998
      43A     -0.632807    44A     -0.613546    45A     -0.601576
      46A     -0.595345    47A     -0.582645    48A     -0.577963
      49A     -0.563739    50A     -0.559421    51A     -0.544181
      52A     -0.533349    53A     -0.527825    54A     -0.512311
      55A     -0.492747    56A     -0.490811    57A     -0.475695
      58A     -0.470441    59A     -0.467731    60A     -0.454185

  @DF-RHF Final Energy: -1135.81868804217947

   => Energetics <=

    Nuclear Repulsion Energy =           1216.6312041513983786
    One-Electron Energy =               -3986.5281732152734548
    Two-Electron Energy =                1634.0782810216956022
    Total Energy =                      -1135.8186880421794740
  Basis Set: (AUG-CC-PVTZ AUX)
    Blend: AUG-CC-PVTZ-RI
    Molecular point group: c1

    Geometry (in Angstrom), charge = 0, multiplicity = 1:

       Center              X                  Y                   Z               Mass
    ------------   -----------------  -----------------  -----------------  -----------------
         P            2.556541715473     0.051795576944    -0.169630833940    30.973761998420
         O           -0.796482284527    -0.508212423056    -0.855764833940    15.994914619570
         O           -3.202029284527     1.760962576944     0.205907166060    15.994914619570
         O           -3.612338284527    -0.544024423056    -0.935872833940    15.994914619570
         O           -0.981135284527    -1.689106423056     1.170950166060    15.994914619570
         O            1.446376715473     1.231755576944    -0.300227833940    15.994914619570
         O            1.686570715473    -1.291002423056    -0.336550833940    15.994914619570
         O            2.904104715473    -0.056857423056     1.411164166060    15.994914619570
         O            3.720456715473     0.292824576944    -1.045258833940    15.994914619570
         C           -2.184827884527     0.757350776944     0.553445566060    12.000000000000
         C           -0.949832284527     0.821915576944    -0.296404833940    12.000000000000
         C           -2.837702284527    -0.597534423056     0.243296166060    12.000000000000
         C           -1.591841284527    -1.400523423056    -0.063430833940    12.000000000000
         C            0.267620715473     1.200850576944     0.528085166060    12.000000000000
         H           -1.992574284527     0.837056576944     1.631881166060     1.007825032230
         H           -1.071854284527     1.503946576944    -1.142827833940     1.007825032230
         H           -3.396238284527    -1.014305423056     1.090854166060     1.007825032230
         H           -1.762704284527    -2.286320423056    -0.682635833940     1.007825032230
         H            0.386725715473     0.505311576944     1.363246166060     1.007825032230
         H            0.142643715473     2.212907576944     0.929450166060     1.007825032230
         H           -2.945903284527     2.613324576944     0.595748166060     1.007825032230
         H           -4.097230284527     0.302509576944    -0.905924833940     1.007825032230
         H           -0.096830284527    -2.065550423056     0.993199166060     1.007825032230
         H            0.852385715473    -1.073325423056    -0.833001833940     1.007825032230
         H            3.792141715473     0.315427576944     1.565158166060     1.007825032230

  Basis Set: AUG-CC-PVTZ
    Blend: AUG-CC-PVTZ
  Basis Set: (AUG-CC-PVTZ AUX)
    Blend: AUG-CC-PVTZ-JKFIT
	 Reference Energy          =   -1135.8186880421794740 [Eh]
	 Singles Energy            =      -0.0000000000000000 [Eh]
	 Same-Spin Energy          =      -0.8167604207423785 [Eh]
	 Opposite-Spin Energy      =      -2.4229505966724245 [Eh]
	 Correlation Energy        =      -3.2397110174148032 [Eh]
	 Total Energy              =   -1139.0583990595941941 [Eh]

	 ================> DF-SCS-MP2 Energies <==================
	-----------------------------------------------------------
	 SCS Same-Spin Scale       =       0.3333333333333333 [-]
	 SCS Opposite-Spin Scale   =       1.2000000000000000 [-]
	 SCS Same-Spin Energy      =      -0.2722534735807928 [Eh]
	 SCS Opposite-Spin Energy  =      -2.9075407160069093 [Eh]
	 SCS Correlation Energy    =      -3.1797941895877022 [Eh]
	 SCS Total Energy          =   -1138.9984822317671842 [Eh]
	-----------------------------------------------------------

  Dipole Moment: [D]
     X:    -3.3428      Y:     2.1864      Z:     4.0204     Total:     5.6673

*** Psi4 exiting successfully. Buy a developer a beer!
