                               Psi4 1.3.2 release

  ==> Input File <==

--------------------------------------------------------------------------
#psi4
#
memory 32 gb

molecule  {
0 1
  P        2.6114510     0.0433530    -0.1897960
  O       -0.7415730    -0.5166550    -0.8759300
  O       -3.1471200     1.7525200     0.1857420
  O       -3.5574290    -0.5524670    -0.9560380
  O       -0.9262260    -1.6975490     1.1507850
  O        1.5012860     1.2233130    -0.3203930
  O        1.7414800    -1.2994450    -0.3567160
  O        2.9590140    -0.0653000     1.3909990
  O        3.7753660     0.2843820    -1.0654240
  C       -2.1786680     0.7692630     0.5423480
  C       -0.8949230     0.8134730    -0.3165700
  C       -2.7827930    -0.6059770     0.2231310
  C       -1.6237353    -1.3679480    -0.2590460
  C        0.3225300     1.1924080     0.5079200
  H       -1.9376650     0.8286140     1.6117160
  H       -1.0169450     1.4955040    -1.1629930
  H       -3.3413290    -1.0227480     1.0706890
  H       -1.7077950    -2.2947630    -0.7028010
  H        0.4416350     0.4968690     1.3430810
  H        0.1975530     2.2044650     0.9092850
  H       -2.8909940     2.6048820     0.5755830
  H       -4.0423210     0.2940670    -0.9260900
  H       -0.0419210    -2.0739930     0.9730340
  H        0.9072950    -1.0817680    -0.8531670
  H        3.8470510     0.3069850     1.5449930
units angstrom
no_reorient  #important for SAPT in psi4, default
symmetry c1  #important for SAPT in psi4, default
}

set PROPERTIES_ORIGIN ["COM"]
properties('MP2/aug-cc-pvtz', properties = ['dipole'])
--------------------------------------------------------------------------

    Molecular point group: c1
  Charge       = 0
  Multiplicity = 1
  Basis Set: AUG-CC-PVTZ
    Blend: AUG-CC-PVTZ
  Basis Set: (AUG-CC-PVTZ AUX)
    Blend: AUG-CC-PVTZ-JKFIT

    Orbital Energies [Eh]
    ---------------------

    Doubly Occupied:

       1A    -80.114373     2A    -20.619173     3A    -20.610761
       4A    -20.609874     5A    -20.606047     6A    -20.597316
       7A    -20.579148     8A    -20.556544     9A    -20.514227
      10A    -11.367298    11A    -11.328787    12A    -11.326633
      13A    -11.323160    14A    -11.311743    15A     -7.629330
      16A     -5.527766    17A     -5.527652    18A     -5.526167
      19A     -1.472160    20A     -1.450625    21A     -1.415699
      22A     -1.389724    23A     -1.380525    24A     -1.376820
      25A     -1.310710    26A     -1.295622    27A     -1.092767
      28A     -1.057784    29A     -0.955180    30A     -0.863232
      31A     -0.852198    32A     -0.833607    33A     -0.772875
      34A     -0.763571    35A     -0.739917    36A     -0.736352
      37A     -0.715360    38A     -0.694750    39A     -0.678795
      40A     -0.663214    41A     -0.650797    42A     -0.649338
      43A     -0.637378    44A     -0.611889    45A     -0.597577
      46A     -0.590373    47A     -0.583190    48A     -0.580923
      49A     -0.566856    50A     -0.561336    51A     -0.539469
      52A     -0.526322    53A     -0.520876    54A     -0.513641
      55A     -0.497930    56A     -0.484098    57A     -0.473222
      58A     -0.467289    59A     -0.461548    60A     -0.454831

  @DF-RHF Final Energy: -1135.79275532603469

   => Energetics <=

    Nuclear Repulsion Energy =           1215.1745369255736477
    One-Electron Energy =               -3983.6218490009778179
    Two-Electron Energy =                1632.6545567493694762
    Total Energy =                      -1135.7927553260346940
  Basis Set: (AUG-CC-PVTZ AUX)
    Blend: AUG-CC-PVTZ-RI
    Molecular point group: c1

    Geometry (in Angstrom), charge = 0, multiplicity = 1:

       Center              X                  Y                   Z               Mass
    ------------   -----------------  -----------------  -----------------  -----------------
         P            2.563613441325     0.048593784458    -0.160950735946    30.973761998420
         O           -0.789410558675    -0.511414215542    -0.847084735946    15.994914619570
         O           -3.194957558675     1.757760784458     0.214587264054    15.994914619570
         O           -3.605266558675    -0.547226215542    -0.927192735946    15.994914619570
         O           -0.974063558675    -1.692308215542     1.179630264054    15.994914619570
         O            1.453448441325     1.228553784458    -0.291547735946    15.994914619570
         O            1.693642441325    -1.294204215542    -0.327870735946    15.994914619570
         O            2.911176441325    -0.060059215542     1.419844264054    15.994914619570
         O            3.727528441325     0.289622784458    -1.036578735946    15.994914619570
         C           -2.226505558675     0.774503784458     0.571193264054    12.000000000000
         C           -0.942760558675     0.818713784458    -0.287724735946    12.000000000000
         C           -2.830630558675    -0.600736215542     0.251976264054    12.000000000000
         C           -1.671572858675    -1.362707215542    -0.230200735946    12.000000000000
         C            0.274692441325     1.197648784458     0.536765264054    12.000000000000
         H           -1.985502558675     0.833854784458     1.640561264054     1.007825032230
         H           -1.064782558675     1.500744784458    -1.134147735946     1.007825032230
         H           -3.389166558675    -1.017507215542     1.099534264054     1.007825032230
         H           -1.755632558675    -2.289522215542    -0.673955735946     1.007825032230
         H            0.393797441325     0.502109784458     1.371926264054     1.007825032230
         H            0.149715441325     2.209705784458     0.938130264054     1.007825032230
         H           -2.938831558675     2.610122784458     0.604428264054     1.007825032230
         H           -4.090158558675     0.299307784458    -0.897244735946     1.007825032230
         H           -0.089758558675    -2.068752215542     1.001879264054     1.007825032230
         H            0.859457441325    -1.076527215542    -0.824321735946     1.007825032230
         H            3.799213441325     0.312225784458     1.573838264054     1.007825032230

  Basis Set: AUG-CC-PVTZ
    Blend: AUG-CC-PVTZ
  Basis Set: (AUG-CC-PVTZ AUX)
    Blend: AUG-CC-PVTZ-JKFIT
	 Reference Energy          =   -1135.7927553260346940 [Eh]
	 Singles Energy            =      -0.0000000000000000 [Eh]
	 Same-Spin Energy          =      -0.8170805594687592 [Eh]
	 Opposite-Spin Energy      =      -2.4249641424874437 [Eh]
	 Correlation Energy        =      -3.2420447019562029 [Eh]
	 Total Energy              =   -1139.0348000279909684 [Eh]

	 ================> DF-SCS-MP2 Energies <==================
	-----------------------------------------------------------
	 SCS Same-Spin Scale       =       0.3333333333333333 [-]
	 SCS Opposite-Spin Scale   =       1.2000000000000000 [-]
	 SCS Same-Spin Energy      =      -0.2723601864895864 [Eh]
	 SCS Opposite-Spin Energy  =      -2.9099569709849322 [Eh]
	 SCS Correlation Energy    =      -3.1823171574745186 [Eh]
	 SCS Total Energy          =   -1138.9750724835091660 [Eh]
	-----------------------------------------------------------

  Dipole Moment: [D]
     X:    -3.8260      Y:     2.8029      Z:     3.2981     Total:     5.7769

*** Psi4 exiting successfully. Buy a developer a beer!
