                               Psi4 1.3.2 release

  ==> Input File <==

--------------------------------------------------------------------------
#psi4
#
memory 32 gb

molecule  {
0 1
  P        2.6114510     0.0433530    -0.1897960
  O       -0.8525718    -0.4167647    -0.8606390
  O       -3.1471200     1.7525200     0.1857420
  O       -3.5574290    -0.5524670    -0.9560380
  O       -0.9262260    -1.6975490     1.1507850
  O        1.5012860     1.2233130    -0.3203930
  O        1.7414800    -1.2994450    -0.3567160
  O        2.9590140    -0.0653000     1.3909990
  O        3.7753660     0.2843820    -1.0654240
  C       -2.1786680     0.7692630     0.5423480
  C       -0.8949230     0.8134730    -0.3165700
  C       -2.7827930    -0.6059770     0.2231310
  C       -1.5369320    -1.4089660    -0.0835960
  C        0.3225300     1.1924080     0.5079200
  H       -1.9376650     0.8286140     1.6117160
  H       -1.0169450     1.4955040    -1.1629930
  H       -3.3413290    -1.0227480     1.0706890
  H       -1.7077950    -2.2947630    -0.7028010
  H        0.4416350     0.4968690     1.3430810
  H        0.1975530     2.2044650     0.9092850
  H       -2.8909940     2.6048820     0.5755830
  H       -4.0423210     0.2940670    -0.9260900
  H       -0.0419210    -2.0739930     0.9730340
  H        0.9072950    -1.0817680    -0.8531670
  H        3.8470510     0.3069850     1.5449930
units angstrom
no_reorient  #important for SAPT in psi4, default
symmetry c1  #important for SAPT in psi4, default
}

set PROPERTIES_ORIGIN ["COM"]
properties('MP2/aug-cc-pvtz', properties = ['dipole'])
--------------------------------------------------------------------------

    Molecular point group: c1
  Charge       = 0
  Multiplicity = 1
  Basis Set: AUG-CC-PVTZ
    Blend: AUG-CC-PVTZ
  Basis Set: (AUG-CC-PVTZ AUX)
    Blend: AUG-CC-PVTZ-JKFIT

    Orbital Energies [Eh]
    ---------------------

    Doubly Occupied:

       1A    -80.118119     2A    -20.613460     3A    -20.608153
       4A    -20.605490     5A    -20.600248     6A    -20.599993
       7A    -20.597159     8A    -20.571230     9A    -20.517162
      10A    -11.365513    11A    -11.317118    12A    -11.314661
      13A    -11.306535    14A    -11.302575    15A     -7.633091
      16A     -5.531476    17A     -5.531459    18A     -5.529917
      19A     -1.478479    20A     -1.455178    21A     -1.406413
      22A     -1.393194    23A     -1.385794    24A     -1.382851
      25A     -1.368374    26A     -1.298490    27A     -1.073649
      28A     -1.051875    29A     -0.953581    30A     -0.855669
      31A     -0.845572    32A     -0.826986    33A     -0.773555
      34A     -0.760896    35A     -0.753109    36A     -0.733478
      37A     -0.719655    38A     -0.696994    39A     -0.684839
      40A     -0.668915    41A     -0.660554    42A     -0.653253
      43A     -0.629110    44A     -0.620629    45A     -0.601246
      46A     -0.594813    47A     -0.585293    48A     -0.579454
      49A     -0.566491    50A     -0.557727    51A     -0.547027
      52A     -0.535773    53A     -0.530605    54A     -0.509060
      55A     -0.494875    56A     -0.476388    57A     -0.474094
      58A     -0.470056    59A     -0.464716    60A     -0.440430

  @DF-RHF Final Energy: -1135.81420094889472

   => Energetics <=

    Nuclear Repulsion Energy =           1217.7506211844433892
    One-Electron Energy =               -3988.6846418897580406
    Two-Electron Energy =                1635.1198197564199290
    Total Energy =                      -1135.8142009488947224
  Basis Set: (AUG-CC-PVTZ AUX)
    Blend: AUG-CC-PVTZ-RI
    Molecular point group: c1

    Geometry (in Angstrom), charge = 0, multiplicity = 1:

       Center              X                  Y                   Z               Mass
    ------------   -----------------  -----------------  -----------------  -----------------
         P            2.566803509262     0.043787572457    -0.171167181817    30.973761998420
         O           -0.897219290738    -0.416330127543    -0.842010181817    15.994914619570
         O           -3.191767490738     1.752954572457     0.204370818183    15.994914619570
         O           -3.602076490738    -0.552032427543    -0.937409181817    15.994914619570
         O           -0.970873490738    -1.697114427543     1.169413818183    15.994914619570
         O            1.456638509262     1.223747572457    -0.301764181817    15.994914619570
         O            1.696832509262    -1.299010427543    -0.338087181817    15.994914619570
         O            2.914366509262    -0.064865427543     1.409627818183    15.994914619570
         O            3.730718509262     0.284816572457    -1.046795181817    15.994914619570
         C           -2.223315490738     0.769697572457     0.560976818183    12.000000000000
         C           -0.939570490738     0.813907572457    -0.297941181817    12.000000000000
         C           -2.827440490738    -0.605542427543     0.241759818183    12.000000000000
         C           -1.581579490738    -1.408531427543    -0.064967181817    12.000000000000
         C            0.277882509262     1.192842572457     0.526548818183    12.000000000000
         H           -1.982312490738     0.829048572457     1.630344818183     1.007825032230
         H           -1.061592490738     1.495938572457    -1.144364181817     1.007825032230
         H           -3.385976490738    -1.022313427543     1.089317818183     1.007825032230
         H           -1.752442490738    -2.294328427543    -0.684172181817     1.007825032230
         H            0.396987509262     0.497303572457     1.361709818183     1.007825032230
         H            0.152905509262     2.204899572457     0.927913818183     1.007825032230
         H           -2.935641490738     2.605316572457     0.594211818183     1.007825032230
         H           -4.086968490738     0.294501572457    -0.907461181817     1.007825032230
         H           -0.086568490738    -2.073558427543     0.991662818183     1.007825032230
         H            0.862647509262    -1.081333427543    -0.834538181817     1.007825032230
         H            3.802403509262     0.307419572457     1.563621818183     1.007825032230

  Basis Set: AUG-CC-PVTZ
    Blend: AUG-CC-PVTZ
  Basis Set: (AUG-CC-PVTZ AUX)
    Blend: AUG-CC-PVTZ-JKFIT
	 Reference Energy          =   -1135.8142009488947224 [Eh]
	 Singles Energy            =      -0.0000000000000000 [Eh]
	 Same-Spin Energy          =      -0.8159122295812059 [Eh]
	 Opposite-Spin Energy      =      -2.4196237387372523 [Eh]
	 Correlation Energy        =      -3.2355359683184584 [Eh]
	 Total Energy              =   -1139.0497369172130675 [Eh]

	 ================> DF-SCS-MP2 Energies <==================
	-----------------------------------------------------------
	 SCS Same-Spin Scale       =       0.3333333333333333 [-]
	 SCS Opposite-Spin Scale   =       1.2000000000000000 [-]
	 SCS Same-Spin Energy      =      -0.2719707431937353 [Eh]
	 SCS Opposite-Spin Energy  =      -2.9035484864847025 [Eh]
	 SCS Correlation Energy    =      -3.1755192296784376 [Eh]
	 SCS Total Energy          =   -1138.9897201785731795 [Eh]
	-----------------------------------------------------------

  Dipole Moment: [D]
     X:    -3.0471      Y:     1.8946      Z:     3.9505     Total:     5.3367

*** Psi4 exiting successfully. Buy a developer a beer!
