                               Psi4 1.3.2 release

  ==> Input File <==

--------------------------------------------------------------------------
#psi4
#
memory 32 gb

molecule  {
0 1
  P        2.6114510     0.0433530    -0.1897960
  O       -0.7415730    -0.5166550    -0.8759300
  O       -3.1471200     1.7525200     0.1857420
  O       -3.5574290    -0.5524670    -0.9560380
  O       -0.9262260    -1.6975490     1.1507850
  O        1.5012860     1.2233130    -0.3203930
  O        1.7414800    -1.2994450    -0.3567160
  O        2.9590140    -0.0653000     1.3909990
  O        3.7753660     0.2843820    -1.0654240
  C       -2.1786680     0.7692630     0.5423480
  C       -0.8949230     0.8134730    -0.3165700
  C       -2.7827930    -0.6059770     0.2231310
  C       -1.5369320    -1.4089660    -0.0835960
  C        0.3225300     1.1924080     0.5079200
  H       -1.9376650     0.8286140     1.6117160
  H       -1.0169450     1.4955040    -1.1629930
  H       -3.3413290    -1.0227480     1.0706890
  H       -1.7234105    -2.3757178    -0.7593914
  H        0.4416350     0.4968690     1.3430810
  H        0.1975530     2.2044650     0.9092850
  H       -2.8909940     2.6048820     0.5755830
  H       -4.0423210     0.2940670    -0.9260900
  H       -0.0419210    -2.0739930     0.9730340
  H        0.9072950    -1.0817680    -0.8531670
  H        3.8470510     0.3069850     1.5449930
units angstrom
no_reorient  #important for SAPT in psi4, default
symmetry c1  #important for SAPT in psi4, default
}

set PROPERTIES_ORIGIN ["COM"]
properties('MP2/aug-cc-pvtz', properties = ['dipole'])
--------------------------------------------------------------------------

    Molecular point group: c1
  Charge       = 0
  Multiplicity = 1
  Basis Set: AUG-CC-PVTZ
    Blend: AUG-CC-PVTZ
  Basis Set: (AUG-CC-PVTZ AUX)
    Blend: AUG-CC-PVTZ-JKFIT

    Orbital Energies [Eh]
    ---------------------

    Doubly Occupied:

       1A    -80.115113     2A    -20.611365     3A    -20.606624
       4A    -20.605375     5A    -20.604564     6A    -20.598594
       7A    -20.596372     8A    -20.574739     9A    -20.514743
      10A    -11.372857    11A    -11.323923    12A    -11.321691
      13A    -11.318810    14A    -11.308071    15A     -7.630066
      16A     -5.528487    17A     -5.528403    18A     -5.526903
      19A     -1.463493    20A     -1.448533    21A     -1.411796
      22A     -1.390942    23A     -1.378346    24A     -1.374016
      25A     -1.369205    26A     -1.296079    27A     -1.084628
      28A     -1.045875    29A     -0.943490    30A     -0.857452
      31A     -0.841821    32A     -0.825265    33A     -0.771085
      34A     -0.758740    35A     -0.743783    36A     -0.733745
      37A     -0.716739    38A     -0.693017    39A     -0.684689
      40A     -0.663658    41A     -0.651980    42A     -0.647206
      43A     -0.632344    44A     -0.613820    45A     -0.600719
      46A     -0.596352    47A     -0.582174    48A     -0.577626
      49A     -0.569969    50A     -0.560233    51A     -0.543386
      52A     -0.530748    53A     -0.526851    54A     -0.512249
      55A     -0.488598    56A     -0.484136    57A     -0.475129
      58A     -0.469024    59A     -0.465967    60A     -0.450814

  @DF-RHF Final Energy: -1135.81537781987913

   => Energetics <=

    Nuclear Repulsion Energy =           1215.2808702258844278
    One-Electron Energy =               -3983.8676485303003574
    Two-Electron Energy =                1632.7714004845367981
    Total Energy =                      -1135.8153778198791315
  Basis Set: (AUG-CC-PVTZ AUX)
    Blend: AUG-CC-PVTZ-RI
    Molecular point group: c1

    Geometry (in Angstrom), charge = 0, multiplicity = 1:

       Center              X                  Y                   Z               Mass
    ------------   -----------------  -----------------  -----------------  -----------------
         P            2.559153369679     0.051088377900    -0.169855936838    30.973761998420
         O           -0.793870630321    -0.508919622100    -0.855989936838    15.994914619570
         O           -3.199417630321     1.760255377900     0.205682063162    15.994914619570
         O           -3.609726630321    -0.544731622100    -0.936097936838    15.994914619570
         O           -0.978523630321    -1.689813622100     1.170725063162    15.994914619570
         O            1.448988369679     1.231048377900    -0.300452936838    15.994914619570
         O            1.689182369679    -1.291709622100    -0.336775936838    15.994914619570
         O            2.906716369679    -0.057564622100     1.410939063162    15.994914619570
         O            3.723068369679     0.292117377900    -1.045483936838    15.994914619570
         C           -2.230965630321     0.776998377900     0.562288063162    12.000000000000
         C           -0.947220630321     0.821208377900    -0.296629936838    12.000000000000
         C           -2.835090630321    -0.598241622100     0.243071063162    12.000000000000
         C           -1.589229630321    -1.401230622100    -0.063655936838    12.000000000000
         C            0.270232369679     1.200143377900     0.527860063162    12.000000000000
         H           -1.989962630321     0.836349377900     1.631656063162     1.007825032230
         H           -1.069242630321     1.503239377900    -1.143052936838     1.007825032230
         H           -3.393626630321    -1.015012622100     1.090629063162     1.007825032230
         H           -1.775708130321    -2.367982422100    -0.739451336838     1.007825032230
         H            0.389337369679     0.504604377900     1.363021063162     1.007825032230
         H            0.145255369679     2.212200377900     0.929225063162     1.007825032230
         H           -2.943291630321     2.612617377900     0.595523063162     1.007825032230
         H           -4.094618630321     0.301802377900    -0.906149936838     1.007825032230
         H           -0.094218630321    -2.066257622100     0.992974063162     1.007825032230
         H            0.854997369679    -1.074032622100    -0.833226936838     1.007825032230
         H            3.794753369679     0.314720377900     1.564933063162     1.007825032230

  Basis Set: AUG-CC-PVTZ
    Blend: AUG-CC-PVTZ
  Basis Set: (AUG-CC-PVTZ AUX)
    Blend: AUG-CC-PVTZ-JKFIT
	 Reference Energy          =   -1135.8153778198791315 [Eh]
	 Singles Energy            =      -0.0000000000000000 [Eh]
	 Same-Spin Energy          =      -0.8165826552348038 [Eh]
	 Opposite-Spin Energy      =      -2.4228923646889244 [Eh]
	 Correlation Energy        =      -3.2394750199237281 [Eh]
	 Total Energy              =   -1139.0548528398028338 [Eh]

	 ================> DF-SCS-MP2 Energies <==================
	-----------------------------------------------------------
	 SCS Same-Spin Scale       =       0.3333333333333333 [-]
	 SCS Opposite-Spin Scale   =       1.2000000000000000 [-]
	 SCS Same-Spin Energy      =      -0.2721942184116012 [Eh]
	 SCS Opposite-Spin Energy  =      -2.9074708376267093 [Eh]
	 SCS Correlation Energy    =      -3.1796650560383104 [Eh]
	 SCS Total Energy          =   -1138.9950428759175338 [Eh]
	-----------------------------------------------------------

  Dipole Moment: [D]
     X:    -3.4625      Y:     2.3335      Z:     4.0598     Total:     5.8238

*** Psi4 exiting successfully. Buy a developer a beer!
