                               Psi4 1.3.2 release

  ==> Input File <==

--------------------------------------------------------------------------
#psi4
#
memory 32 gb

molecule  {
0 1
  P        2.6114510     0.0433530    -0.1897960
  O       -0.7415730    -0.5166550    -0.8759300
  O       -3.1471200     1.7525200     0.1857420
  O       -3.5574290    -0.5524670    -0.9560380
  O       -0.9262260    -1.6975490     1.1507850
  O        1.5012860     1.2233130    -0.3203930
  O        1.7414800    -1.2994450    -0.3567160
  O        2.9590140    -0.0653000     1.3909990
  O        3.7753660     0.2843820    -1.0654240
  C       -2.1786680     0.7692630     0.5423480
  C       -0.8949230     0.8134730    -0.3165700
  C       -2.8109717    -0.6406777     0.1949689
  C       -1.5369320    -1.4089660    -0.0835960
  C        0.3225300     1.1924080     0.5079200
  H       -1.9376650     0.8286140     1.6117160
  H       -1.0169450     1.4955040    -1.1629930
  H       -3.3413290    -1.0227480     1.0706890
  H       -1.7077950    -2.2947630    -0.7028010
  H        0.4416350     0.4968690     1.3430810
  H        0.1975530     2.2044650     0.9092850
  H       -2.8909940     2.6048820     0.5755830
  H       -4.0423210     0.2940670    -0.9260900
  H       -0.0419210    -2.0739930     0.9730340
  H        0.9072950    -1.0817680    -0.8531670
  H        3.8470510     0.3069850     1.5449930
units angstrom
no_reorient  #important for SAPT in psi4, default
symmetry c1  #important for SAPT in psi4, default
}

set PROPERTIES_ORIGIN ["COM"]
properties('MP2/aug-cc-pvtz', properties = ['dipole'])
--------------------------------------------------------------------------

    Molecular point group: c1
  Charge       = 0
  Multiplicity = 1
  Basis Set: AUG-CC-PVTZ
    Blend: AUG-CC-PVTZ
  Basis Set: (AUG-CC-PVTZ AUX)
    Blend: AUG-CC-PVTZ-JKFIT

    Orbital Energies [Eh]
    ---------------------

    Doubly Occupied:

       1A    -80.114533     2A    -20.610820     3A    -20.605172
       4A    -20.604496     5A    -20.603089     6A    -20.598048
       7A    -20.594779     8A    -20.578179     9A    -20.514247
      10A    -11.361273    11A    -11.322464    12A    -11.320451
      13A    -11.317036    14A    -11.308550    15A     -7.629484
      16A     -5.527903    17A     -5.527822    18A     -5.526323
      19A     -1.462616    20A     -1.447993    21A     -1.412892
      22A     -1.390321    23A     -1.383624    24A     -1.377689
      25A     -1.369411    26A     -1.295584    27A     -1.079285
      28A     -1.043039    29A     -0.945364    30A     -0.855387
      31A     -0.843027    32A     -0.829026    33A     -0.771079
      34A     -0.763181    35A     -0.745967    36A     -0.732396
      37A     -0.716231    38A     -0.692470    39A     -0.687002
      40A     -0.671130    41A     -0.653178    42A     -0.647662
      43A     -0.634343    44A     -0.615131    45A     -0.601065
      46A     -0.599111    47A     -0.582407    48A     -0.578044
      49A     -0.569409    50A     -0.562224    51A     -0.543183
      52A     -0.531759    53A     -0.527361    54A     -0.509476
      55A     -0.487149    56A     -0.484629    57A     -0.474264
      58A     -0.468797    59A     -0.464699    60A     -0.445427

  @DF-RHF Final Energy: -1135.82113762310837

   => Energetics <=

    Nuclear Repulsion Energy =           1215.3796574805292039
    One-Electron Energy =               -3984.0841840763796426
    Two-Electron Energy =                1632.8833889727420683
    Total Energy =                      -1135.8211376231083705
  Basis Set: (AUG-CC-PVTZ AUX)
    Blend: AUG-CC-PVTZ-RI
    Molecular point group: c1

    Geometry (in Angstrom), charge = 0, multiplicity = 1:

       Center              X                  Y                   Z               Mass
    ------------   -----------------  -----------------  -----------------  -----------------
         P            2.560555021247     0.052543996355    -0.168634682116    30.973761998420
         O           -0.792468978753    -0.507464003645    -0.854768682116    15.994914619570
         O           -3.198015978753     1.761710996355     0.206903317884    15.994914619570
         O           -3.608324978753    -0.543276003645    -0.934876682116    15.994914619570
         O           -0.977121978753    -1.688358003645     1.171946317884    15.994914619570
         O            1.450390021247     1.232503996355    -0.299231682116    15.994914619570
         O            1.690584021247    -1.290254003645    -0.335554682116    15.994914619570
         O            2.908118021247    -0.056109003645     1.412160317884    15.994914619570
         O            3.724470021247     0.293572996355    -1.044262682116    15.994914619570
         C           -2.229563978753     0.778453996355     0.563509317884    12.000000000000
         C           -0.945818978753     0.822663996355    -0.295408682116    12.000000000000
         C           -2.861867678753    -0.631486703645     0.216130217884    12.000000000000
         C           -1.587827978753    -1.399775003645    -0.062434682116    12.000000000000
         C            0.271634021247     1.201598996355     0.529081317884    12.000000000000
         H           -1.988560978753     0.837804996355     1.632877317884     1.007825032230
         H           -1.067840978753     1.504694996355    -1.141831682116     1.007825032230
         H           -3.392224978753    -1.013557003645     1.091850317884     1.007825032230
         H           -1.758690978753    -2.285572003645    -0.681639682116     1.007825032230
         H            0.390739021247     0.506059996355     1.364242317884     1.007825032230
         H            0.146657021247     2.213655996355     0.930446317884     1.007825032230
         H           -2.941889978753     2.614072996355     0.596744317884     1.007825032230
         H           -4.093216978753     0.303257996355    -0.904928682116     1.007825032230
         H           -0.092816978753    -2.064802003645     0.994195317884     1.007825032230
         H            0.856399021247    -1.072577003645    -0.832005682116     1.007825032230
         H            3.796155021247     0.316175996355     1.566154317884     1.007825032230

  Basis Set: AUG-CC-PVTZ
    Blend: AUG-CC-PVTZ
  Basis Set: (AUG-CC-PVTZ AUX)
    Blend: AUG-CC-PVTZ-JKFIT
	 Reference Energy          =   -1135.8211376231083705 [Eh]
	 Singles Energy            =      -0.0000000000000000 [Eh]
	 Same-Spin Energy          =      -0.8161996342999952 [Eh]
	 Opposite-Spin Energy      =      -2.4212978070651263 [Eh]
	 Correlation Energy        =      -3.2374974413651216 [Eh]
	 Total Energy              =   -1139.0586350644734921 [Eh]

	 ================> DF-SCS-MP2 Energies <==================
	-----------------------------------------------------------
	 SCS Same-Spin Scale       =       0.3333333333333333 [-]
	 SCS Opposite-Spin Scale   =       1.2000000000000000 [-]
	 SCS Same-Spin Energy      =      -0.2720665447666650 [Eh]
	 SCS Opposite-Spin Energy  =      -2.9055573684781515 [Eh]
	 SCS Correlation Energy    =      -3.1776239132448163 [Eh]
	 SCS Total Energy          =   -1138.9987615363531859 [Eh]
	-----------------------------------------------------------

  Dipole Moment: [D]
     X:    -3.6075      Y:     2.2739      Z:     3.9552     Total:     5.8162

*** Psi4 exiting successfully. Buy a developer a beer!
