                               Psi4 1.3.2 release

  ==> Input File <==

--------------------------------------------------------------------------
#psi4
#
memory 32 gb

molecule  {
0 1
  P        2.6114510     0.0433530    -0.1897960
  O       -0.7415730    -0.5166550    -0.8759300
  O       -3.1471200     1.7525200     0.1857420
  O       -3.5574290    -0.5524670    -0.9560380
  O       -0.9262260    -1.6975490     1.1507850
  O        1.5012860     1.2233130    -0.3203930
  O        1.7414800    -1.2994450    -0.3567160
  O        2.9590140    -0.0653000     1.3909990
  O        3.7753660     0.2843820    -1.0654240
  C       -2.1786680     0.7692630     0.5423480
  C       -0.8949230     0.8134730    -0.3165700
  C       -2.7827930    -0.6059770     0.2231310
  C       -1.5567241    -1.4007090    -0.0716292
  C        0.3225300     1.1924080     0.5079200
  H       -1.9376650     0.8286140     1.6117160
  H       -1.0169450     1.4955040    -1.1629930
  H       -3.3413290    -1.0227480     1.0706890
  H       -1.7077950    -2.2947630    -0.7028010
  H        0.4416350     0.4968690     1.3430810
  H        0.1975530     2.2044650     0.9092850
  H       -2.8909940     2.6048820     0.5755830
  H       -4.0423210     0.2940670    -0.9260900
  H       -0.0419210    -2.0739930     0.9730340
  H        0.9072950    -1.0817680    -0.8531670
  H        3.8470510     0.3069850     1.5449930
units angstrom
no_reorient  #important for SAPT in psi4, default
symmetry c1  #important for SAPT in psi4, default
}

set PROPERTIES_ORIGIN ["COM"]
properties('MP2/aug-cc-pvtz', properties = ['dipole'])
--------------------------------------------------------------------------

    Molecular point group: c1
  Charge       = 0
  Multiplicity = 1
  Basis Set: AUG-CC-PVTZ
    Blend: AUG-CC-PVTZ
  Basis Set: (AUG-CC-PVTZ AUX)
    Blend: AUG-CC-PVTZ-JKFIT

    Orbital Energies [Eh]
    ---------------------

    Doubly Occupied:

       1A    -80.114629     2A    -20.610958     3A    -20.606577
       4A    -20.604769     5A    -20.602144     6A    -20.597968
       7A    -20.594794     8A    -20.575935     9A    -20.514331
      10A    -11.363193    11A    -11.323921    12A    -11.320870
      13A    -11.317419    14A    -11.307552    15A     -7.629580
      16A     -5.528001    17A     -5.527917    18A     -5.526418
      19A     -1.461805    20A     -1.447362    21A     -1.411659
      22A     -1.390385    23A     -1.377775    24A     -1.374274
      25A     -1.367495    26A     -1.295660    27A     -1.084408
      28A     -1.050625    29A     -0.947048    30A     -0.857849
      31A     -0.841585    32A     -0.828679    33A     -0.771960
      34A     -0.760558    35A     -0.747121    36A     -0.734674
      37A     -0.716532    38A     -0.692307    39A     -0.684047
      40A     -0.665872    41A     -0.652580    42A     -0.647341
      43A     -0.632914    44A     -0.612644    45A     -0.600651
      46A     -0.596532    47A     -0.581765    48A     -0.577883
      49A     -0.569745    50A     -0.561020    51A     -0.543023
      52A     -0.531698    53A     -0.526861    54A     -0.512632
      55A     -0.490199    56A     -0.488001    57A     -0.474983
      58A     -0.470028    59A     -0.466143    60A     -0.450718

  @DF-RHF Final Energy: -1135.82163307626502

   => Energetics <=

    Nuclear Repulsion Energy =           1215.9732984593765650
    One-Electron Energy =               -3985.2618290033524318
    Two-Electron Energy =                1633.4668974677108508
    Total Energy =                      -1135.8216330762650159
  Basis Set: (AUG-CC-PVTZ AUX)
    Blend: AUG-CC-PVTZ-RI
    Molecular point group: c1

    Geometry (in Angstrom), charge = 0, multiplicity = 1:

       Center              X                  Y                   Z               Mass
    ------------   -----------------  -----------------  -----------------  -----------------
         P            2.560117495945     0.050302911687    -0.170728189509    30.973761998420
         O           -0.792906504055    -0.509705088313    -0.856862189509    15.994914619570
         O           -3.198453504055     1.759469911687     0.204809810491    15.994914619570
         O           -3.608762504055    -0.545517088313    -0.936970189509    15.994914619570
         O           -0.977559504055    -1.690599088313     1.169852810491    15.994914619570
         O            1.449952495945     1.230262911687    -0.301325189509    15.994914619570
         O            1.690146495945    -1.292495088313    -0.337648189509    15.994914619570
         O            2.907680495945    -0.058350088313     1.410066810491    15.994914619570
         O            3.724032495945     0.291331911687    -1.046356189509    15.994914619570
         C           -2.230001504055     0.776212911687     0.561415810491    12.000000000000
         C           -0.946256504055     0.820422911687    -0.297502189509    12.000000000000
         C           -2.834126504055    -0.599027088313     0.242198810491    12.000000000000
         C           -1.608057604055    -1.393759088313    -0.052561389509    12.000000000000
         C            0.271196495945     1.199357911687     0.526987810491    12.000000000000
         H           -1.988998504055     0.835563911687     1.630783810491     1.007825032230
         H           -1.068278504055     1.502453911687    -1.143925189509     1.007825032230
         H           -3.392662504055    -1.015798088313     1.089756810491     1.007825032230
         H           -1.759128504055    -2.287813088313    -0.683733189509     1.007825032230
         H            0.390301495945     0.503818911687     1.362148810491     1.007825032230
         H            0.146219495945     2.211414911687     0.928352810491     1.007825032230
         H           -2.942327504055     2.611831911687     0.594650810491     1.007825032230
         H           -4.093654504055     0.301016911687    -0.907022189509     1.007825032230
         H           -0.093254504055    -2.067043088313     0.992101810491     1.007825032230
         H            0.855961495945    -1.074818088313    -0.834099189509     1.007825032230
         H            3.795717495945     0.313934911687     1.564060810491     1.007825032230

  Basis Set: AUG-CC-PVTZ
    Blend: AUG-CC-PVTZ
  Basis Set: (AUG-CC-PVTZ AUX)
    Blend: AUG-CC-PVTZ-JKFIT
	 Reference Energy          =   -1135.8216330762650159 [Eh]
	 Singles Energy            =      -0.0000000000000000 [Eh]
	 Same-Spin Energy          =      -0.8164325655433369 [Eh]
	 Opposite-Spin Energy      =      -2.4220907602193833 [Eh]
	 Correlation Energy        =      -3.2385233257627202 [Eh]
	 Total Energy              =   -1139.0601564020278147 [Eh]

	 ================> DF-SCS-MP2 Energies <==================
	-----------------------------------------------------------
	 SCS Same-Spin Scale       =       0.3333333333333333 [-]
	 SCS Opposite-Spin Scale   =       1.2000000000000000 [-]
	 SCS Same-Spin Energy      =      -0.2721441885144456 [Eh]
	 SCS Opposite-Spin Energy  =      -2.9065089122632597 [Eh]
	 SCS Correlation Energy    =      -3.1786531007777055 [Eh]
	 SCS Total Energy          =   -1139.0002861770426534 [Eh]
	-----------------------------------------------------------

  Dipole Moment: [D]
     X:    -3.5456      Y:     2.2953      Z:     4.0619     Total:     5.8600

*** Psi4 exiting successfully. Buy a developer a beer!
