                               Psi4 1.3.2 release

  ==> Input File <==

--------------------------------------------------------------------------
#psi4
#
memory 32 gb

molecule  {
0 1
  P        2.6114510     0.0433530    -0.1897960
  O       -0.7415730    -0.5166550    -0.8759300
  O       -3.1471200     1.7525200     0.1857420
  O       -3.5574290    -0.5524670    -0.9560380
  O       -0.9262260    -1.6975490     1.1507850
  O        1.5012860     1.2233130    -0.3203930
  O        1.7414800    -1.2994450    -0.3567160
  O        2.9590140    -0.0653000     1.3909990
  O        3.7753660     0.2843820    -1.0654240
  C       -2.1786680     0.7692630     0.5423480
  C       -0.8323749     0.8471818    -0.3887498
  C       -2.7827930    -0.6059770     0.2231310
  C       -1.5369320    -1.4089660    -0.0835960
  C        0.3225300     1.1924080     0.5079200
  H       -1.9376650     0.8286140     1.6117160
  H       -1.0169450     1.4955040    -1.1629930
  H       -3.3413290    -1.0227480     1.0706890
  H       -1.7077950    -2.2947630    -0.7028010
  H        0.4416350     0.4968690     1.3430810
  H        0.1975530     2.2044650     0.9092850
  H       -2.8909940     2.6048820     0.5755830
  H       -4.0423210     0.2940670    -0.9260900
  H       -0.0419210    -2.0739930     0.9730340
  H        0.9072950    -1.0817680    -0.8531670
  H        3.8470510     0.3069850     1.5449930
units angstrom
no_reorient  #important for SAPT in psi4, default
symmetry c1  #important for SAPT in psi4, default
}

set PROPERTIES_ORIGIN ["COM"]
properties('MP2/aug-cc-pvtz', properties = ['dipole'])
--------------------------------------------------------------------------

    Molecular point group: c1
  Charge       = 0
  Multiplicity = 1
  Basis Set: AUG-CC-PVTZ
    Blend: AUG-CC-PVTZ
  Basis Set: (AUG-CC-PVTZ AUX)
    Blend: AUG-CC-PVTZ-JKFIT

    Orbital Energies [Eh]
    ---------------------

    Doubly Occupied:

       1A    -80.114349     2A    -20.611183     3A    -20.604292
       4A    -20.602939     5A    -20.601222     6A    -20.598045
       7A    -20.594115     8A    -20.573585     9A    -20.514114
      10A    -11.362687    11A    -11.324749    12A    -11.321547
      13A    -11.317379    14A    -11.305833    15A     -7.629324
      16A     -5.527745    17A     -5.527650    18A     -5.526171
      19A     -1.461479    20A     -1.446372    21A     -1.409154
      22A     -1.390941    23A     -1.377976    24A     -1.372184
      25A     -1.367061    26A     -1.295572    27A     -1.075180
      28A     -1.048212    29A     -0.944395    30A     -0.861256
      31A     -0.845067    32A     -0.825211    33A     -0.771283
      34A     -0.756978    35A     -0.745222    36A     -0.731720
      37A     -0.716108    38A     -0.696066    39A     -0.685809
      40A     -0.667868    41A     -0.653332    42A     -0.648412
      43A     -0.634589    44A     -0.613778    45A     -0.601391
      46A     -0.595008    47A     -0.582129    48A     -0.578262
      49A     -0.567872    50A     -0.559836    51A     -0.542845
      52A     -0.533236    53A     -0.526358    54A     -0.511327
      55A     -0.488382    56A     -0.483664    57A     -0.476291
      58A     -0.469691    59A     -0.465672    60A     -0.439948

  @DF-RHF Final Energy: -1135.81294640962483

   => Energetics <=

    Nuclear Repulsion Energy =           1215.0011113881394067
    One-Electron Energy =               -3983.3879843855652325
    Two-Electron Energy =                1632.5739265878007700
    Total Energy =                      -1135.8129464096248284
  Basis Set: (AUG-CC-PVTZ AUX)
    Blend: AUG-CC-PVTZ-RI
    Molecular point group: c1

    Geometry (in Angstrom), charge = 0, multiplicity = 1:

       Center              X                  Y                   Z               Mass
    ------------   -----------------  -----------------  -----------------  -----------------
         P            2.555821843250     0.048975102267    -0.166338297706    30.973761998420
         O           -0.797202156750    -0.511032897733    -0.852472297706    15.994914619570
         O           -3.202749156750     1.758142102267     0.209199702294    15.994914619570
         O           -3.613058156750    -0.546844897733    -0.932580297706    15.994914619570
         O           -0.981855156750    -1.691926897733     1.174242702294    15.994914619570
         O            1.445656843250     1.228935102267    -0.296935297706    15.994914619570
         O            1.685850843250    -1.293822897733    -0.333258297706    15.994914619570
         O            2.903384843250    -0.059677897733     1.414456702294    15.994914619570
         O            3.719736843250     0.290004102267    -1.041966297706    15.994914619570
         C           -2.234297156750     0.774885102267     0.565805702294    12.000000000000
         C           -0.888004056750     0.852803902267    -0.365292097706    12.000000000000
         C           -2.838422156750    -0.600354897733     0.246588702294    12.000000000000
         C           -1.592561156750    -1.403343897733    -0.060138297706    12.000000000000
         C            0.266900843250     1.198030102267     0.531377702294    12.000000000000
         H           -1.993294156750     0.834236102267     1.635173702294     1.007825032230
         H           -1.072574156750     1.501126102267    -1.139535297706     1.007825032230
         H           -3.396958156750    -1.017125897733     1.094146702294     1.007825032230
         H           -1.763424156750    -2.289140897733    -0.679343297706     1.007825032230
         H            0.386005843250     0.502491102267     1.366538702294     1.007825032230
         H            0.141923843250     2.210087102267     0.932742702294     1.007825032230
         H           -2.946623156750     2.610504102267     0.599040702294     1.007825032230
         H           -4.097950156750     0.299689102267    -0.902632297706     1.007825032230
         H           -0.097550156750    -2.068370897733     0.996491702294     1.007825032230
         H            0.851665843250    -1.076145897733    -0.829709297706     1.007825032230
         H            3.791421843250     0.312607102267     1.568450702294     1.007825032230

  Basis Set: AUG-CC-PVTZ
    Blend: AUG-CC-PVTZ
  Basis Set: (AUG-CC-PVTZ AUX)
    Blend: AUG-CC-PVTZ-JKFIT
	 Reference Energy          =   -1135.8129464096248284 [Eh]
	 Singles Energy            =      -0.0000000000000000 [Eh]
	 Same-Spin Energy          =      -0.8160310096141875 [Eh]
	 Opposite-Spin Energy      =      -2.4217802197672902 [Eh]
	 Correlation Energy        =      -3.2378112293814776 [Eh]
	 Total Energy              =   -1139.0507576390064060 [Eh]

	 ================> DF-SCS-MP2 Energies <==================
	-----------------------------------------------------------
	 SCS Same-Spin Scale       =       0.3333333333333333 [-]
	 SCS Opposite-Spin Scale   =       1.2000000000000000 [-]
	 SCS Same-Spin Energy      =      -0.2720103365380625 [Eh]
	 SCS Opposite-Spin Energy  =      -2.9061362637207480 [Eh]
	 SCS Correlation Energy    =      -3.1781466002588106 [Eh]
	 SCS Total Energy          =   -1138.9910930098835706 [Eh]
	-----------------------------------------------------------

  Dipole Moment: [D]
     X:    -3.4718      Y:     2.3673      Z:     4.0184     Total:     5.8142

*** Psi4 exiting successfully. Buy a developer a beer!
