                               Psi4 1.3.2 release

  ==> Input File <==

--------------------------------------------------------------------------
#psi4
#
memory 32 gb

molecule  {
0 1
  P        2.6114510     0.0433530    -0.1897960
  O       -0.7415730    -0.5166550    -0.8759300
  O       -3.1471200     1.7525200     0.1857420
  O       -3.5574290    -0.5524670    -0.9560380
  O       -0.9262260    -1.6975490     1.1507850
  O        1.5012860     1.2233130    -0.3203930
  O        1.7414800    -1.2994450    -0.3567160
  O        2.9590140    -0.0653000     1.3909990
  O        3.7753660     0.2843820    -1.0654240
  C       -2.1786680     0.7692630     0.5423480
  C       -0.8949230     0.8134730    -0.3165700
  C       -2.8626400    -0.7128438     0.1376612
  C       -1.5369320    -1.4089660    -0.0835960
  C        0.3225300     1.1924080     0.5079200
  H       -1.9376650     0.8286140     1.6117160
  H       -1.0169450     1.4955040    -1.1629930
  H       -3.3413290    -1.0227480     1.0706890
  H       -1.7077950    -2.2947630    -0.7028010
  H        0.4416350     0.4968690     1.3430810
  H        0.1975530     2.2044650     0.9092850
  H       -2.8909940     2.6048820     0.5755830
  H       -4.0423210     0.2940670    -0.9260900
  H       -0.0419210    -2.0739930     0.9730340
  H        0.9072950    -1.0817680    -0.8531670
  H        3.8470510     0.3069850     1.5449930
units angstrom
no_reorient  #important for SAPT in psi4, default
symmetry c1  #important for SAPT in psi4, default
}

set PROPERTIES_ORIGIN ["COM"]
properties('MP2/aug-cc-pvtz', properties = ['dipole'])
--------------------------------------------------------------------------

    Molecular point group: c1
  Charge       = 0
  Multiplicity = 1
  Basis Set: AUG-CC-PVTZ
    Blend: AUG-CC-PVTZ
  Basis Set: (AUG-CC-PVTZ AUX)
    Blend: AUG-CC-PVTZ-JKFIT

    Orbital Energies [Eh]
    ---------------------

    Doubly Occupied:

       1A    -80.113567     2A    -20.609959     3A    -20.603069
       4A    -20.603005     5A    -20.602164     6A    -20.597133
       7A    -20.594939     8A    -20.585523     9A    -20.513419
      10A    -11.360505    11A    -11.318561    12A    -11.318332
      13A    -11.314375    14A    -11.313826    15A     -7.628520
      16A     -5.526937    17A     -5.526859    18A     -5.525362
      19A     -1.463019    20A     -1.449623    21A     -1.426364
      22A     -1.395028    23A     -1.388781    24A     -1.376716
      25A     -1.368450    26A     -1.294760    27A     -1.072330
      28A     -1.035405    29A     -0.942526    30A     -0.851333
      31A     -0.847565    32A     -0.827442    33A     -0.775667
      34A     -0.766213    35A     -0.742809    36A     -0.729069
      37A     -0.714966    38A     -0.697068    39A     -0.689671
      40A     -0.678974    41A     -0.654094    42A     -0.647851
      43A     -0.636184    44A     -0.623170    45A     -0.603267
      46A     -0.597800    47A     -0.583304    48A     -0.578647
      49A     -0.567987    50A     -0.564883    51A     -0.542509
      52A     -0.530812    53A     -0.527392    54A     -0.506978
      55A     -0.484024    56A     -0.477321    57A     -0.471456
      58A     -0.467286    59A     -0.461400    60A     -0.425360

  @DF-RHF Final Energy: -1135.80334847986205

   => Energetics <=

    Nuclear Repulsion Energy =           1214.3767255053958252
    One-Electron Energy =               -3982.0770277755850657
    Two-Electron Energy =                1631.8969537903271885
    Total Energy =                      -1135.8033484798620520
  Basis Set: (AUG-CC-PVTZ AUX)
    Blend: AUG-CC-PVTZ-RI
    Molecular point group: c1

    Geometry (in Angstrom), charge = 0, multiplicity = 1:

       Center              X                  Y                   Z               Mass
    ------------   -----------------  -----------------  -----------------  -----------------
         P            2.563250534157     0.056308870644    -0.165644964143    30.973761998420
         O           -0.789773465843    -0.503699129356    -0.851778964143    15.994914619570
         O           -3.195320465843     1.765475870644     0.209893035857    15.994914619570
         O           -3.605629465843    -0.539511129356    -0.931886964143    15.994914619570
         O           -0.974426465843    -1.684593129356     1.174936035857    15.994914619570
         O            1.453085534157     1.236268870644    -0.296241964143    15.994914619570
         O            1.693279534157    -1.286489129356    -0.332564964143    15.994914619570
         O            2.910813534157    -0.052344129356     1.415150035857    15.994914619570
         O            3.727165534157     0.297337870644    -1.041272964143    15.994914619570
         C           -2.226868465843     0.782218870644     0.566499035857    12.000000000000
         C           -0.943123465843     0.826428870644    -0.292418964143    12.000000000000
         C           -2.910840465843    -0.699887929356     0.161812235857    12.000000000000
         C           -1.585132465843    -1.396010129356    -0.059444964143    12.000000000000
         C            0.274329534157     1.205363870644     0.532071035857    12.000000000000
         H           -1.985865465843     0.841569870644     1.635867035857     1.007825032230
         H           -1.065145465843     1.508459870644    -1.138841964143     1.007825032230
         H           -3.389529465843    -1.009792129356     1.094840035857     1.007825032230
         H           -1.755995465843    -2.281807129356    -0.678649964143     1.007825032230
         H            0.393434534157     0.509824870644     1.367232035857     1.007825032230
         H            0.149352534157     2.217420870644     0.933436035857     1.007825032230
         H           -2.939194465843     2.617837870644     0.599734035857     1.007825032230
         H           -4.090521465843     0.307022870644    -0.901938964143     1.007825032230
         H           -0.090121465843    -2.061037129356     0.997185035857     1.007825032230
         H            0.859094534157    -1.068812129356    -0.829015964143     1.007825032230
         H            3.798850534157     0.319940870644     1.569144035857     1.007825032230

  Basis Set: AUG-CC-PVTZ
    Blend: AUG-CC-PVTZ
  Basis Set: (AUG-CC-PVTZ AUX)
    Blend: AUG-CC-PVTZ-JKFIT
	 Reference Energy          =   -1135.8033484798620520 [Eh]
	 Singles Energy            =      -0.0000000000000000 [Eh]
	 Same-Spin Energy          =      -0.8168914381934747 [Eh]
	 Opposite-Spin Energy      =      -2.4215375638470968 [Eh]
	 Correlation Energy        =      -3.2384290020405713 [Eh]
	 Total Energy              =   -1139.0417774819027272 [Eh]

	 ================> DF-SCS-MP2 Energies <==================
	-----------------------------------------------------------
	 SCS Same-Spin Scale       =       0.3333333333333333 [-]
	 SCS Opposite-Spin Scale   =       1.2000000000000000 [-]
	 SCS Same-Spin Energy      =      -0.2722971460644915 [Eh]
	 SCS Opposite-Spin Energy  =      -2.9058450766165160 [Eh]
	 SCS Correlation Energy    =      -3.1781422226810077 [Eh]
	 SCS Total Energy          =   -1138.9814907025431694 [Eh]
	-----------------------------------------------------------

  Dipole Moment: [D]
     X:    -3.8842      Y:     2.2101      Z:     3.7734     Total:     5.8489

*** Psi4 exiting successfully. Buy a developer a beer!
