                               Psi4 1.3.2 release

  ==> Input File <==

--------------------------------------------------------------------------
#psi4
#
memory 32 gb

molecule  {
0 1
  P        2.6114510     0.0433530    -0.1897960
  O       -0.7415730    -0.5166550    -0.8759300
  O       -3.1471200     1.7525200     0.1857420
  O       -3.5574290    -0.5524670    -0.9560380
  O       -0.9262260    -1.6975490     1.1507850
  O        1.5012860     1.2233130    -0.3203930
  O        1.7414800    -1.2994450    -0.3567160
  O        2.9590140    -0.0653000     1.3909990
  O        3.7753660     0.2843820    -1.0654240
  C       -2.1786680     0.7692630     0.5423480
  C       -0.8949230     0.8134730    -0.3165700
  C       -2.7741006    -0.6279571     0.2161658
  C       -1.5369320    -1.4089660    -0.0835960
  C        0.3225300     1.1924080     0.5079200
  H       -1.9376650     0.8286140     1.6117160
  H       -1.0169450     1.4955040    -1.1629930
  H       -3.3413290    -1.0227480     1.0706890
  H       -1.7077950    -2.2947630    -0.7028010
  H        0.4416350     0.4968690     1.3430810
  H        0.1975530     2.2044650     0.9092850
  H       -2.8909940     2.6048820     0.5755830
  H       -4.0423210     0.2940670    -0.9260900
  H       -0.0419210    -2.0739930     0.9730340
  H        0.9072950    -1.0817680    -0.8531670
  H        3.8470510     0.3069850     1.5449930
units angstrom
no_reorient  #important for SAPT in psi4, default
symmetry c1  #important for SAPT in psi4, default
}

set PROPERTIES_ORIGIN ["COM"]
properties('MP2/aug-cc-pvtz', properties = ['dipole'])
--------------------------------------------------------------------------

    Molecular point group: c1
  Charge       = 0
  Multiplicity = 1
  Basis Set: AUG-CC-PVTZ
    Blend: AUG-CC-PVTZ
  Basis Set: (AUG-CC-PVTZ AUX)
    Blend: AUG-CC-PVTZ-JKFIT

    Orbital Energies [Eh]
    ---------------------

    Doubly Occupied:

       1A    -80.114929     2A    -20.611182     3A    -20.606205
       4A    -20.604975     5A    -20.603720     6A    -20.598514
       7A    -20.595363     8A    -20.574371     9A    -20.514585
      10A    -11.361967    11A    -11.323603    12A    -11.321094
      13A    -11.317892    14A    -11.307753    15A     -7.629880
      16A     -5.528300    17A     -5.528219    18A     -5.526718
      19A     -1.463528    20A     -1.448539    21A     -1.410798
      22A     -1.390655    23A     -1.378219    24A     -1.373628
      25A     -1.368748    26A     -1.295924    27A     -1.082925
      28A     -1.048855    29A     -0.947535    30A     -0.857318
      31A     -0.842368    32A     -0.828700    33A     -0.771955
      34A     -0.760526    35A     -0.747786    36A     -0.733800
      37A     -0.716754    38A     -0.692850    39A     -0.684370
      40A     -0.667491    41A     -0.653114    42A     -0.647869
      43A     -0.633631    44A     -0.613267    45A     -0.601011
      46A     -0.596019    47A     -0.582140    48A     -0.577926
      49A     -0.569408    50A     -0.560331    51A     -0.543402
      52A     -0.532392    53A     -0.527316    54A     -0.511282
      55A     -0.490055    56A     -0.488241    57A     -0.475428
      58A     -0.469766    59A     -0.465731    60A     -0.449019

  @DF-RHF Final Energy: -1135.82228555612051

   => Energetics <=

    Nuclear Repulsion Energy =           1215.9606109289711640
    One-Electron Energy =               -3985.2260018333722655
    Two-Electron Energy =                1633.4431053482805964
    Total Energy =                      -1135.8222855561205051
  Basis Set: (AUG-CC-PVTZ AUX)
    Blend: AUG-CC-PVTZ-RI
    Molecular point group: c1

    Geometry (in Angstrom), charge = 0, multiplicity = 1:

       Center              X                  Y                   Z               Mass
    ------------   -----------------  -----------------  -----------------  -----------------
         P            2.558631471874     0.051880368143    -0.169740515241    30.973761998420
         O           -0.794392528126    -0.508127631857    -0.855874515241    15.994914619570
         O           -3.199939528126     1.761047368143     0.205797484759    15.994914619570
         O           -3.610248528126    -0.543939631857    -0.935982515241    15.994914619570
         O           -0.979045528126    -1.689021631857     1.170840484759    15.994914619570
         O            1.448466471874     1.231840368143    -0.300337515241    15.994914619570
         O            1.688660471874    -1.290917631857    -0.336660515241    15.994914619570
         O            2.906194471874    -0.056772631857     1.411054484759    15.994914619570
         O            3.722546471874     0.292909368143    -1.045368515241    15.994914619570
         C           -2.231487528126     0.777790368143     0.562403484759    12.000000000000
         C           -0.947742528126     0.822000368143    -0.296514515241    12.000000000000
         C           -2.826920128126    -0.619429731857     0.236221284759    12.000000000000
         C           -1.589751528126    -1.400438631857    -0.063540515241    12.000000000000
         C            0.269710471874     1.200935368143     0.527975484759    12.000000000000
         H           -1.990484528126     0.837141368143     1.631771484759     1.007825032230
         H           -1.069764528126     1.504031368143    -1.142937515241     1.007825032230
         H           -3.394148528126    -1.014220631857     1.090744484759     1.007825032230
         H           -1.760614528126    -2.286235631857    -0.682745515241     1.007825032230
         H            0.388815471874     0.505396368143     1.363136484759     1.007825032230
         H            0.144733471874     2.212992368143     0.929340484759     1.007825032230
         H           -2.943813528126     2.613409368143     0.595638484759     1.007825032230
         H           -4.095140528126     0.302594368143    -0.906034515241     1.007825032230
         H           -0.094740528126    -2.065465631857     0.993089484759     1.007825032230
         H            0.854475471874    -1.073240631857    -0.833111515241     1.007825032230
         H            3.794231471874     0.315512368143     1.565048484759     1.007825032230

  Basis Set: AUG-CC-PVTZ
    Blend: AUG-CC-PVTZ
  Basis Set: (AUG-CC-PVTZ AUX)
    Blend: AUG-CC-PVTZ-JKFIT
	 Reference Energy          =   -1135.8222855561205051 [Eh]
	 Singles Energy            =      -0.0000000000000000 [Eh]
	 Same-Spin Energy          =      -0.8162740605696668 [Eh]
	 Opposite-Spin Energy      =      -2.4217572180591502 [Eh]
	 Correlation Energy        =      -3.2380312786288172 [Eh]
	 Total Energy              =   -1139.0603168347493011 [Eh]

	 ================> DF-SCS-MP2 Energies <==================
	-----------------------------------------------------------
	 SCS Same-Spin Scale       =       0.3333333333333333 [-]
	 SCS Opposite-Spin Scale   =       1.2000000000000000 [-]
	 SCS Same-Spin Energy      =      -0.2720913535232222 [Eh]
	 SCS Opposite-Spin Energy  =      -2.9061086616709804 [Eh]
	 SCS Correlation Energy    =      -3.1782000151942027 [Eh]
	 SCS Total Energy          =   -1139.0004855713148118 [Eh]
	-----------------------------------------------------------

  Dipole Moment: [D]
     X:    -3.4886      Y:     2.2828      Z:     4.0358     Total:     5.8025

*** Psi4 exiting successfully. Buy a developer a beer!
