                               Psi4 1.3.2 release

  ==> Input File <==

--------------------------------------------------------------------------
#psi4
#
memory 32 gb

molecule  {
0 1
  P        2.6114510     0.0433530    -0.1897960
  O       -0.7415730    -0.5166550    -0.8759300
  O       -3.1471200     1.7525200     0.1857420
  O       -3.5574290    -0.5524670    -0.9560380
  O       -0.9262260    -1.6975490     1.1507850
  O        1.4901360     1.2402717    -0.3352459
  O        1.7414800    -1.2994450    -0.3567160
  O        2.9590140    -0.0653000     1.3909990
  O        3.7753660     0.2843820    -1.0654240
  C       -2.1786680     0.7692630     0.5423480
  C       -0.8949230     0.8134730    -0.3165700
  C       -2.7827930    -0.6059770     0.2231310
  C       -1.5369320    -1.4089660    -0.0835960
  C        0.3225300     1.1924080     0.5079200
  H       -1.9376650     0.8286140     1.6117160
  H       -1.0169450     1.4955040    -1.1629930
  H       -3.3413290    -1.0227480     1.0706890
  H       -1.7077950    -2.2947630    -0.7028010
  H        0.4416350     0.4968690     1.3430810
  H        0.1975530     2.2044650     0.9092850
  H       -2.8909940     2.6048820     0.5755830
  H       -4.0423210     0.2940670    -0.9260900
  H       -0.0419210    -2.0739930     0.9730340
  H        0.9072950    -1.0817680    -0.8531670
  H        3.8470510     0.3069850     1.5449930
units angstrom
no_reorient  #important for SAPT in psi4, default
symmetry c1  #important for SAPT in psi4, default
}

set PROPERTIES_ORIGIN ["COM"]
properties('MP2/aug-cc-pvtz', properties = ['dipole'])
--------------------------------------------------------------------------

    Molecular point group: c1
  Charge       = 0
  Multiplicity = 1
  Basis Set: AUG-CC-PVTZ
    Blend: AUG-CC-PVTZ
  Basis Set: (AUG-CC-PVTZ AUX)
    Blend: AUG-CC-PVTZ-JKFIT

    Orbital Energies [Eh]
    ---------------------

    Doubly Occupied:

       1A    -80.117452     2A    -20.613420     3A    -20.605680
       4A    -20.605194     5A    -20.603121     6A    -20.600230
       7A    -20.594791     8A    -20.574485     9A    -20.515831
      10A    -11.361963    11A    -11.322572    12A    -11.319566
      13A    -11.317155    14A    -11.306820    15A     -7.632084
      16A     -5.530456    17A     -5.530386    18A     -5.528940
      19A     -1.462193    20A     -1.447210    21A     -1.410948
      22A     -1.390021    23A     -1.378744    24A     -1.373267
      25A     -1.368271    26A     -1.297007    27A     -1.083053
      28A     -1.045916    29A     -0.944636    30A     -0.857438
      31A     -0.841963    32A     -0.829305    33A     -0.771224
      34A     -0.758774    35A     -0.747326    36A     -0.733816
      37A     -0.717162    38A     -0.691409    39A     -0.683382
      40A     -0.666990    41A     -0.653344    42A     -0.647361
      43A     -0.631793    44A     -0.613555    45A     -0.600710
      46A     -0.595948    47A     -0.582784    48A     -0.577662
      49A     -0.569443    50A     -0.560348    51A     -0.544552
      52A     -0.531595    53A     -0.526163    54A     -0.511468
      55A     -0.489899    56A     -0.487495    57A     -0.475745
      58A     -0.469544    59A     -0.466120    60A     -0.449633

  @DF-RHF Final Energy: -1135.82066058823693

   => Energetics <=

    Nuclear Repulsion Energy =           1215.1773279345284209
    One-Electron Energy =               -3983.6652488499312312
    Two-Electron Energy =                1632.6672603271658772
    Total Energy =                      -1135.8206605882369331
  Basis Set: (AUG-CC-PVTZ AUX)
    Blend: AUG-CC-PVTZ-RI
    Molecular point group: c1

    Geometry (in Angstrom), charge = 0, multiplicity = 1:

       Center              X                  Y                   Z               Mass
    ------------   -----------------  -----------------  -----------------  -----------------
         P            2.559860291704     0.049554413333    -0.169071055917    30.973761998420
         O           -0.793163708296    -0.510453586667    -0.855205055917    15.994914619570
         O           -3.198710708296     1.758721413333     0.206466944083    15.994914619570
         O           -3.609019708296    -0.546265586667    -0.935313055917    15.994914619570
         O           -0.977816708296    -1.691347586667     1.171509944083    15.994914619570
         O            1.438545291704     1.246473113333    -0.314520955917    15.994914619570
         O            1.689889291704    -1.293243586667    -0.335991055917    15.994914619570
         O            2.907423291704    -0.059098586667     1.411723944083    15.994914619570
         O            3.723775291704     0.290583413333    -1.044699055917    15.994914619570
         C           -2.230258708296     0.775464413333     0.563072944083    12.000000000000
         C           -0.946513708296     0.819674413333    -0.295845055917    12.000000000000
         C           -2.834383708296    -0.599775586667     0.243855944083    12.000000000000
         C           -1.588522708296    -1.402764586667    -0.062871055917    12.000000000000
         C            0.270939291704     1.198609413333     0.528644944083    12.000000000000
         H           -1.989255708296     0.834815413333     1.632440944083     1.007825032230
         H           -1.068535708296     1.501705413333    -1.142268055917     1.007825032230
         H           -3.392919708296    -1.016546586667     1.091413944083     1.007825032230
         H           -1.759385708296    -2.288561586667    -0.682076055917     1.007825032230
         H            0.390044291704     0.503070413333     1.363805944083     1.007825032230
         H            0.145962291704     2.210666413333     0.930009944083     1.007825032230
         H           -2.942584708296     2.611083413333     0.596307944083     1.007825032230
         H           -4.093911708296     0.300268413333    -0.905365055917     1.007825032230
         H           -0.093511708296    -2.067791586667     0.993758944083     1.007825032230
         H            0.855704291704    -1.075566586667    -0.832442055917     1.007825032230
         H            3.795460291704     0.313186413333     1.565717944083     1.007825032230

  Basis Set: AUG-CC-PVTZ
    Blend: AUG-CC-PVTZ
  Basis Set: (AUG-CC-PVTZ AUX)
    Blend: AUG-CC-PVTZ-JKFIT
	 Reference Energy          =   -1135.8206605882369331 [Eh]
	 Singles Energy            =      -0.0000000000000000 [Eh]
	 Same-Spin Energy          =      -0.8165826692088427 [Eh]
	 Opposite-Spin Energy      =      -2.4227130839877109 [Eh]
	 Correlation Energy        =      -3.2392957531965534 [Eh]
	 Total Energy              =   -1139.0599563414334625 [Eh]

	 ================> DF-SCS-MP2 Energies <==================
	-----------------------------------------------------------
	 SCS Same-Spin Scale       =       0.3333333333333333 [-]
	 SCS Opposite-Spin Scale   =       1.2000000000000000 [-]
	 SCS Same-Spin Energy      =      -0.2721942230696142 [Eh]
	 SCS Opposite-Spin Energy  =      -2.9072557007852531 [Eh]
	 SCS Correlation Energy    =      -3.1794499238548672 [Eh]
	 SCS Total Energy          =   -1139.0001105120918510 [Eh]
	-----------------------------------------------------------

  Dipole Moment: [D]
     X:    -3.3820      Y:     2.2242      Z:     4.0566     Total:     5.7307

*** Psi4 exiting successfully. Buy a developer a beer!
