                               Psi4 1.3.2 release

  ==> Input File <==

--------------------------------------------------------------------------
#psi4
#
memory 32 gb

molecule  {
0 1
  P        2.6114510     0.0433530    -0.1897960
  O       -0.7415730    -0.5166550    -0.8759300
  O       -3.1471200     1.7525200     0.1857420
  O       -3.5574290    -0.5524670    -0.9560380
  O       -0.9262260    -1.6975490     1.1507850
  O        1.5012860     1.2233130    -0.3203930
  O        1.7414800    -1.2994450    -0.3567160
  O        2.9590140    -0.0653000     1.3909990
  O        3.7753660     0.2843820    -1.0654240
  C       -2.1786680     0.7692630     0.5423480
  C       -0.9872500     0.7508193    -0.2135162
  C       -2.7827930    -0.6059770     0.2231310
  C       -1.5369320    -1.4089660    -0.0835960
  C        0.3225300     1.1924080     0.5079200
  H       -1.9376650     0.8286140     1.6117160
  H       -1.0169450     1.4955040    -1.1629930
  H       -3.3413290    -1.0227480     1.0706890
  H       -1.7077950    -2.2947630    -0.7028010
  H        0.4416350     0.4968690     1.3430810
  H        0.1975530     2.2044650     0.9092850
  H       -2.8909940     2.6048820     0.5755830
  H       -4.0423210     0.2940670    -0.9260900
  H       -0.0419210    -2.0739930     0.9730340
  H        0.9072950    -1.0817680    -0.8531670
  H        3.8470510     0.3069850     1.5449930
units angstrom
no_reorient  #important for SAPT in psi4, default
symmetry c1  #important for SAPT in psi4, default
}

set PROPERTIES_ORIGIN ["COM"]
properties('MP2/aug-cc-pvtz', properties = ['dipole'])
--------------------------------------------------------------------------

    Molecular point group: c1
  Charge       = 0
  Multiplicity = 1
  Basis Set: AUG-CC-PVTZ
    Blend: AUG-CC-PVTZ
  Basis Set: (AUG-CC-PVTZ AUX)
    Blend: AUG-CC-PVTZ-JKFIT

    Orbital Energies [Eh]
    ---------------------

    Doubly Occupied:

       1A    -80.115910     2A    -20.611286     3A    -20.608689
       4A    -20.608178     5A    -20.608040     6A    -20.599458
       7A    -20.596738     8A    -20.577068     9A    -20.515404
      10A    -11.362744    11A    -11.323266    12A    -11.322615
      13A    -11.318749    14A    -11.310252    15A     -7.630837
      16A     -5.529267    17A     -5.529176    18A     -5.527661
      19A     -1.467626    20A     -1.451001    21A     -1.414727
      22A     -1.390582    23A     -1.378864    24A     -1.376134
      25A     -1.371527    26A     -1.296587    27A     -1.107133
      28A     -1.042577    29A     -0.951041    30A     -0.857713
      31A     -0.841748    32A     -0.831100    33A     -0.774555
      34A     -0.764034    35A     -0.750659    36A     -0.737728
      37A     -0.717873    38A     -0.689925    39A     -0.683019
      40A     -0.667065    41A     -0.653274    42A     -0.648440
      43A     -0.638234    44A     -0.614645    45A     -0.605105
      46A     -0.591730    47A     -0.583430    48A     -0.581049
      49A     -0.565926    50A     -0.555903    51A     -0.544230
      52A     -0.530963    53A     -0.527059    54A     -0.514643
      55A     -0.497502    56A     -0.493352    57A     -0.472659
      58A     -0.468292    59A     -0.462186    60A     -0.445806

  @DF-RHF Final Energy: -1135.79286228328374

   => Energetics <=

    Nuclear Repulsion Energy =           1217.4245173949350374
    One-Electron Energy =               -3987.9287881699397076
    Two-Electron Energy =                1634.7114084917207038
    Total Energy =                      -1135.7928622832837391
  Basis Set: (AUG-CC-PVTZ AUX)
    Blend: AUG-CC-PVTZ-RI
    Molecular point group: c1

    Geometry (in Angstrom), charge = 0, multiplicity = 1:

       Center              X                  Y                   Z               Mass
    ------------   -----------------  -----------------  -----------------  -----------------
         P            2.563901610370     0.054002292300    -0.175480158984    30.973761998420
         O           -0.789122389630    -0.506005707700    -0.861614158984    15.994914619570
         O           -3.194669389630     1.763169292300     0.200057841016    15.994914619570
         O           -3.604978389630    -0.541817707700    -0.941722158984    15.994914619570
         O           -0.973775389630    -1.686899707700     1.165100841016    15.994914619570
         O            1.453736610370     1.233962292300    -0.306077158984    15.994914619570
         O            1.693930610370    -1.288795707700    -0.342400158984    15.994914619570
         O            2.911464610370    -0.054650707700     1.405314841016    15.994914619570
         O            3.727816610370     0.295031292300    -1.051108158984    15.994914619570
         C           -2.226217389630     0.779912292300     0.556663841016    12.000000000000
         C           -1.034799389630     0.761468592300    -0.199200358984    12.000000000000
         C           -2.830342389630    -0.595327707700     0.237446841016    12.000000000000
         C           -1.584481389630    -1.398316707700    -0.069280158984    12.000000000000
         C            0.274980610370     1.203057292300     0.522235841016    12.000000000000
         H           -1.985214389630     0.839263292300     1.626031841016     1.007825032230
         H           -1.064494389630     1.506153292300    -1.148677158984     1.007825032230
         H           -3.388878389630    -1.012098707700     1.085004841016     1.007825032230
         H           -1.755344389630    -2.284113707700    -0.688485158984     1.007825032230
         H            0.394085610370     0.507518292300     1.357396841016     1.007825032230
         H            0.150003610370     2.215114292300     0.923600841016     1.007825032230
         H           -2.938543389630     2.615531292300     0.589898841016     1.007825032230
         H           -4.089870389630     0.304716292300    -0.911774158984     1.007825032230
         H           -0.089470389630    -2.063343707700     0.987349841016     1.007825032230
         H            0.859745610370    -1.071118707700    -0.838851158984     1.007825032230
         H            3.799501610370     0.317634292300     1.559308841016     1.007825032230

  Basis Set: AUG-CC-PVTZ
    Blend: AUG-CC-PVTZ
  Basis Set: (AUG-CC-PVTZ AUX)
    Blend: AUG-CC-PVTZ-JKFIT
	 Reference Energy          =   -1135.7928622832837391 [Eh]
	 Singles Energy            =      -0.0000000000000000 [Eh]
	 Same-Spin Energy          =      -0.8185031730099812 [Eh]
	 Opposite-Spin Energy      =      -2.4253421320006336 [Eh]
	 Correlation Energy        =      -3.2438453050106149 [Eh]
	 Total Energy              =   -1139.0367075882943482 [Eh]

	 ================> DF-SCS-MP2 Energies <==================
	-----------------------------------------------------------
	 SCS Same-Spin Scale       =       0.3333333333333333 [-]
	 SCS Opposite-Spin Scale   =       1.2000000000000000 [-]
	 SCS Same-Spin Energy      =      -0.2728343910033271 [Eh]
	 SCS Opposite-Spin Energy  =      -2.9104105584007605 [Eh]
	 SCS Correlation Energy    =      -3.1832449494040875 [Eh]
	 SCS Total Energy          =   -1138.9761072326878093 [Eh]
	-----------------------------------------------------------

  Dipole Moment: [D]
     X:    -3.5013      Y:     2.1339      Z:     4.0524     Total:     5.7650

*** Psi4 exiting successfully. Buy a developer a beer!
