                               Psi4 1.4a3.dev225

  ==> Input File <==

--------------------------------------------------------------------------
#psi4
#
memory 32 gb

molecule  {
0 1
  P        2.6113660     0.0433910    -0.1897900
  O       -0.7416560    -0.5164190    -0.8762010
  O       -3.1473860     1.7523070     0.1855430
  O       -3.5574330    -0.5529450    -0.9556820
  O       -0.9255690    -1.6972900     1.1506350
  O        1.5012550     1.2233910    -0.3202530
  O        1.7411940    -1.2993510    -0.3564950
  O        2.9591660    -0.0655390     1.3909200
  O        3.7751240     0.2843830    -1.0656400
  C       -2.1787050     0.7693270     0.5422590
  C       -0.8949630     0.8136090    -0.3166340
  C       -2.7825860    -0.6061320     0.2233240
  C       -1.5366410    -1.4089160    -0.0835620
  C        0.3224410     1.1924200     0.5080110
  H       -1.9377070     0.8289040     1.6116220
  H       -1.0168440     1.4957790    -1.1629650
  H       -3.3307109    -1.0152064     1.0556438
  H       -1.7074320    -2.2947510    -0.7027390
  H        0.4414920     0.4968360     1.3431340
  H        0.1974400     2.2044510     0.9094280
  H       -2.8916000     2.6047160     0.5754970
  H       -4.0429610     0.2932130    -0.9254450
  H       -0.0410590    -2.0731950     0.9726900
  H        0.9073710    -1.0816890    -0.8535130
  H        3.8468470     0.3075270     1.5450430
units angstrom
no_reorient  #important for SAPT in psi4, default
symmetry c1  #important for SAPT in psi4, default
}

set PROPERTIES_ORIGIN ["COM"]
properties('MP2/aug-cc-pvtz', properties = ['dipole'])
--------------------------------------------------------------------------

    Molecular point group: c1
  Charge       = 0
  Multiplicity = 1
  Basis Set: AUG-CC-PVTZ
    Blend: AUG-CC-PVTZ
  Basis Set: (AUG-CC-PVTZ AUX)
    Blend: AUG-CC-PVTZ-JKFIT

    Orbital Energies [Eh]
    ---------------------

    Doubly Occupied:

       1A    -80.114940     2A    -20.611198     3A    -20.606178
       4A    -20.605059     5A    -20.603324     6A    -20.598456
       7A    -20.594852     8A    -20.574474     9A    -20.514594
      10A    -11.362039    11A    -11.323146    12A    -11.321207
      13A    -11.318085    14A    -11.304915    15A     -7.629890
      16A     -5.528310    17A     -5.528228    18A     -5.526727
      19A     -1.463099    20A     -1.448225    21A     -1.411362
      22A     -1.390661    23A     -1.378179    24A     -1.373510
      25A     -1.368583    26A     -1.295929    27A     -1.084262
      28A     -1.047456    29A     -0.946699    30A     -0.857880
      31A     -0.842451    32A     -0.830398    33A     -0.771960
      34A     -0.759450    35A     -0.747935    36A     -0.734579
      37A     -0.716784    38A     -0.692768    39A     -0.685048
      40A     -0.667224    41A     -0.653194    42A     -0.647790
      43A     -0.633403    44A     -0.614095    45A     -0.600928
      46A     -0.596497    47A     -0.581981    48A     -0.577469
      49A     -0.569755    50A     -0.560037    51A     -0.543392
      52A     -0.532204    53A     -0.526982    54A     -0.511864
      55A     -0.490425    56A     -0.487950    57A     -0.475106
      58A     -0.469546    59A     -0.466137    60A     -0.450634

  @DF-RHF Final Energy: -1135.82288204898418

   => Energetics <=

    Nuclear Repulsion Energy =           1216.0706454293970182
    One-Electron Energy =               -3985.4481536579937710
    Two-Electron Energy =                1633.5546261796123417
    Total Energy =                      -1135.8228820489841837
  Basis Set: (AUG-CC-PVTZ AUX)
    Blend: AUG-CC-PVTZ-RI
    Molecular point group: c1

    Geometry (in Angstrom), charge = 0, multiplicity = 1:

       Center              X                  Y                   Z               Mass
    ------------   -----------------  -----------------  -----------------  -----------------
         P            2.558956231517     0.050742081678    -0.170028100308    30.973761998420
         O           -0.794065768483    -0.509067918322    -0.856439100308    15.994914619570
         O           -3.199795768483     1.759658081678     0.205304899692    15.994914619570
         O           -3.609842768483    -0.545593918322    -0.935920100308    15.994914619570
         O           -0.977978768483    -1.689938918322     1.170396899692    15.994914619570
         O            1.448845231517     1.230742081678    -0.300491100308    15.994914619570
         O            1.688784231517    -1.291999918322    -0.336733100308    15.994914619570
         O            2.906756231517    -0.058187918322     1.410681899692    15.994914619570
         O            3.722714231517     0.291734081678    -1.045878100308    15.994914619570
         C           -2.231114768483     0.776678081678     0.562020899692    12.000000000000
         C           -0.947372768483     0.820960081678    -0.296872100308    12.000000000000
         C           -2.834995768483    -0.598780918322     0.243085899692    12.000000000000
         C           -1.589050768483    -1.401564918322    -0.063800100308    12.000000000000
         C            0.270031231517     1.199771081678     0.527772899692    12.000000000000
         H           -1.990116768483     0.836255081678     1.631383899692     1.007825032230
         H           -1.069253768483     1.503130081678    -1.143203100308     1.007825032230
         H           -3.383120668483    -1.007855318322     1.075405699692     1.007825032230
         H           -1.759841768483    -2.287399918322    -0.682977100308     1.007825032230
         H            0.389082231517     0.504187081678     1.362895899692     1.007825032230
         H            0.145030231517     2.211802081678     0.929189899692     1.007825032230
         H           -2.944009768483     2.612067081678     0.595258899692     1.007825032230
         H           -4.095370768483     0.300564081678    -0.905683100308     1.007825032230
         H           -0.093468768483    -2.065843918322     0.992451899692     1.007825032230
         H            0.854961231517    -1.074337918322    -0.833751100308     1.007825032230
         H            3.794437231517     0.314878081678     1.564804899692     1.007825032230

  Basis Set: AUG-CC-PVTZ
    Blend: AUG-CC-PVTZ
  Basis Set: (AUG-CC-PVTZ AUX)
    Blend: AUG-CC-PVTZ-JKFIT
	 Reference Energy          =   -1135.8228820489841837 [Eh]
	 Singles Energy            =      -0.0000000000000000 [Eh]
	 Same-Spin Energy          =      -0.8162266643770720 [Eh]
	 Opposite-Spin Energy      =      -2.4216582422242303 [Eh]
	 Correlation Energy        =      -3.2378849066013022 [Eh]
	 Total Energy              =   -1139.0607669555854500 [Eh]

	 ================> DF-SCS-MP2 Energies <==================
	-----------------------------------------------------------
	 SCS Same-Spin Scale       =       0.3333333333333333 [-]
	 SCS Opposite-Spin Scale   =       1.2000000000000000 [-]
	 SCS Same-Spin Energy      =      -0.2720755547923573 [Eh]
	 SCS Opposite-Spin Energy  =      -2.9059898906690762 [Eh]
	 SCS Correlation Energy    =      -3.1780654454614337 [Eh]
	 SCS Total Energy          =   -1139.0009474944456542 [Eh]
	-----------------------------------------------------------

  Dipole Moment: [D]
     X:    -3.4854      Y:     2.2949      Z:     4.0431     Total:     5.8105

*** Psi4 exiting successfully. Buy a developer a beer!
