                               Psi4 1.3.2 release

  ==> Input File <==

--------------------------------------------------------------------------
#psi4
#
memory 32 gb

molecule  {
0 1
  P        2.6114510     0.0433530    -0.1897960
  O       -0.7415730    -0.5166550    -0.8759300
  O       -3.1471200     1.7525200     0.1857420
  O       -3.5574290    -0.5524670    -0.9560380
  O       -0.9262260    -1.6975490     1.1507850
  O        1.5012860     1.2233130    -0.3203930
  O        1.7414800    -1.2994450    -0.3567160
  O        2.9590140    -0.0653000     1.3909990
  O        3.7753660     0.2843820    -1.0654240
  C       -2.2443741     0.7548480     0.6883320
  C       -0.8949230     0.8134730    -0.3165700
  C       -2.7827930    -0.6059770     0.2231310
  C       -1.5369320    -1.4089660    -0.0835960
  C        0.3225300     1.1924080     0.5079200
  H       -1.9376650     0.8286140     1.6117160
  H       -1.0169450     1.4955040    -1.1629930
  H       -3.3413290    -1.0227480     1.0706890
  H       -1.7077950    -2.2947630    -0.7028010
  H        0.4416350     0.4968690     1.3430810
  H        0.1975530     2.2044650     0.9092850
  H       -2.8909940     2.6048820     0.5755830
  H       -4.0423210     0.2940670    -0.9260900
  H       -0.0419210    -2.0739930     0.9730340
  H        0.9072950    -1.0817680    -0.8531670
  H        3.8470510     0.3069850     1.5449930
units angstrom
no_reorient  #important for SAPT in psi4, default
symmetry c1  #important for SAPT in psi4, default
}

set PROPERTIES_ORIGIN ["COM"]
properties('MP2/aug-cc-pvtz', properties = ['dipole'])
--------------------------------------------------------------------------

    Molecular point group: c1
  Charge       = 0
  Multiplicity = 1
  Basis Set: AUG-CC-PVTZ
    Blend: AUG-CC-PVTZ
  Basis Set: (AUG-CC-PVTZ AUX)
    Blend: AUG-CC-PVTZ-JKFIT

    Orbital Energies [Eh]
    ---------------------

    Doubly Occupied:

       1A    -80.113461     2A    -20.610096     3A    -20.608392
       4A    -20.602393     5A    -20.601877     6A    -20.597268
       7A    -20.594982     8A    -20.577572     9A    -20.513317
      10A    -11.362580    11A    -11.323892    12A    -11.318348
      13A    -11.317491    14A    -11.308716    15A     -7.628415
      16A     -5.526831    17A     -5.526755    18A     -5.525259
      19A     -1.460456    20A     -1.446055    21A     -1.409908
      22A     -1.388917    23A     -1.376821    24A     -1.373856
      25A     -1.367244    26A     -1.294667    27A     -1.073624
      28A     -1.046020    29A     -0.943892    30A     -0.862118
      31A     -0.846576    32A     -0.822176    33A     -0.774730
      34A     -0.761098    35A     -0.748979    36A     -0.738105
      37A     -0.714605    38A     -0.690335    39A     -0.685208
      40A     -0.667535    41A     -0.651479    42A     -0.646358
      43A     -0.627864    44A     -0.609392    45A     -0.598237
      46A     -0.595028    47A     -0.581104    48A     -0.578353
      49A     -0.572035    50A     -0.561135    51A     -0.542919
      52A     -0.532519    53A     -0.527444    54A     -0.520064
      55A     -0.492024    56A     -0.485447    57A     -0.473802
      58A     -0.467967    59A     -0.462691    60A     -0.430001

  @DF-RHF Final Energy: -1135.79582446920108

   => Energetics <=

    Nuclear Repulsion Energy =           1213.4040978519674354
    One-Electron Energy =               -3980.1869771403994491
    Two-Electron Energy =                1630.9870548192309343
    Total Energy =                      -1135.7958244692010794
  Basis Set: (AUG-CC-PVTZ AUX)
    Blend: AUG-CC-PVTZ-RI
    Molecular point group: c1

    Geometry (in Angstrom), charge = 0, multiplicity = 1:

       Center              X                  Y                   Z               Mass
    ------------   -----------------  -----------------  -----------------  -----------------
         P            2.562512809507     0.051485700142    -0.177719808989    30.973761998420
         O           -0.790511190493    -0.508522299858    -0.863853808989    15.994914619570
         O           -3.196058190493     1.760652700142     0.197818191011    15.994914619570
         O           -3.606367190493    -0.544334299858    -0.943961808989    15.994914619570
         O           -0.975164190493    -1.689416299858     1.162861191011    15.994914619570
         O            1.452347809507     1.231445700142    -0.308316808989    15.994914619570
         O            1.692541809507    -1.291312299858    -0.344639808989    15.994914619570
         O            2.910075809507    -0.057167299858     1.403075191011    15.994914619570
         O            3.726427809507     0.292514700142    -1.053347808989    15.994914619570
         C           -2.293312290493     0.762980700142     0.700408191011    12.000000000000
         C           -0.943861190493     0.821605700142    -0.304493808989    12.000000000000
         C           -2.831731190493    -0.597844299858     0.235207191011    12.000000000000
         C           -1.585870190493    -1.400833299858    -0.071519808989    12.000000000000
         C            0.273591809507     1.200540700142     0.519996191011    12.000000000000
         H           -1.986603190493     0.836746700142     1.623792191011     1.007825032230
         H           -1.065883190493     1.503636700142    -1.150916808989     1.007825032230
         H           -3.390267190493    -1.014615299858     1.082765191011     1.007825032230
         H           -1.756733190493    -2.286630299858    -0.690724808989     1.007825032230
         H            0.392696809507     0.505001700142     1.355157191011     1.007825032230
         H            0.148614809507     2.212597700142     0.921361191011     1.007825032230
         H           -2.939932190493     2.613014700142     0.587659191011     1.007825032230
         H           -4.091259190493     0.302199700142    -0.914013808989     1.007825032230
         H           -0.090859190493    -2.065860299858     0.985110191011     1.007825032230
         H            0.858356809507    -1.073635299858    -0.841090808989     1.007825032230
         H            3.798112809507     0.315117700142     1.557069191011     1.007825032230

  Basis Set: AUG-CC-PVTZ
    Blend: AUG-CC-PVTZ
  Basis Set: (AUG-CC-PVTZ AUX)
    Blend: AUG-CC-PVTZ-JKFIT
	 Reference Energy          =   -1135.7958244692010794 [Eh]
	 Singles Energy            =      -0.0000000000000000 [Eh]
	 Same-Spin Energy          =      -0.8164555160444394 [Eh]
	 Opposite-Spin Energy      =      -2.4233442339276463 [Eh]
	 Correlation Energy        =      -3.2397997499720859 [Eh]
	 Total Energy              =   -1139.0356242191730871 [Eh]

	 ================> DF-SCS-MP2 Energies <==================
	-----------------------------------------------------------
	 SCS Same-Spin Scale       =       0.3333333333333333 [-]
	 SCS Opposite-Spin Scale   =       1.2000000000000000 [-]
	 SCS Same-Spin Energy      =      -0.2721518386814798 [Eh]
	 SCS Opposite-Spin Energy  =      -2.9080130807131757 [Eh]
	 SCS Correlation Energy    =      -3.1801649193946555 [Eh]
	 SCS Total Energy          =   -1138.9759893885957354 [Eh]
	-----------------------------------------------------------

  Dipole Moment: [D]
     X:    -3.6601      Y:     2.3216      Z:     4.1649     Total:     6.0111

*** Psi4 exiting successfully. Buy a developer a beer!
