                               Psi4 1.3.2 release

  ==> Input File <==

--------------------------------------------------------------------------
#psi4
#
memory 32 gb

molecule  {
0 1
  P        2.6114510     0.0433530    -0.1897960
  O       -0.7415730    -0.5166550    -0.8759300
  O       -3.1471200     1.7525200     0.1857420
  O       -3.5381921    -0.5427400    -0.9679765
  O       -0.9262260    -1.6975490     1.1507850
  O        1.5012860     1.2233130    -0.3203930
  O        1.7414800    -1.2994450    -0.3567160
  O        2.9590140    -0.0653000     1.3909990
  O        3.7753660     0.2843820    -1.0654240
  C       -2.1786680     0.7692630     0.5423480
  C       -0.8949230     0.8134730    -0.3165700
  C       -2.7827930    -0.6059770     0.2231310
  C       -1.5369320    -1.4089660    -0.0835960
  C        0.3225300     1.1924080     0.5079200
  H       -1.9376650     0.8286140     1.6117160
  H       -1.0169450     1.4955040    -1.1629930
  H       -3.3413290    -1.0227480     1.0706890
  H       -1.7077950    -2.2947630    -0.7028010
  H        0.4416350     0.4968690     1.3430810
  H        0.1975530     2.2044650     0.9092850
  H       -2.8909940     2.6048820     0.5755830
  H       -4.0423210     0.2940670    -0.9260900
  H       -0.0419210    -2.0739930     0.9730340
  H        0.9072950    -1.0817680    -0.8531670
  H        3.8470510     0.3069850     1.5449930
units angstrom
no_reorient  #important for SAPT in psi4, default
symmetry c1  #important for SAPT in psi4, default
}

set PROPERTIES_ORIGIN ["COM"]
properties('MP2/aug-cc-pvtz', properties = ['dipole'])
--------------------------------------------------------------------------

    Molecular point group: c1
  Charge       = 0
  Multiplicity = 1
  Basis Set: AUG-CC-PVTZ
    Blend: AUG-CC-PVTZ
  Basis Set: (AUG-CC-PVTZ AUX)
    Blend: AUG-CC-PVTZ-JKFIT

    Orbital Energies [Eh]
    ---------------------

    Doubly Occupied:

       1A    -80.114806     2A    -20.611071     3A    -20.605905
       4A    -20.604908     5A    -20.603114     6A    -20.598297
       7A    -20.594634     8A    -20.575157     9A    -20.514474
      10A    -11.362025    11A    -11.322866    12A    -11.321033
      13A    -11.317888    14A    -11.307354    15A     -7.629757
      16A     -5.528177    17A     -5.528094    18A     -5.526594
      19A     -1.462997    20A     -1.448138    21A     -1.411243
      22A     -1.390514    23A     -1.378032    24A     -1.373523
      25A     -1.368275    26A     -1.295810    27A     -1.083879
      28A     -1.046716    29A     -0.946533    30A     -0.857690
      31A     -0.841544    32A     -0.828991    33A     -0.771754
      34A     -0.759329    35A     -0.747557    36A     -0.733938
      37A     -0.716642    38A     -0.692573    39A     -0.684637
      40A     -0.666807    41A     -0.652829    42A     -0.647250
      43A     -0.632649    44A     -0.613871    45A     -0.600780
      46A     -0.596198    47A     -0.581865    48A     -0.577096
      49A     -0.569601    50A     -0.559692    51A     -0.543273
      52A     -0.531960    53A     -0.526583    54A     -0.511792
      55A     -0.490062    56A     -0.487945    57A     -0.475017
      58A     -0.469534    59A     -0.465948    60A     -0.450069

  @DF-RHF Final Energy: -1135.82233620615398

   => Energetics <=

    Nuclear Repulsion Energy =           1216.2961085643364640
    One-Electron Energy =               -3985.9223099510618340
    Two-Electron Energy =                1633.8038651805713926
    Total Energy =                      -1135.8223362061539774
  Basis Set: (AUG-CC-PVTZ AUX)
    Blend: AUG-CC-PVTZ-RI
    Molecular point group: c1

    Geometry (in Angstrom), charge = 0, multiplicity = 1:

       Center              X                  Y                   Z               Mass
    ------------   -----------------  -----------------  -----------------  -----------------
         P            2.557747268236     0.050057286341    -0.169273715471    30.973761998420
         O           -0.795276731764    -0.509950713659    -0.855407715471    15.994914619570
         O           -3.200823731764     1.759224286341     0.206264284529    15.994914619570
         O           -3.591895831764    -0.536035713659    -0.947454215471    15.994914619570
         O           -0.979929731764    -1.690844713659     1.171307284529    15.994914619570
         O            1.447582268236     1.230017286341    -0.299870715471    15.994914619570
         O            1.687776268236    -1.292740713659    -0.336193715471    15.994914619570
         O            2.905310268236    -0.058595713659     1.411521284529    15.994914619570
         O            3.721662268236     0.291086286341    -1.044901715471    15.994914619570
         C           -2.232371731764     0.775967286341     0.562870284529    12.000000000000
         C           -0.948626731764     0.820177286341    -0.296047715471    12.000000000000
         C           -2.836496731764    -0.599272713659     0.243653284529    12.000000000000
         C           -1.590635731764    -1.402261713659    -0.063073715471    12.000000000000
         C            0.268826268236     1.199112286341     0.528442284529    12.000000000000
         H           -1.991368731764     0.835318286341     1.632238284529     1.007825032230
         H           -1.070648731764     1.502208286341    -1.142470715471     1.007825032230
         H           -3.395032731764    -1.016043713659     1.091211284529     1.007825032230
         H           -1.761498731764    -2.288058713659    -0.682278715471     1.007825032230
         H            0.387931268236     0.503573286341     1.363603284529     1.007825032230
         H            0.143849268236     2.211169286341     0.929807284529     1.007825032230
         H           -2.944697731764     2.611586286341     0.596105284529     1.007825032230
         H           -4.096024731764     0.300771286341    -0.905567715471     1.007825032230
         H           -0.095624731764    -2.067288713659     0.993556284529     1.007825032230
         H            0.853591268236    -1.075063713659    -0.832644715471     1.007825032230
         H            3.793347268236     0.313689286341     1.565515284529     1.007825032230

  Basis Set: AUG-CC-PVTZ
    Blend: AUG-CC-PVTZ
  Basis Set: (AUG-CC-PVTZ AUX)
    Blend: AUG-CC-PVTZ-JKFIT
	 Reference Energy          =   -1135.8223362061539774 [Eh]
	 Singles Energy            =      -0.0000000000000000 [Eh]
	 Same-Spin Energy          =      -0.8163541775839535 [Eh]
	 Opposite-Spin Energy      =      -2.4219692902962202 [Eh]
	 Correlation Energy        =      -3.2383234678801736 [Eh]
	 Total Energy              =   -1139.0606596740342411 [Eh]

	 ================> DF-SCS-MP2 Energies <==================
	-----------------------------------------------------------
	 SCS Same-Spin Scale       =       0.3333333333333333 [-]
	 SCS Opposite-Spin Scale   =       1.2000000000000000 [-]
	 SCS Same-Spin Energy      =      -0.2721180591946512 [Eh]
	 SCS Opposite-Spin Energy  =      -2.9063631483554642 [Eh]
	 SCS Correlation Energy    =      -3.1784812075501154 [Eh]
	 SCS Total Energy          =   -1139.0008174137039987 [Eh]
	-----------------------------------------------------------

  Dipole Moment: [D]
     X:    -3.5346      Y:     2.2706      Z:     4.0488     Total:     5.8345

*** Psi4 exiting successfully. Buy a developer a beer!
