                               Psi4 1.3.2 release

  ==> Input File <==

--------------------------------------------------------------------------
#psi4
#
memory 32 gb

molecule  {
0 1
  P        2.6114510     0.0433530    -0.1897960
  O       -0.7415730    -0.5166550    -0.8759300
  O       -3.1471200     1.7525200     0.1857420
  O       -3.5574290    -0.5524670    -0.9560380
  O       -0.9262260    -1.6975490     1.1507850
  O        1.5537898     1.2492047    -0.2386031
  O        1.7414800    -1.2994450    -0.3567160
  O        2.9590140    -0.0653000     1.3909990
  O        3.7753660     0.2843820    -1.0654240
  C       -2.1786680     0.7692630     0.5423480
  C       -0.8949230     0.8134730    -0.3165700
  C       -2.7827930    -0.6059770     0.2231310
  C       -1.5369320    -1.4089660    -0.0835960
  C        0.3225300     1.1924080     0.5079200
  H       -1.9376650     0.8286140     1.6117160
  H       -1.0169450     1.4955040    -1.1629930
  H       -3.3413290    -1.0227480     1.0706890
  H       -1.7077950    -2.2947630    -0.7028010
  H        0.4416350     0.4968690     1.3430810
  H        0.1975530     2.2044650     0.9092850
  H       -2.8909940     2.6048820     0.5755830
  H       -4.0423210     0.2940670    -0.9260900
  H       -0.0419210    -2.0739930     0.9730340
  H        0.9072950    -1.0817680    -0.8531670
  H        3.8470510     0.3069850     1.5449930
units angstrom
no_reorient  #important for SAPT in psi4, default
symmetry c1  #important for SAPT in psi4, default
}

set PROPERTIES_ORIGIN ["COM"]
properties('MP2/aug-cc-pvtz', properties = ['dipole'])
--------------------------------------------------------------------------

    Molecular point group: c1
  Charge       = 0
  Multiplicity = 1
  Basis Set: AUG-CC-PVTZ
    Blend: AUG-CC-PVTZ
  Basis Set: (AUG-CC-PVTZ AUX)
    Blend: AUG-CC-PVTZ-JKFIT

    Orbital Energies [Eh]
    ---------------------

    Doubly Occupied:

       1A    -80.111923     2A    -20.607632     3A    -20.605145
       4A    -20.604629     5A    -20.604366     6A    -20.600710
       7A    -20.595620     8A    -20.575991     9A    -20.513186
      10A    -11.363464    11A    -11.325470    12A    -11.322512
      13A    -11.321078    14A    -11.308674    15A     -7.627298
      16A     -5.525815    17A     -5.525598    18A     -5.524103
      19A     -1.464536    20A     -1.449942    21A     -1.412779
      22A     -1.388903    23A     -1.379475    24A     -1.374800
      25A     -1.369787    26A     -1.294621    27A     -1.086297
      28A     -1.048769    29A     -0.949478    30A     -0.860240
      31A     -0.841257    32A     -0.829047    33A     -0.773952
      34A     -0.761119    35A     -0.750008    36A     -0.734844
      37A     -0.715525    38A     -0.690848    39A     -0.686148
      40A     -0.667984    41A     -0.650562    42A     -0.649097
      43A     -0.635071    44A     -0.614905    45A     -0.601854
      46A     -0.598289    47A     -0.581975    48A     -0.577606
      49A     -0.570830    50A     -0.559526    51A     -0.541968
      52A     -0.535435    53A     -0.526038    54A     -0.512860
      55A     -0.491922    56A     -0.489255    57A     -0.473063
      58A     -0.469128    59A     -0.465034    60A     -0.453207

  @DF-RHF Final Energy: -1135.82286654436416

   => Energetics <=

    Nuclear Repulsion Energy =           1215.7746257808794326
    One-Electron Energy =               -3984.8125935042030505
    Two-Electron Energy =                1633.2151011789594577
    Total Energy =                      -1135.8228665443641603
  Basis Set: (AUG-CC-PVTZ AUX)
    Blend: AUG-CC-PVTZ-RI
    Molecular point group: c1

    Geometry (in Angstrom), charge = 0, multiplicity = 1:

       Center              X                  Y                   Z               Mass
    ------------   -----------------  -----------------  -----------------  -----------------
         P            2.555433977298     0.048933236489    -0.175791336840    30.973761998420
         O           -0.797590022702    -0.511074763511    -0.861925336840    15.994914619570
         O           -3.203137022702     1.758100236489     0.199746663160    15.994914619570
         O           -3.613446022702    -0.546886763511    -0.942033336840    15.994914619570
         O           -0.982243022702    -1.691968763511     1.164789663160    15.994914619570
         O            1.497772777298     1.254784936489    -0.224598436840    15.994914619570
         O            1.685462977298    -1.293864763511    -0.342711336840    15.994914619570
         O            2.902996977298    -0.059719763511     1.405003663160    15.994914619570
         O            3.719348977298     0.289962236489    -1.051419336840    15.994914619570
         C           -2.234685022702     0.774843236489     0.556352663160    12.000000000000
         C           -0.950940022702     0.819053236489    -0.302565336840    12.000000000000
         C           -2.838810022702    -0.600396763511     0.237135663160    12.000000000000
         C           -1.592949022702    -1.403385763511    -0.069591336840    12.000000000000
         C            0.266512977298     1.197988236489     0.521924663160    12.000000000000
         H           -1.993682022702     0.834194236489     1.625720663160     1.007825032230
         H           -1.072962022702     1.501084236489    -1.148988336840     1.007825032230
         H           -3.397346022702    -1.017167763511     1.084693663160     1.007825032230
         H           -1.763812022702    -2.289182763511    -0.688796336840     1.007825032230
         H            0.385617977298     0.502449236489     1.357085663160     1.007825032230
         H            0.141535977298     2.210045236489     0.923289663160     1.007825032230
         H           -2.947011022702     2.610462236489     0.589587663160     1.007825032230
         H           -4.098338022702     0.299647236489    -0.912085336840     1.007825032230
         H           -0.097938022702    -2.068412763511     0.987038663160     1.007825032230
         H            0.851277977298    -1.076187763511    -0.839162336840     1.007825032230
         H            3.791033977298     0.312565236489     1.558997663160     1.007825032230

  Basis Set: AUG-CC-PVTZ
    Blend: AUG-CC-PVTZ
  Basis Set: (AUG-CC-PVTZ AUX)
    Blend: AUG-CC-PVTZ-JKFIT
	 Reference Energy          =   -1135.8228665443641603 [Eh]
	 Singles Energy            =      -0.0000000000000000 [Eh]
	 Same-Spin Energy          =      -0.8159749610140901 [Eh]
	 Opposite-Spin Energy      =      -2.4209777678221802 [Eh]
	 Correlation Energy        =      -3.2369527288362701 [Eh]
	 Total Energy              =   -1139.0598192732004463 [Eh]

	 ================> DF-SCS-MP2 Energies <==================
	-----------------------------------------------------------
	 SCS Same-Spin Scale       =       0.3333333333333333 [-]
	 SCS Opposite-Spin Scale   =       1.2000000000000000 [-]
	 SCS Same-Spin Energy      =      -0.2719916536713634 [Eh]
	 SCS Opposite-Spin Energy  =      -2.9051733213866160 [Eh]
	 SCS Correlation Energy    =      -3.1771649750579796 [Eh]
	 SCS Total Energy          =   -1139.0000315194222367 [Eh]
	-----------------------------------------------------------

  Dipole Moment: [D]
     X:    -3.7300      Y:     2.2708      Z:     3.8664     Total:     5.8326

*** Psi4 exiting successfully. Buy a developer a beer!
