                               Psi4 1.3.2 release

  ==> Input File <==

--------------------------------------------------------------------------
#psi4
#
memory 32 gb

molecule  {
0 1
  P        2.6114510     0.0433530    -0.1897960
  O       -0.7415730    -0.5166550    -0.8759300
  O       -3.1471200     1.7525200     0.1857420
  O       -3.5574290    -0.5524670    -0.9560380
  O       -0.9262260    -1.6975490     1.1507850
  O        1.5012860     1.2233130    -0.3203930
  O        1.7414800    -1.2994450    -0.3567160
  O        2.9590140    -0.0653000     1.3909990
  O        3.7753660     0.2843820    -1.0654240
  C       -2.1786680     0.7692630     0.5423480
  C       -0.9035678     0.7729769    -0.2834896
  C       -2.7827930    -0.6059770     0.2231310
  C       -1.5369320    -1.4089660    -0.0835960
  C        0.3225300     1.1924080     0.5079200
  H       -1.9376650     0.8286140     1.6117160
  H       -1.0169450     1.4955040    -1.1629930
  H       -3.3413290    -1.0227480     1.0706890
  H       -1.7077950    -2.2947630    -0.7028010
  H        0.4416350     0.4968690     1.3430810
  H        0.1975530     2.2044650     0.9092850
  H       -2.8909940     2.6048820     0.5755830
  H       -4.0423210     0.2940670    -0.9260900
  H       -0.0419210    -2.0739930     0.9730340
  H        0.9072950    -1.0817680    -0.8531670
  H        3.8470510     0.3069850     1.5449930
units angstrom
no_reorient  #important for SAPT in psi4, default
symmetry c1  #important for SAPT in psi4, default
}

set PROPERTIES_ORIGIN ["COM"]
properties('MP2/aug-cc-pvtz', properties = ['dipole'])
--------------------------------------------------------------------------

    Molecular point group: c1
  Charge       = 0
  Multiplicity = 1
  Basis Set: AUG-CC-PVTZ
    Blend: AUG-CC-PVTZ
  Basis Set: (AUG-CC-PVTZ AUX)
    Blend: AUG-CC-PVTZ-JKFIT

    Orbital Energies [Eh]
    ---------------------

    Doubly Occupied:

       1A    -80.115328     2A    -20.611260     3A    -20.607146
       4A    -20.607087     5A    -20.605651     6A    -20.599375
       7A    -20.596385     8A    -20.575320     9A    -20.514901
      10A    -11.363452    11A    -11.322266    12A    -11.320658
      13A    -11.318999    14A    -11.307747    15A     -7.630277
      16A     -5.528694    17A     -5.528620    18A     -5.527112
      19A     -1.467873    20A     -1.450456    21A     -1.412159
      22A     -1.390841    23A     -1.378821    24A     -1.375787
      25A     -1.371676    26A     -1.296218    27A     -1.087900
      28A     -1.047481    29A     -0.948351    30A     -0.857127
      31A     -0.841716    32A     -0.829648    33A     -0.772805
      34A     -0.761378    35A     -0.749679    36A     -0.735360
      37A     -0.717373    38A     -0.693584    39A     -0.684321
      40A     -0.667882    41A     -0.653403    42A     -0.649699
      43A     -0.632471    44A     -0.615326    45A     -0.601224
      46A     -0.594311    47A     -0.582513    48A     -0.578682
      49A     -0.569144    50A     -0.560344    51A     -0.543991
      52A     -0.531921    53A     -0.528078    54A     -0.512665
      55A     -0.492654    56A     -0.489479    57A     -0.473791
      58A     -0.468409    59A     -0.463601    60A     -0.451380

  @DF-RHF Final Energy: -1135.81900669566880

   => Energetics <=

    Nuclear Repulsion Energy =           1216.8269957249092386
    One-Electron Energy =               -3986.8684106957789481
    Two-Electron Energy =                1634.2224082752006780
    Total Energy =                      -1135.8190066956688042
  Basis Set: (AUG-CC-PVTZ AUX)
    Blend: AUG-CC-PVTZ-RI
    Molecular point group: c1

    Geometry (in Angstrom), charge = 0, multiplicity = 1:

       Center              X                  Y                   Z               Mass
    ------------   -----------------  -----------------  -----------------  -----------------
         P            2.559535946115     0.052846339872    -0.171829676908    30.973761998420
         O           -0.793488053885    -0.507161660128    -0.857963676908    15.994914619570
         O           -3.199035053885     1.762013339872     0.203708323092    15.994914619570
         O           -3.609344053885    -0.542973660128    -0.938071676908    15.994914619570
         O           -0.978141053885    -1.688055660128     1.168751323092    15.994914619570
         O            1.449370946115     1.232806339872    -0.302426676908    15.994914619570
         O            1.689564946115    -1.289951660128    -0.338749676908    15.994914619570
         O            2.907098946115    -0.055806660128     1.408965323092    15.994914619570
         O            3.723450946115     0.293875339872    -1.047457676908    15.994914619570
         C           -2.230583053885     0.778756339872     0.560314323092    12.000000000000
         C           -0.955482853885     0.782470239872    -0.265523276908    12.000000000000
         C           -2.834708053885    -0.596483660128     0.241097323092    12.000000000000
         C           -1.588847053885    -1.399472660128    -0.065629676908    12.000000000000
         C            0.270614946115     1.201901339872     0.525886323092    12.000000000000
         H           -1.989580053885     0.838107339872     1.629682323092     1.007825032230
         H           -1.068860053885     1.504997339872    -1.145026676908     1.007825032230
         H           -3.393244053885    -1.013254660128     1.088655323092     1.007825032230
         H           -1.759710053885    -2.285269660128    -0.684834676908     1.007825032230
         H            0.389719946115     0.506362339872     1.361047323092     1.007825032230
         H            0.145637946115     2.213958339872     0.927251323092     1.007825032230
         H           -2.942909053885     2.614375339872     0.593549323092     1.007825032230
         H           -4.094236053885     0.303560339872    -0.908123676908     1.007825032230
         H           -0.093836053885    -2.064499660128     0.991000323092     1.007825032230
         H            0.855379946115    -1.072274660128    -0.835200676908     1.007825032230
         H            3.795135946115     0.316478339872     1.562959323092     1.007825032230

  Basis Set: AUG-CC-PVTZ
    Blend: AUG-CC-PVTZ
  Basis Set: (AUG-CC-PVTZ AUX)
    Blend: AUG-CC-PVTZ-JKFIT
	 Reference Energy          =   -1135.8190066956688042 [Eh]
	 Singles Energy            =      -0.0000000000000000 [Eh]
	 Same-Spin Energy          =      -0.8167277978718920 [Eh]
	 Opposite-Spin Energy      =      -2.4222941848225510 [Eh]
	 Correlation Energy        =      -3.2390219826944429 [Eh]
	 Total Energy              =   -1139.0580286783631436 [Eh]

	 ================> DF-SCS-MP2 Energies <==================
	-----------------------------------------------------------
	 SCS Same-Spin Scale       =       0.3333333333333333 [-]
	 SCS Opposite-Spin Scale   =       1.2000000000000000 [-]
	 SCS Same-Spin Energy      =      -0.2722425992906307 [Eh]
	 SCS Opposite-Spin Energy  =      -2.9067530217870612 [Eh]
	 SCS Correlation Energy    =      -3.1789956210776920 [Eh]
	 SCS Total Energy          =   -1138.9980023167465788 [Eh]
	-----------------------------------------------------------

  Dipole Moment: [D]
     X:    -3.4744      Y:     2.1939      Z:     4.0461     Total:     5.7668

*** Psi4 exiting successfully. Buy a developer a beer!
