                               Psi4 1.3.2 release

  ==> Input File <==

--------------------------------------------------------------------------
#psi4
#
memory 32 gb

molecule  {
0 1
  P        2.6114510     0.0433530    -0.1897960
  O       -0.7415730    -0.5166550    -0.8759300
  O       -3.1471200     1.7525200     0.1857420
  O       -3.5574290    -0.5524670    -0.9560380
  O       -0.9262260    -1.6975490     1.1507850
  O        1.5012860     1.2233130    -0.3203930
  O        1.7414800    -1.2994450    -0.3567160
  O        2.9590140    -0.0653000     1.3909990
  O        3.7753660     0.2843820    -1.0654240
  C       -2.1786680     0.7692630     0.5423480
  C       -0.8637234     0.8311484    -0.3523410
  C       -2.7827930    -0.6059770     0.2231310
  C       -1.5369320    -1.4089660    -0.0835960
  C        0.3225300     1.1924080     0.5079200
  H       -1.9376650     0.8286140     1.6117160
  H       -1.0169450     1.4955040    -1.1629930
  H       -3.3413290    -1.0227480     1.0706890
  H       -1.7077950    -2.2947630    -0.7028010
  H        0.4416350     0.4968690     1.3430810
  H        0.1975530     2.2044650     0.9092850
  H       -2.8909940     2.6048820     0.5755830
  H       -4.0423210     0.2940670    -0.9260900
  H       -0.0419210    -2.0739930     0.9730340
  H        0.9072950    -1.0817680    -0.8531670
  H        3.8470510     0.3069850     1.5449930
units angstrom
no_reorient  #important for SAPT in psi4, default
symmetry c1  #important for SAPT in psi4, default
}

set PROPERTIES_ORIGIN ["COM"]
properties('MP2/aug-cc-pvtz', properties = ['dipole'])
--------------------------------------------------------------------------

    Molecular point group: c1
  Charge       = 0
  Multiplicity = 1
  Basis Set: AUG-CC-PVTZ
    Blend: AUG-CC-PVTZ
  Basis Set: (AUG-CC-PVTZ AUX)
    Blend: AUG-CC-PVTZ-JKFIT

    Orbital Energies [Eh]
    ---------------------

    Doubly Occupied:

       1A    -80.114647     2A    -20.611188     3A    -20.605282
       4A    -20.604022     5A    -20.602267     6A    -20.598230
       7A    -20.594413     8A    -20.574195     9A    -20.514356
      10A    -11.362371    11A    -11.324200    12A    -11.321238
      13A    -11.317546    14A    -11.306493    15A     -7.629609
      16A     -5.528029    17A     -5.527942    18A     -5.526452
      19A     -1.462213    20A     -1.447312    21A     -1.410296
      22A     -1.390788    23A     -1.378063    24A     -1.372888
      25A     -1.367828    26A     -1.295751    27A     -1.079157
      28A     -1.047786    29A     -0.945471    30A     -0.859105
      31A     -0.843596    32A     -0.827153    33A     -0.771539
      34A     -0.758212    35A     -0.746437    36A     -0.732959
      37A     -0.716443    38A     -0.694262    39A     -0.685036
      40A     -0.667484    41A     -0.653167    42A     -0.647996
      43A     -0.633096    44A     -0.613728    45A     -0.601261
      46A     -0.595939    47A     -0.582079    48A     -0.577085
      49A     -0.569761    50A     -0.560156    51A     -0.543116
      52A     -0.532749    53A     -0.526731    54A     -0.511530
      55A     -0.489422    56A     -0.484999    57A     -0.476358
      58A     -0.469606    59A     -0.465814    60A     -0.446403

  @DF-RHF Final Energy: -1135.82058887550033

   => Energetics <=

    Nuclear Repulsion Energy =           1215.4545385243206965
    One-Electron Energy =               -3984.2637435295182513
    Two-Electron Energy =                1632.9886161296969931
    Total Energy =                      -1135.8205888755003343
  Basis Set: (AUG-CC-PVTZ AUX)
    Blend: AUG-CC-PVTZ-RI
    Molecular point group: c1

    Geometry (in Angstrom), charge = 0, multiplicity = 1:

       Center              X                  Y                   Z               Mass
    ------------   -----------------  -----------------  -----------------  -----------------
         P            2.557457280965     0.049811557825    -0.168237729088    30.973761998420
         O           -0.795566719035    -0.510196442175    -0.854371729088    15.994914619570
         O           -3.201113719035     1.758978557825     0.207300270912    15.994914619570
         O           -3.611422719035    -0.546008442175    -0.934479729088    15.994914619570
         O           -0.980219719035    -1.691090442175     1.172343270912    15.994914619570
         O            1.447292280965     1.229771557825    -0.298834729088    15.994914619570
         O            1.687486280965    -1.292986442175    -0.335157729088    15.994914619570
         O            2.905020280965    -0.058841442175     1.412557270912    15.994914619570
         O            3.721372280965     0.290840557825    -1.043865729088    15.994914619570
         C           -2.232661719035     0.775721557825     0.563906270912    12.000000000000
         C           -0.917717119035     0.837606957825    -0.330782729088    12.000000000000
         C           -2.836786719035    -0.599518442175     0.244689270912    12.000000000000
         C           -1.590925719035    -1.402507442175    -0.062037729088    12.000000000000
         C            0.268536280965     1.198866557825     0.529478270912    12.000000000000
         H           -1.991658719035     0.835072557825     1.633274270912     1.007825032230
         H           -1.070938719035     1.501962557825    -1.141434729088     1.007825032230
         H           -3.395322719035    -1.016289442175     1.092247270912     1.007825032230
         H           -1.761788719035    -2.288304442175    -0.681242729088     1.007825032230
         H            0.387641280965     0.503327557825     1.364639270912     1.007825032230
         H            0.143559280965     2.210923557825     0.930843270912     1.007825032230
         H           -2.944987719035     2.611340557825     0.597141270912     1.007825032230
         H           -4.096314719035     0.300525557825    -0.904531729088     1.007825032230
         H           -0.095914719035    -2.067534442175     0.994592270912     1.007825032230
         H            0.853301280965    -1.075309442175    -0.831608729088     1.007825032230
         H            3.793057280965     0.313443557825     1.566551270912     1.007825032230

  Basis Set: AUG-CC-PVTZ
    Blend: AUG-CC-PVTZ
  Basis Set: (AUG-CC-PVTZ AUX)
    Blend: AUG-CC-PVTZ-JKFIT
	 Reference Energy          =   -1135.8205888755003343 [Eh]
	 Singles Energy            =      -0.0000000000000000 [Eh]
	 Same-Spin Energy          =      -0.8160281888969744 [Eh]
	 Opposite-Spin Energy      =      -2.4215770468182045 [Eh]
	 Correlation Energy        =      -3.2376052357151788 [Eh]
	 Total Energy              =   -1139.0581941112154709 [Eh]

	 ================> DF-SCS-MP2 Energies <==================
	-----------------------------------------------------------
	 SCS Same-Spin Scale       =       0.3333333333333333 [-]
	 SCS Opposite-Spin Scale   =       1.2000000000000000 [-]
	 SCS Same-Spin Energy      =      -0.2720093962989915 [Eh]
	 SCS Opposite-Spin Energy  =      -2.9058924561818453 [Eh]
	 SCS Correlation Energy    =      -3.1779018524808369 [Eh]
	 SCS Total Energy          =   -1138.9984907279811068 [Eh]
	-----------------------------------------------------------

  Dipole Moment: [D]
     X:    -3.4772      Y:     2.3361      Z:     4.0258     Total:     5.8100

*** Psi4 exiting successfully. Buy a developer a beer!
