                               Psi4 1.3.2 release

  ==> Input File <==

--------------------------------------------------------------------------
#psi4
#
memory 32 gb

molecule  {
0 1
  P        2.6114510     0.0433530    -0.1897960
  O       -0.7415730    -0.5166550    -0.8759300
  O       -3.1471200     1.7525200     0.1857420
  O       -3.5674135    -0.6004213    -0.9506252
  O       -0.9262260    -1.6975490     1.1507850
  O        1.5012860     1.2233130    -0.3203930
  O        1.7414800    -1.2994450    -0.3567160
  O        2.9590140    -0.0653000     1.3909990
  O        3.7753660     0.2843820    -1.0654240
  C       -2.1786680     0.7692630     0.5423480
  C       -0.8949230     0.8134730    -0.3165700
  C       -2.7827930    -0.6059770     0.2231310
  C       -1.5369320    -1.4089660    -0.0835960
  C        0.3225300     1.1924080     0.5079200
  H       -1.9376650     0.8286140     1.6117160
  H       -1.0169450     1.4955040    -1.1629930
  H       -3.3413290    -1.0227480     1.0706890
  H       -1.7077950    -2.2947630    -0.7028010
  H        0.4416350     0.4968690     1.3430810
  H        0.1975530     2.2044650     0.9092850
  H       -2.8909940     2.6048820     0.5755830
  H       -4.0423210     0.2940670    -0.9260900
  H       -0.0419210    -2.0739930     0.9730340
  H        0.9072950    -1.0817680    -0.8531670
  H        3.8470510     0.3069850     1.5449930
units angstrom
no_reorient  #important for SAPT in psi4, default
symmetry c1  #important for SAPT in psi4, default
}

set PROPERTIES_ORIGIN ["COM"]
properties('MP2/aug-cc-pvtz', properties = ['dipole'])
--------------------------------------------------------------------------

    Molecular point group: c1
  Charge       = 0
  Multiplicity = 1
  Basis Set: AUG-CC-PVTZ
    Blend: AUG-CC-PVTZ
  Basis Set: (AUG-CC-PVTZ AUX)
    Blend: AUG-CC-PVTZ-JKFIT

    Orbital Energies [Eh]
    ---------------------

    Doubly Occupied:

       1A    -80.115073     2A    -20.611296     3A    -20.607668
       4A    -20.605347     5A    -20.603630     6A    -20.598512
       7A    -20.594082     8A    -20.578553     9A    -20.514717
      10A    -11.361203    11A    -11.324576    12A    -11.321634
      13A    -11.318748    14A    -11.306202    15A     -7.630024
      16A     -5.528445    17A     -5.528361    18A     -5.526861
      19A     -1.463058    20A     -1.448115    21A     -1.411182
      22A     -1.390795    23A     -1.378263    24A     -1.371632
      25A     -1.366028    26A     -1.296052    27A     -1.084515
      28A     -1.045345    29A     -0.946768    30A     -0.858171
      31A     -0.841228    32A     -0.828268    33A     -0.771949
      34A     -0.756505    35A     -0.747758    36A     -0.734698
      37A     -0.716933    38A     -0.692799    39A     -0.683049
      40A     -0.663473    41A     -0.653155    42A     -0.647783
      43A     -0.633572    44A     -0.612371    45A     -0.601446
      46A     -0.595389    47A     -0.582161    48A     -0.577561
      49A     -0.569892    50A     -0.560178    51A     -0.543418
      52A     -0.532201    53A     -0.527258    54A     -0.512815
      55A     -0.490881    56A     -0.487451    57A     -0.475155
      58A     -0.468804    59A     -0.465161    60A     -0.450930

  @DF-RHF Final Energy: -1135.81880602658453

   => Energetics <=

    Nuclear Repulsion Energy =           1215.2698963131595065
    One-Electron Energy =               -3983.8592111506236506
    Two-Electron Energy =                1632.7705088108798464
    Total Energy =                      -1135.8188060265845252
  Basis Set: (AUG-CC-PVTZ AUX)
    Blend: AUG-CC-PVTZ-RI
    Molecular point group: c1

    Geometry (in Angstrom), charge = 0, multiplicity = 1:

       Center              X                  Y                   Z               Mass
    ------------   -----------------  -----------------  -----------------  -----------------
         P            2.559779245962     0.054068289126    -0.170480278302    30.973761998420
         O           -0.793244754038    -0.505939710874    -0.856614278302    15.994914619570
         O           -3.198791754038     1.763235289126     0.205057721698    15.994914619570
         O           -3.619085254038    -0.589706010874    -0.931309478302    15.994914619570
         O           -0.977897754038    -1.686833710874     1.170100721698    15.994914619570
         O            1.449614245962     1.234028289126    -0.301077278302    15.994914619570
         O            1.689808245962    -1.288729710874    -0.337400278302    15.994914619570
         O            2.907342245962    -0.054584710874     1.410314721698    15.994914619570
         O            3.723694245962     0.295097289126    -1.046108278302    15.994914619570
         C           -2.230339754038     0.779978289126     0.561663721698    12.000000000000
         C           -0.946594754038     0.824188289126    -0.297254278302    12.000000000000
         C           -2.834464754038    -0.595261710874     0.242446721698    12.000000000000
         C           -1.588603754038    -1.398250710874    -0.064280278302    12.000000000000
         C            0.270858245962     1.203123289126     0.527235721698    12.000000000000
         H           -1.989336754038     0.839329289126     1.631031721698     1.007825032230
         H           -1.068616754038     1.506219289126    -1.143677278302     1.007825032230
         H           -3.393000754038    -1.012032710874     1.090004721698     1.007825032230
         H           -1.759466754038    -2.284047710874    -0.683485278302     1.007825032230
         H            0.389963245962     0.507584289126     1.362396721698     1.007825032230
         H            0.145881245962     2.215180289126     0.928600721698     1.007825032230
         H           -2.942665754038     2.615597289126     0.594898721698     1.007825032230
         H           -4.093992754038     0.304782289126    -0.906774278302     1.007825032230
         H           -0.093592754038    -2.063277710874     0.992349721698     1.007825032230
         H            0.855623245962    -1.071052710874    -0.833851278302     1.007825032230
         H            3.795379245962     0.317700289126     1.564308721698     1.007825032230

  Basis Set: AUG-CC-PVTZ
    Blend: AUG-CC-PVTZ
  Basis Set: (AUG-CC-PVTZ AUX)
    Blend: AUG-CC-PVTZ-JKFIT
	 Reference Energy          =   -1135.8188060265845252 [Eh]
	 Singles Energy            =      -0.0000000000000000 [Eh]
	 Same-Spin Energy          =      -0.8167855520210983 [Eh]
	 Opposite-Spin Energy      =      -2.4231630526860357 [Eh]
	 Correlation Energy        =      -3.2399486047071342 [Eh]
	 Total Energy              =   -1139.0587546312915492 [Eh]

	 ================> DF-SCS-MP2 Energies <==================
	-----------------------------------------------------------
	 SCS Same-Spin Scale       =       0.3333333333333333 [-]
	 SCS Opposite-Spin Scale   =       1.2000000000000000 [-]
	 SCS Same-Spin Energy      =      -0.2722618506736994 [Eh]
	 SCS Opposite-Spin Energy  =      -2.9077956632232427 [Eh]
	 SCS Correlation Energy    =      -3.1800575138969420 [Eh]
	 SCS Total Energy          =   -1138.9988635404815795 [Eh]
	-----------------------------------------------------------

  Dipole Moment: [D]
     X:    -3.4487      Y:     2.3949      Z:     4.0163     Total:     5.8103

*** Psi4 exiting successfully. Buy a developer a beer!
