                               Psi4 1.3.2 release

  ==> Input File <==

--------------------------------------------------------------------------
#psi4
#
memory 32 gb

molecule  {
0 1
  P        2.6114510     0.0433530    -0.1897960
  O       -0.7415730    -0.5166550    -0.8759300
  O       -3.1471200     1.7525200     0.1857420
  O       -3.5574290    -0.5524670    -0.9560380
  O       -0.9262260    -1.6975490     1.1507850
  O        1.5012860     1.2233130    -0.3203930
  O        1.7414800    -1.2994450    -0.3567160
  O        2.9590140    -0.0653000     1.3909990
  O        3.7753660     0.2843820    -1.0654240
  C       -2.0348645     0.7032732     0.5140232
  C       -0.8949230     0.8134730    -0.3165700
  C       -2.7827930    -0.6059770     0.2231310
  C       -1.5369320    -1.4089660    -0.0835960
  C        0.3225300     1.1924080     0.5079200
  H       -1.9376650     0.8286140     1.6117160
  H       -1.0169450     1.4955040    -1.1629930
  H       -3.3413290    -1.0227480     1.0706890
  H       -1.7077950    -2.2947630    -0.7028010
  H        0.4416350     0.4968690     1.3430810
  H        0.1975530     2.2044650     0.9092850
  H       -2.8909940     2.6048820     0.5755830
  H       -4.0423210     0.2940670    -0.9260900
  H       -0.0419210    -2.0739930     0.9730340
  H        0.9072950    -1.0817680    -0.8531670
  H        3.8470510     0.3069850     1.5449930
units angstrom
no_reorient  #important for SAPT in psi4, default
symmetry c1  #important for SAPT in psi4, default
}

set PROPERTIES_ORIGIN ["COM"]
properties('MP2/aug-cc-pvtz', properties = ['dipole'])
--------------------------------------------------------------------------

    Molecular point group: c1
  Charge       = 0
  Multiplicity = 1
  Basis Set: AUG-CC-PVTZ
    Blend: AUG-CC-PVTZ
  Basis Set: (AUG-CC-PVTZ AUX)
    Blend: AUG-CC-PVTZ-JKFIT

    Orbital Energies [Eh]
    ---------------------

    Doubly Occupied:

       1A    -80.117147     2A    -20.613155     3A    -20.608038
       4A    -20.606883     5A    -20.600732     6A    -20.597777
       7A    -20.590465     8A    -20.576430     9A    -20.516486
      10A    -11.363584    11A    -11.326211    12A    -11.325674
      13A    -11.319071    14A    -11.312280    15A     -7.632101
      16A     -5.530524    17A     -5.530436    18A     -5.528932
      19A     -1.468612    20A     -1.451877    21A     -1.393489
      22A     -1.389459    23A     -1.380439    24A     -1.373569
      25A     -1.349441    26A     -1.297837    27A     -1.111221
      28A     -1.053202    29A     -0.953389    30A     -0.858058
      31A     -0.842020    32A     -0.837221    33A     -0.772887
      34A     -0.762304    35A     -0.747590    36A     -0.727201
      37A     -0.713920    38A     -0.696722    39A     -0.680544
      40A     -0.662891    41A     -0.655067    42A     -0.648700
      43A     -0.633873    44A     -0.614531    45A     -0.610828
      46A     -0.592492    47A     -0.583964    48A     -0.579455
      49A     -0.558784    50A     -0.546747    51A     -0.542520
      52A     -0.535139    53A     -0.529186    54A     -0.510730
      55A     -0.497295    56A     -0.491594    57A     -0.476694
      58A     -0.474458    59A     -0.469721    60A     -0.457053

  @DF-RHF Final Energy: -1135.79419769640231

   => Energetics <=

    Nuclear Repulsion Energy =           1218.2069015993811263
    One-Electron Energy =               -3989.5448941646309322
    Two-Electron Energy =                1635.5437948688474989
    Total Energy =                      -1135.7941976964023070
  Basis Set: (AUG-CC-PVTZ AUX)
    Blend: AUG-CC-PVTZ-RI
    Molecular point group: c1

    Geometry (in Angstrom), charge = 0, multiplicity = 1:

       Center              X                  Y                   Z               Mass
    ------------   -----------------  -----------------  -----------------  -----------------
         P            2.551582784103     0.054176335197    -0.168626194128    30.973761998420
         O           -0.801441215897    -0.505831664803    -0.854760194128    15.994914619570
         O           -3.206988215897     1.763343335197     0.206911805872    15.994914619570
         O           -3.617297215897    -0.541643664803    -0.934868194128    15.994914619570
         O           -0.986094215897    -1.686725664803     1.171954805872    15.994914619570
         O            1.441417784103     1.234136335197    -0.299223194128    15.994914619570
         O            1.681611784103    -1.288621664803    -0.335546194128    15.994914619570
         O            2.899145784103    -0.054476664803     1.412168805872    15.994914619570
         O            3.715497784103     0.295205335197    -1.044254194128    15.994914619570
         C           -2.094732715897     0.714096535197     0.535193005872    12.000000000000
         C           -0.954791215897     0.824296335197    -0.295400194128    12.000000000000
         C           -2.842661215897    -0.595153664803     0.244300805872    12.000000000000
         C           -1.596800215897    -1.398142664803    -0.062426194128    12.000000000000
         C            0.262661784103     1.203231335197     0.529089805872    12.000000000000
         H           -1.997533215897     0.839437335197     1.632885805872     1.007825032230
         H           -1.076813215897     1.506327335197    -1.141823194128     1.007825032230
         H           -3.401197215897    -1.011924664803     1.091858805872     1.007825032230
         H           -1.767663215897    -2.283939664803    -0.681631194128     1.007825032230
         H            0.381766784103     0.507692335197     1.364250805872     1.007825032230
         H            0.137684784103     2.215288335197     0.930454805872     1.007825032230
         H           -2.950862215897     2.615705335197     0.596752805872     1.007825032230
         H           -4.102189215897     0.304890335197    -0.904920194128     1.007825032230
         H           -0.101789215897    -2.063169664803     0.994203805872     1.007825032230
         H            0.847426784103    -1.070944664803    -0.831997194128     1.007825032230
         H            3.787182784103     0.317808335197     1.566162805872     1.007825032230

  Basis Set: AUG-CC-PVTZ
    Blend: AUG-CC-PVTZ
  Basis Set: (AUG-CC-PVTZ AUX)
    Blend: AUG-CC-PVTZ-JKFIT
	 Reference Energy          =   -1135.7941976964023070 [Eh]
	 Singles Energy            =      -0.0000000000000000 [Eh]
	 Same-Spin Energy          =      -0.8186098916129576 [Eh]
	 Opposite-Spin Energy      =      -2.4264981929456630 [Eh]
	 Correlation Energy        =      -3.2451080845586207 [Eh]
	 Total Energy              =   -1139.0393057809608308 [Eh]

	 ================> DF-SCS-MP2 Energies <==================
	-----------------------------------------------------------
	 SCS Same-Spin Scale       =       0.3333333333333333 [-]
	 SCS Opposite-Spin Scale   =       1.2000000000000000 [-]
	 SCS Same-Spin Energy      =      -0.2728699638709858 [Eh]
	 SCS Opposite-Spin Energy  =      -2.9117978315347957 [Eh]
	 SCS Correlation Energy    =      -3.1846677954057814 [Eh]
	 SCS Total Energy          =   -1138.9788654918081647 [Eh]
	-----------------------------------------------------------

  Dipole Moment: [D]
     X:    -3.0836      Y:     1.9724      Z:     3.9902     Total:     5.4149

*** Psi4 exiting successfully. Buy a developer a beer!
