                               Psi4 1.3.2 release

  ==> Input File <==

--------------------------------------------------------------------------
#psi4
#
memory 32 gb

molecule  {
0 1
  P        2.6114510     0.0433530    -0.1897960
  O       -0.7415730    -0.5166550    -0.8759300
  O       -3.1471200     1.7525200     0.1857420
  O       -3.5574290    -0.5524670    -0.9560380
  O       -0.9262260    -1.6975490     1.1507850
  O        1.5012860     1.2233130    -0.3203930
  O        1.7414800    -1.2994450    -0.3567160
  O        2.9590140    -0.0653000     1.3909990
  O        3.7753660     0.2843820    -1.0654240
  C       -2.1786680     0.7692630     0.5423480
  C       -0.8949230     0.8134730    -0.3165700
  C       -2.7827930    -0.6059770     0.2231310
  C       -1.5923930    -1.4711875    -0.0283460
  C        0.3225300     1.1924080     0.5079200
  H       -1.9376650     0.8286140     1.6117160
  H       -1.0169450     1.4955040    -1.1629930
  H       -3.3413290    -1.0227480     1.0706890
  H       -1.7077950    -2.2947630    -0.7028010
  H        0.4416350     0.4968690     1.3430810
  H        0.1975530     2.2044650     0.9092850
  H       -2.8909940     2.6048820     0.5755830
  H       -4.0423210     0.2940670    -0.9260900
  H       -0.0419210    -2.0739930     0.9730340
  H        0.9072950    -1.0817680    -0.8531670
  H        3.8470510     0.3069850     1.5449930
units angstrom
no_reorient  #important for SAPT in psi4, default
symmetry c1  #important for SAPT in psi4, default
}

set PROPERTIES_ORIGIN ["COM"]
properties('MP2/aug-cc-pvtz', properties = ['dipole'])
--------------------------------------------------------------------------

    Molecular point group: c1
  Charge       = 0
  Multiplicity = 1
  Basis Set: AUG-CC-PVTZ
    Blend: AUG-CC-PVTZ
  Basis Set: (AUG-CC-PVTZ AUX)
    Blend: AUG-CC-PVTZ-JKFIT

    Orbital Energies [Eh]
    ---------------------

    Doubly Occupied:

       1A    -80.112676     2A    -20.609632     3A    -20.605731
       4A    -20.605218     5A    -20.601986     6A    -20.595304
       7A    -20.587282     8A    -20.576588     9A    -20.512633
      10A    -11.368250    11A    -11.323128    12A    -11.317501
      13A    -11.311416    14A    -11.310482    15A     -7.627616
      16A     -5.526038    17A     -5.525954    18A     -5.524461
      19A     -1.456791    20A     -1.445198    21A     -1.413316
      22A     -1.388824    23A     -1.375624    24A     -1.375333
      25A     -1.357424    26A     -1.293881    27A     -1.077986
      28A     -1.049305    29A     -0.948256    30A     -0.856815
      31A     -0.835198    32A     -0.831427    33A     -0.776094
      34A     -0.764469    35A     -0.743219    36A     -0.730803
      37A     -0.714784    38A     -0.690580    39A     -0.683922
      40A     -0.665319    41A     -0.650787    42A     -0.645354
      43A     -0.632505    44A     -0.617174    45A     -0.600469
      46A     -0.593785    47A     -0.578688    48A     -0.576245
      49A     -0.567708    50A     -0.556489    51A     -0.541968
      52A     -0.531532    53A     -0.523485    54A     -0.510779
      55A     -0.498224    56A     -0.478836    57A     -0.470784
      58A     -0.468026    59A     -0.464133    60A     -0.446866

  @DF-RHF Final Energy: -1135.81418701392317

   => Energetics <=

    Nuclear Repulsion Energy =           1214.2711159857715302
    One-Electron Energy =               -3982.0300085008375390
    Two-Electron Energy =                1631.9447055011426073
    Total Energy =                      -1135.8141870139231742
  Basis Set: (AUG-CC-PVTZ AUX)
    Blend: AUG-CC-PVTZ-RI
    Molecular point group: c1

    Geometry (in Angstrom), charge = 0, multiplicity = 1:

       Center              X                  Y                   Z               Mass
    ------------   -----------------  -----------------  -----------------  -----------------
         P            2.561978327062     0.053979744613    -0.172986255371    30.973761998420
         O           -0.791045672938    -0.506028255387    -0.859120255371    15.994914619570
         O           -3.196592672938     1.763146744613     0.202551744629    15.994914619570
         O           -3.606901672938    -0.541840255387    -0.939228255371    15.994914619570
         O           -0.975698672938    -1.686922255387     1.167594744629    15.994914619570
         O            1.451813327062     1.233939744613    -0.303583255371    15.994914619570
         O            1.692007327062    -1.288818255387    -0.339906255371    15.994914619570
         O            2.909541327062    -0.054673255387     1.407808744629    15.994914619570
         O            3.725893327062     0.295008744613    -1.048614255371    15.994914619570
         C           -2.228140672938     0.779889744613     0.559157744629    12.000000000000
         C           -0.944395672938     0.824099744613    -0.299760255371    12.000000000000
         C           -2.832265672938    -0.595350255387     0.239940744629    12.000000000000
         C           -1.641865672938    -1.460560755387    -0.011536255371    12.000000000000
         C            0.273057327062     1.203034744613     0.524729744629    12.000000000000
         H           -1.987137672938     0.839240744613     1.628525744629     1.007825032230
         H           -1.066417672938     1.506130744613    -1.146183255371     1.007825032230
         H           -3.390801672938    -1.012121255387     1.087498744629     1.007825032230
         H           -1.757267672938    -2.284136255387    -0.685991255371     1.007825032230
         H            0.392162327062     0.507495744613     1.359890744629     1.007825032230
         H            0.148080327062     2.215091744613     0.926094744629     1.007825032230
         H           -2.940466672938     2.615508744613     0.592392744629     1.007825032230
         H           -4.091793672938     0.304693744613    -0.909280255371     1.007825032230
         H           -0.091393672938    -2.063366255387     0.989843744629     1.007825032230
         H            0.857822327062    -1.071141255387    -0.836357255371     1.007825032230
         H            3.797578327062     0.317611744613     1.561802744629     1.007825032230

  Basis Set: AUG-CC-PVTZ
    Blend: AUG-CC-PVTZ
  Basis Set: (AUG-CC-PVTZ AUX)
    Blend: AUG-CC-PVTZ-JKFIT
	 Reference Energy          =   -1135.8141870139231742 [Eh]
	 Singles Energy            =      -0.0000000000000000 [Eh]
	 Same-Spin Energy          =      -0.8167704951625108 [Eh]
	 Opposite-Spin Energy      =      -2.4229708733263098 [Eh]
	 Correlation Energy        =      -3.2397413684888203 [Eh]
	 Total Energy              =   -1139.0539283824120957 [Eh]

	 ================> DF-SCS-MP2 Energies <==================
	-----------------------------------------------------------
	 SCS Same-Spin Scale       =       0.3333333333333333 [-]
	 SCS Opposite-Spin Scale   =       1.2000000000000000 [-]
	 SCS Same-Spin Energy      =      -0.2722568317208369 [Eh]
	 SCS Opposite-Spin Energy  =      -2.9075650479915716 [Eh]
	 SCS Correlation Energy    =      -3.1798218797124083 [Eh]
	 SCS Total Energy          =   -1138.9940088936355096 [Eh]
	-----------------------------------------------------------

  Dipole Moment: [D]
     X:    -3.7124      Y:     1.9392      Z:     4.2834     Total:     5.9908

*** Psi4 exiting successfully. Buy a developer a beer!
