                               Psi4 1.3.2 release

  ==> Input File <==

--------------------------------------------------------------------------
#psi4
#
memory 32 gb

molecule  {
0 1
  P        2.6114510     0.0433530    -0.1897960
  O       -0.7415730    -0.5166550    -0.8759300
  O       -3.1471200     1.7525200     0.1857420
  O       -3.6319593    -0.5915081    -0.9047302
  O       -0.9262260    -1.6975490     1.1507850
  O        1.5012860     1.2233130    -0.3203930
  O        1.7414800    -1.2994450    -0.3567160
  O        2.9590140    -0.0653000     1.3909990
  O        3.7753660     0.2843820    -1.0654240
  C       -2.1786680     0.7692630     0.5423480
  C       -0.8949230     0.8134730    -0.3165700
  C       -2.7827930    -0.6059770     0.2231310
  C       -1.5369320    -1.4089660    -0.0835960
  C        0.3225300     1.1924080     0.5079200
  H       -1.9376650     0.8286140     1.6117160
  H       -1.0169450     1.4955040    -1.1629930
  H       -3.3413290    -1.0227480     1.0706890
  H       -1.7077950    -2.2947630    -0.7028010
  H        0.4416350     0.4968690     1.3430810
  H        0.1975530     2.2044650     0.9092850
  H       -2.8909940     2.6048820     0.5755830
  H       -4.0423210     0.2940670    -0.9260900
  H       -0.0419210    -2.0739930     0.9730340
  H        0.9072950    -1.0817680    -0.8531670
  H        3.8470510     0.3069850     1.5449930
units angstrom
no_reorient  #important for SAPT in psi4, default
symmetry c1  #important for SAPT in psi4, default
}

set PROPERTIES_ORIGIN ["COM"]
properties('MP2/aug-cc-pvtz', properties = ['dipole'])
--------------------------------------------------------------------------

    Molecular point group: c1
  Charge       = 0
  Multiplicity = 1
  Basis Set: AUG-CC-PVTZ
    Blend: AUG-CC-PVTZ
  Basis Set: (AUG-CC-PVTZ AUX)
    Blend: AUG-CC-PVTZ-JKFIT

    Orbital Energies [Eh]
    ---------------------

    Doubly Occupied:

       1A    -80.115529     2A    -20.611689     3A    -20.607480
       4A    -20.605834     5A    -20.604898     6A    -20.599109
       7A    -20.595431     8A    -20.574351     9A    -20.515127
      10A    -11.362786    11A    -11.325011    12A    -11.322170
      13A    -11.319439    14A    -11.306573    15A     -7.630481
      16A     -5.528902    17A     -5.528818    18A     -5.527317
      19A     -1.463812    20A     -1.448777    21A     -1.411996
      22A     -1.391296    23A     -1.378822    24A     -1.373480
      25A     -1.369717    26A     -1.296464    27A     -1.085390
      28A     -1.047528    29A     -0.947434    30A     -0.858479
      31A     -0.842910    32A     -0.830076    33A     -0.772648
      34A     -0.759849    35A     -0.747879    36A     -0.735217
      37A     -0.717441    38A     -0.693499    39A     -0.682842
      40A     -0.668227    41A     -0.654175    42A     -0.648979
      43A     -0.633782    44A     -0.613019    45A     -0.601768
      46A     -0.595679    47A     -0.582676    48A     -0.579046
      49A     -0.570555    50A     -0.561553    51A     -0.543854
      52A     -0.533289    53A     -0.528629    54A     -0.512785
      55A     -0.491956    56A     -0.487826    57A     -0.475569
      58A     -0.468682    59A     -0.463694    60A     -0.452104

  @DF-RHF Final Energy: -1135.82243841300351

   => Energetics <=

    Nuclear Repulsion Energy =           1214.4697148838927205
    One-Electron Energy =               -3982.1756171764964165
    Two-Electron Energy =                1631.8834638796001855
    Total Energy =                      -1135.8224384130035105
  Basis Set: (AUG-CC-PVTZ AUX)
    Blend: AUG-CC-PVTZ-RI
    Molecular point group: c1

    Geometry (in Angstrom), charge = 0, multiplicity = 1:

       Center              X                  Y                   Z               Mass
    ------------   -----------------  -----------------  -----------------  -----------------
         P            2.564267587653     0.053448489121    -0.173671693420    30.973761998420
         O           -0.788756412347    -0.506559510879    -0.859805693420    15.994914619570
         O           -3.194303412347     1.762615489121     0.201866306580    15.994914619570
         O           -3.679142712347    -0.581412610879    -0.888605893420    15.994914619570
         O           -0.973409412347    -1.687453510879     1.166909306580    15.994914619570
         O            1.454102587653     1.233408489121    -0.304268693420    15.994914619570
         O            1.694296587653    -1.289349510879    -0.340591693420    15.994914619570
         O            2.911830587653    -0.055204510879     1.407123306580    15.994914619570
         O            3.728182587653     0.294477489121    -1.049299693420    15.994914619570
         C           -2.225851412347     0.779358489121     0.558472306580    12.000000000000
         C           -0.942106412347     0.823568489121    -0.300445693420    12.000000000000
         C           -2.829976412347    -0.595881510879     0.239255306580    12.000000000000
         C           -1.584115412347    -1.398870510879    -0.067471693420    12.000000000000
         C            0.275346587653     1.202503489121     0.524044306580    12.000000000000
         H           -1.984848412347     0.838709489121     1.627840306580     1.007825032230
         H           -1.064128412347     1.505599489121    -1.146868693420     1.007825032230
         H           -3.388512412347    -1.012652510879     1.086813306580     1.007825032230
         H           -1.754978412347    -2.284667510879    -0.686676693420     1.007825032230
         H            0.394451587653     0.506964489121     1.359205306580     1.007825032230
         H            0.150369587653     2.214560489121     0.925409306580     1.007825032230
         H           -2.938177412347     2.614977489121     0.591707306580     1.007825032230
         H           -4.089504412347     0.304162489121    -0.909965693420     1.007825032230
         H           -0.089104412347    -2.063897510879     0.989158306580     1.007825032230
         H            0.860111587653    -1.071672510879    -0.837042693420     1.007825032230
         H            3.799867587653     0.317080489121     1.561117306580     1.007825032230

  Basis Set: AUG-CC-PVTZ
    Blend: AUG-CC-PVTZ
  Basis Set: (AUG-CC-PVTZ AUX)
    Blend: AUG-CC-PVTZ-JKFIT
	 Reference Energy          =   -1135.8224384130035105 [Eh]
	 Singles Energy            =      -0.0000000000000000 [Eh]
	 Same-Spin Energy          =      -0.8160872904510583 [Eh]
	 Opposite-Spin Energy      =      -2.4216426362676438 [Eh]
	 Correlation Energy        =      -3.2377299267187021 [Eh]
	 Total Energy              =   -1139.0601683397221677 [Eh]

	 ================> DF-SCS-MP2 Energies <==================
	-----------------------------------------------------------
	 SCS Same-Spin Scale       =       0.3333333333333333 [-]
	 SCS Opposite-Spin Scale   =       1.2000000000000000 [-]
	 SCS Same-Spin Energy      =      -0.2720290968170194 [Eh]
	 SCS Opposite-Spin Energy  =      -2.9059711635211722 [Eh]
	 SCS Correlation Energy    =      -3.1780002603381918 [Eh]
	 SCS Total Energy          =   -1139.0004386733417050 [Eh]
	-----------------------------------------------------------

  Dipole Moment: [D]
     X:    -3.2868      Y:     2.4007      Z:     3.9560     Total:     5.6760

*** Psi4 exiting successfully. Buy a developer a beer!
