                               Psi4 1.3.2 release

  ==> Input File <==

--------------------------------------------------------------------------
#psi4
#
memory 32 gb

molecule  {
0 1
  P        2.6114510     0.0433530    -0.1897960
  O       -0.7415730    -0.5166550    -0.8759300
  O       -3.1471200     1.7525200     0.1857420
  O       -3.5574290    -0.5524670    -0.9560380
  O       -0.9262260    -1.6975490     1.1507850
  O        1.5012860     1.2233130    -0.3203930
  O        1.7414800    -1.2994450    -0.3567160
  O        2.9590140    -0.0653000     1.3909990
  O        3.7753660     0.2843820    -1.0654240
  C       -2.1786680     0.7692630     0.5423480
  C       -0.8949230     0.8134730    -0.3165700
  C       -2.7530964    -0.5722546     0.2509194
  C       -1.5369320    -1.4089660    -0.0835960
  C        0.3225300     1.1924080     0.5079200
  H       -1.9376650     0.8286140     1.6117160
  H       -1.0169450     1.4955040    -1.1629930
  H       -3.3413290    -1.0227480     1.0706890
  H       -1.7077950    -2.2947630    -0.7028010
  H        0.4416350     0.4968690     1.3430810
  H        0.1975530     2.2044650     0.9092850
  H       -2.8909940     2.6048820     0.5755830
  H       -4.0423210     0.2940670    -0.9260900
  H       -0.0419210    -2.0739930     0.9730340
  H        0.9072950    -1.0817680    -0.8531670
  H        3.8470510     0.3069850     1.5449930
units angstrom
no_reorient  #important for SAPT in psi4, default
symmetry c1  #important for SAPT in psi4, default
}

set PROPERTIES_ORIGIN ["COM"]
properties('MP2/aug-cc-pvtz', properties = ['dipole'])
--------------------------------------------------------------------------

    Molecular point group: c1
  Charge       = 0
  Multiplicity = 1
  Basis Set: AUG-CC-PVTZ
    Blend: AUG-CC-PVTZ
  Basis Set: (AUG-CC-PVTZ AUX)
    Blend: AUG-CC-PVTZ-JKFIT

    Orbital Energies [Eh]
    ---------------------

    Doubly Occupied:

       1A    -80.115364     2A    -20.611567     3A    -20.607318
       4A    -20.605666     5A    -20.603880     6A    -20.598881
       7A    -20.594945     8A    -20.571552     9A    -20.514958
      10A    -11.363487    11A    -11.323480    12A    -11.322047
      13A    -11.319337    14A    -11.306722    15A     -7.630314
      16A     -5.528735    17A     -5.528652    18A     -5.527151
      19A     -1.463914    20A     -1.448818    21A     -1.411587
      22A     -1.391129    23A     -1.378615    24A     -1.371672
      25A     -1.358832    26A     -1.296293    27A     -1.090589
      28A     -1.050550    29A     -0.948120    30A     -0.860638
      31A     -0.841364    32A     -0.828910    33A     -0.773235
      34A     -0.756192    35A     -0.749380    36A     -0.736054
      37A     -0.717366    38A     -0.693419    39A     -0.682415
      40A     -0.663630    41A     -0.653360    42A     -0.647877
      43A     -0.631252    44A     -0.613765    45A     -0.601675
      46A     -0.592643    47A     -0.581446    48A     -0.576896
      49A     -0.569743    50A     -0.557041    51A     -0.543435
      52A     -0.532580    53A     -0.526474    54A     -0.515288
      55A     -0.494989    56A     -0.488979    57A     -0.475761
      58A     -0.469450    59A     -0.466179    60A     -0.453386

  @DF-RHF Final Energy: -1135.81895167988137

   => Energetics <=

    Nuclear Repulsion Energy =           1216.4951802254267932
    One-Electron Energy =               -3986.2702709616291941
    Two-Electron Energy =                1633.9561390563210352
    Total Energy =                      -1135.8189516798813656
  Basis Set: (AUG-CC-PVTZ AUX)
    Blend: AUG-CC-PVTZ-RI
    Molecular point group: c1

    Geometry (in Angstrom), charge = 0, multiplicity = 1:

       Center              X                  Y                   Z               Mass
    ------------   -----------------  -----------------  -----------------  -----------------
         P            2.557535691826     0.048974392761    -0.171553595552    30.973761998420
         O           -0.795488308174    -0.511033607239    -0.857687595552    15.994914619570
         O           -3.201035308174     1.758141392761     0.203984404448    15.994914619570
         O           -3.611344308174    -0.546845607239    -0.937795595552    15.994914619570
         O           -0.980141308174    -1.691927607239     1.169027404448    15.994914619570
         O            1.447370691826     1.228934392761    -0.302150595552    15.994914619570
         O            1.687564691826    -1.293823607239    -0.338473595552    15.994914619570
         O            2.905098691826    -0.059678607239     1.409241404448    15.994914619570
         O            3.721450691826     0.290003392761    -1.047181595552    15.994914619570
         C           -2.232583308174     0.774884392761     0.560590404448    12.000000000000
         C           -0.948838308174     0.819094392761    -0.298327595552    12.000000000000
         C           -2.807011708174    -0.566633207239     0.269161804448    12.000000000000
         C           -1.590847308174    -1.403344607239    -0.065353595552    12.000000000000
         C            0.268614691826     1.198029392761     0.526162404448    12.000000000000
         H           -1.991580308174     0.834235392761     1.629958404448     1.007825032230
         H           -1.070860308174     1.501125392761    -1.144750595552     1.007825032230
         H           -3.395244308174    -1.017126607239     1.088931404448     1.007825032230
         H           -1.761710308174    -2.289141607239    -0.684558595552     1.007825032230
         H            0.387719691826     0.502490392761     1.361323404448     1.007825032230
         H            0.143637691826     2.210086392761     0.927527404448     1.007825032230
         H           -2.944909308174     2.610503392761     0.593825404448     1.007825032230
         H           -4.096236308174     0.299688392761    -0.907847595552     1.007825032230
         H           -0.095836308174    -2.068371607239     0.991276404448     1.007825032230
         H            0.853379691826    -1.076146607239    -0.834924595552     1.007825032230
         H            3.793135691826     0.312606392761     1.563235404448     1.007825032230

  Basis Set: AUG-CC-PVTZ
    Blend: AUG-CC-PVTZ
  Basis Set: (AUG-CC-PVTZ AUX)
    Blend: AUG-CC-PVTZ-JKFIT
	 Reference Energy          =   -1135.8189516798813656 [Eh]
	 Singles Energy            =      -0.0000000000000000 [Eh]
	 Same-Spin Energy          =      -0.8166171963373156 [Eh]
	 Opposite-Spin Energy      =      -2.4228059610727697 [Eh]
	 Correlation Energy        =      -3.2394231574100854 [Eh]
	 Total Energy              =   -1139.0583748372914670 [Eh]

	 ================> DF-SCS-MP2 Energies <==================
	-----------------------------------------------------------
	 SCS Same-Spin Scale       =       0.3333333333333333 [-]
	 SCS Opposite-Spin Scale   =       1.2000000000000000 [-]
	 SCS Same-Spin Energy      =      -0.2722057321124385 [Eh]
	 SCS Opposite-Spin Energy  =      -2.9073671532873235 [Eh]
	 SCS Correlation Energy    =      -3.1795728853997618 [Eh]
	 SCS Total Energy          =   -1138.9985245652810590 [Eh]
	-----------------------------------------------------------

  Dipole Moment: [D]
     X:    -3.3662      Y:     2.3164      Z:     4.1031     Total:     5.7907

*** Psi4 exiting successfully. Buy a developer a beer!
