                               Psi4 1.3.2 release

  ==> Input File <==

--------------------------------------------------------------------------
#psi4
#
memory 32 gb

molecule  {
0 1
  P        2.6114510     0.0433530    -0.1897960
  O       -0.7415730    -0.5166550    -0.8759300
  O       -3.1471200     1.7525200     0.1857420
  O       -3.5574290    -0.5524670    -0.9560380
  O       -0.9262260    -1.6975490     1.1507850
  O        1.5012860     1.2233130    -0.3203930
  O        1.7414800    -1.2994450    -0.3567160
  O        2.9590140    -0.0653000     1.3909990
  O        3.7753660     0.2843820    -1.0654240
  C       -2.1541976     0.7592935     0.5378622
  C       -0.8949230     0.8134730    -0.3165700
  C       -2.7827930    -0.6059770     0.2231310
  C       -1.5369320    -1.4089660    -0.0835960
  C        0.3225300     1.1924080     0.5079200
  H       -1.9376650     0.8286140     1.6117160
  H       -1.0169450     1.4955040    -1.1629930
  H       -3.3413290    -1.0227480     1.0706890
  H       -1.7077950    -2.2947630    -0.7028010
  H        0.4416350     0.4968690     1.3430810
  H        0.1975530     2.2044650     0.9092850
  H       -2.8909940     2.6048820     0.5755830
  H       -4.0423210     0.2940670    -0.9260900
  H       -0.0419210    -2.0739930     0.9730340
  H        0.9072950    -1.0817680    -0.8531670
  H        3.8470510     0.3069850     1.5449930
units angstrom
no_reorient  #important for SAPT in psi4, default
symmetry c1  #important for SAPT in psi4, default
}

set PROPERTIES_ORIGIN ["COM"]
properties('MP2/aug-cc-pvtz', properties = ['dipole'])
--------------------------------------------------------------------------

    Molecular point group: c1
  Charge       = 0
  Multiplicity = 1
  Basis Set: AUG-CC-PVTZ
    Blend: AUG-CC-PVTZ
  Basis Set: (AUG-CC-PVTZ AUX)
    Blend: AUG-CC-PVTZ-JKFIT

    Orbital Energies [Eh]
    ---------------------

    Doubly Occupied:

       1A    -80.115333     2A    -20.611534     3A    -20.605615
       4A    -20.604057     5A    -20.603802     6A    -20.598849
       7A    -20.595256     8A    -20.575074     9A    -20.514932
      10A    -11.362362    11A    -11.323304    12A    -11.322003
      13A    -11.318700    14A    -11.307927    15A     -7.630284
      16A     -5.528705    17A     -5.528621    18A     -5.527121
      19A     -1.463883    20A     -1.448757    21A     -1.405109
      22A     -1.391129    23A     -1.378560    24A     -1.372143
      25A     -1.368856    26A     -1.296270    27A     -1.088345
      28A     -1.047887    29A     -0.947652    30A     -0.857598
      31A     -0.841954    32A     -0.830576    33A     -0.771567
      34A     -0.759594    35A     -0.746853    36A     -0.733419
      37A     -0.716906    38A     -0.693427    39A     -0.682945
      40A     -0.666498    41A     -0.653496    42A     -0.647840
      43A     -0.632793    44A     -0.613566    45A     -0.600902
      46A     -0.595799    47A     -0.582338    48A     -0.577585
      49A     -0.567099    50A     -0.559995    51A     -0.543798
      52A     -0.532793    53A     -0.527437    54A     -0.512206
      55A     -0.491213    56A     -0.489898    57A     -0.475414
      58A     -0.469766    59A     -0.466818    60A     -0.452619

  @DF-RHF Final Energy: -1135.82138432133274

   => Energetics <=

    Nuclear Repulsion Energy =           1216.2697578492977755
    One-Electron Energy =               -3985.8287141453083677
    Two-Electron Energy =                1633.7375719746776213
    Total Energy =                      -1135.8213843213327436
  Basis Set: (AUG-CC-PVTZ AUX)
    Blend: AUG-CC-PVTZ-RI
    Molecular point group: c1

    Geometry (in Angstrom), charge = 0, multiplicity = 1:

       Center              X                  Y                   Z               Mass
    ------------   -----------------  -----------------  -----------------  -----------------
         P            2.557808340424     0.051253780325    -0.169869864468    30.973761998420
         O           -0.795215659576    -0.508754219675    -0.856003864468    15.994914619570
         O           -3.200762659576     1.760420780325     0.205668135532    15.994914619570
         O           -3.611071659576    -0.544566219675    -0.936111864468    15.994914619570
         O           -0.979868659576    -1.689648219675     1.170711135532    15.994914619570
         O            1.447643340424     1.231213780325    -0.300466864468    15.994914619570
         O            1.687837340424    -1.291544219675    -0.336789864468    15.994914619570
         O            2.905371340424    -0.057399219675     1.410925135532    15.994914619570
         O            3.721723340424     0.292282780325    -1.045497864468    15.994914619570
         C           -2.207840259576     0.767194280325     0.557788335532    12.000000000000
         C           -0.948565659576     0.821373780325    -0.296643864468    12.000000000000
         C           -2.836435659576    -0.598076219675     0.243057135532    12.000000000000
         C           -1.590574659576    -1.401065219675    -0.063669864468    12.000000000000
         C            0.268887340424     1.200308780325     0.527846135532    12.000000000000
         H           -1.991307659576     0.836514780325     1.631642135532     1.007825032230
         H           -1.070587659576     1.503404780325    -1.143066864468     1.007825032230
         H           -3.394971659576    -1.014847219675     1.090615135532     1.007825032230
         H           -1.761437659576    -2.286862219675    -0.682874864468     1.007825032230
         H            0.387992340424     0.504769780325     1.363007135532     1.007825032230
         H            0.143910340424     2.212365780325     0.929211135532     1.007825032230
         H           -2.944636659576     2.612782780325     0.595509135532     1.007825032230
         H           -4.095963659576     0.301967780325    -0.906163864468     1.007825032230
         H           -0.095563659576    -2.066092219675     0.992960135532     1.007825032230
         H            0.853652340424    -1.073867219675    -0.833240864468     1.007825032230
         H            3.793408340424     0.314885780325     1.564919135532     1.007825032230

  Basis Set: AUG-CC-PVTZ
    Blend: AUG-CC-PVTZ
  Basis Set: (AUG-CC-PVTZ AUX)
    Blend: AUG-CC-PVTZ-JKFIT
	 Reference Energy          =   -1135.8213843213327436 [Eh]
	 Singles Energy            =      -0.0000000000000000 [Eh]
	 Same-Spin Energy          =      -0.8164768861000236 [Eh]
	 Opposite-Spin Energy      =      -2.4223349649313231 [Eh]
	 Correlation Energy        =      -3.2388118510313468 [Eh]
	 Total Energy              =   -1139.0601961723641580 [Eh]

	 ================> DF-SCS-MP2 Energies <==================
	-----------------------------------------------------------
	 SCS Same-Spin Scale       =       0.3333333333333333 [-]
	 SCS Opposite-Spin Scale   =       1.2000000000000000 [-]
	 SCS Same-Spin Energy      =      -0.2721589620333412 [Eh]
	 SCS Opposite-Spin Energy  =      -2.9068019579175877 [Eh]
	 SCS Correlation Energy    =      -3.1789609199509288 [Eh]
	 SCS Total Energy          =   -1139.0003452412836396 [Eh]
	-----------------------------------------------------------

  Dipole Moment: [D]
     X:    -3.4115      Y:     2.2414      Z:     4.0268     Total:     5.7339

*** Psi4 exiting successfully. Buy a developer a beer!
