                               Psi4 1.4a3.dev225

  ==> Input File <==

--------------------------------------------------------------------------
#psi4
#
memory 32 gb

molecule  {
0 1
  P        2.6113660     0.0433910    -0.1897900
  O       -0.7416560    -0.5164190    -0.8762010
  O       -3.1473860     1.7523070     0.1855430
  O       -3.5574330    -0.5529450    -0.9556820
  O       -0.9255690    -1.6972900     1.1506350
  O        1.5012550     1.2233910    -0.3202530
  O        1.7411940    -1.2993510    -0.3564950
  O        2.9591660    -0.0655390     1.3909200
  O        3.7751240     0.2843830    -1.0656400
  C       -2.1787050     0.7693270     0.5422590
  C       -0.8949630     0.8136090    -0.3166340
  C       -2.7825860    -0.6061320     0.2233240
  C       -1.5279552    -1.4130150    -0.0660190
  C        0.3224410     1.1924200     0.5080110
  H       -1.9377070     0.8289040     1.6116220
  H       -1.0168440     1.4957790    -1.1629650
  H       -3.3408870    -1.0228010     1.0710960
  H       -1.7074320    -2.2947510    -0.7027390
  H        0.4414920     0.4968360     1.3431340
  H        0.1974400     2.2044510     0.9094280
  H       -2.8916000     2.6047160     0.5754970
  H       -4.0429610     0.2932130    -0.9254450
  H       -0.0410590    -2.0731950     0.9726900
  H        0.9073710    -1.0816890    -0.8535130
  H        3.8468470     0.3075270     1.5450430
units angstrom
no_reorient  #important for SAPT in psi4, default
symmetry c1  #important for SAPT in psi4, default
}

set PROPERTIES_ORIGIN ["COM"]
properties('MP2/aug-cc-pvtz', properties = ['dipole'])
--------------------------------------------------------------------------

    Molecular point group: c1
  Charge       = 0
  Multiplicity = 1
  Basis Set: AUG-CC-PVTZ
    Blend: AUG-CC-PVTZ
  Basis Set: (AUG-CC-PVTZ AUX)
    Blend: AUG-CC-PVTZ-JKFIT

    Orbital Energies [Eh]
    ---------------------

    Doubly Occupied:

       1A    -80.115030     2A    -20.611352     3A    -20.605780
       4A    -20.605017     5A    -20.601918     6A    -20.598613
       7A    -20.598215     8A    -20.574557     9A    -20.514661
      10A    -11.362473    11A    -11.322762    12A    -11.321086
      13A    -11.317361    14A    -11.307009    15A     -7.629980
      16A     -5.528398    17A     -5.528319    18A     -5.526817
      19A     -1.463806    20A     -1.449179    21A     -1.411903
      22A     -1.391225    23A     -1.378486    24A     -1.375796
      25A     -1.369279    26A     -1.295988    27A     -1.083345
      28A     -1.045782    29A     -0.945926    30A     -0.857808
      31A     -0.840928    32A     -0.829141    33A     -0.772671
      34A     -0.761888    35A     -0.746983    36A     -0.733629
      37A     -0.716890    38A     -0.693495    39A     -0.684622
      40A     -0.667795    41A     -0.653142    42A     -0.648141
      43A     -0.633064    44A     -0.616092    45A     -0.601121
      46A     -0.596074    47A     -0.581888    48A     -0.577454
      49A     -0.570004    50A     -0.559354    51A     -0.543727
      52A     -0.532465    53A     -0.527315    54A     -0.511358
      55A     -0.489029    56A     -0.486816    57A     -0.475024
      58A     -0.468866    59A     -0.465507    60A     -0.449883

  @DF-RHF Final Energy: -1135.82233659887970

   => Energetics <=

    Nuclear Repulsion Energy =           1216.0162983923221418
    One-Electron Energy =               -3985.3327991069340897
    Two-Electron Energy =                1633.4941641157320191
    Total Energy =                      -1135.8223365988797013
  Basis Set: (AUG-CC-PVTZ AUX)
    Blend: AUG-CC-PVTZ-RI
    Molecular point group: c1

    Geometry (in Angstrom), charge = 0, multiplicity = 1:

       Center              X                  Y                   Z               Mass
    ------------   -----------------  -----------------  -----------------  -----------------
         P            2.558547683490     0.050989200350    -0.171011014599    30.973761998420
         O           -0.794474316510    -0.508820799650    -0.857422014599    15.994914619570
         O           -3.200204316510     1.759905200350     0.204321985401    15.994914619570
         O           -3.610251316510    -0.545346799650    -0.936903014599    15.994914619570
         O           -0.978387316510    -1.689691799650     1.169413985401    15.994914619570
         O            1.448436683490     1.230989200350    -0.301474014599    15.994914619570
         O            1.688375683490    -1.291752799650    -0.337716014599    15.994914619570
         O            2.906347683490    -0.057940799650     1.409698985401    15.994914619570
         O            3.722305683490     0.291981200350    -1.046861014599    15.994914619570
         C           -2.231523316510     0.776925200350     0.561037985401    12.000000000000
         C           -0.947781316510     0.821207200350    -0.297855014599    12.000000000000
         C           -2.835404316510    -0.598533799650     0.242102985401    12.000000000000
         C           -1.580773516510    -1.405416799650    -0.047240014599    12.000000000000
         C            0.269622683490     1.200018200350     0.526789985401    12.000000000000
         H           -1.990525316510     0.836502200350     1.630400985401     1.007825032230
         H           -1.069662316510     1.503377200350    -1.144186014599     1.007825032230
         H           -3.393705316510    -1.015202799650     1.089874985401     1.007825032230
         H           -1.760250316510    -2.287152799650    -0.683960014599     1.007825032230
         H            0.388673683490     0.504434200350     1.361912985401     1.007825032230
         H            0.144621683490     2.212049200350     0.928206985401     1.007825032230
         H           -2.944418316510     2.612314200350     0.594275985401     1.007825032230
         H           -4.095779316510     0.300811200350    -0.906666014599     1.007825032230
         H           -0.093877316510    -2.065596799650     0.991468985401     1.007825032230
         H            0.854552683490    -1.074090799650    -0.834734014599     1.007825032230
         H            3.794028683490     0.315125200350     1.563821985401     1.007825032230

  Basis Set: AUG-CC-PVTZ
    Blend: AUG-CC-PVTZ
  Basis Set: (AUG-CC-PVTZ AUX)
    Blend: AUG-CC-PVTZ-JKFIT
	 Reference Energy          =   -1135.8223365988797013 [Eh]
	 Singles Energy            =      -0.0000000000000000 [Eh]
	 Same-Spin Energy          =      -0.8163445902453810 [Eh]
	 Opposite-Spin Energy      =      -2.4217644016662714 [Eh]
	 Correlation Energy        =      -3.2381089919116524 [Eh]
	 Total Energy              =   -1139.0604455907914598 [Eh]

	 ================> DF-SCS-MP2 Energies <==================
	-----------------------------------------------------------
	 SCS Same-Spin Scale       =       0.3333333333333333 [-]
	 SCS Opposite-Spin Scale   =       1.2000000000000000 [-]
	 SCS Same-Spin Energy      =      -0.2721148634151270 [Eh]
	 SCS Opposite-Spin Energy  =      -2.9061172819995256 [Eh]
	 SCS Correlation Energy    =      -3.1782321454146527 [Eh]
	 SCS Total Energy          =   -1139.0005687442942417 [Eh]
	-----------------------------------------------------------

  Dipole Moment: [D]
     X:    -3.4465      Y:     2.2517      Z:     4.1094     Total:     5.8168

*** Psi4 exiting successfully. Buy a developer a beer!
