                               Psi4 1.3.2 release

  ==> Input File <==

--------------------------------------------------------------------------
#psi4
#
memory 32 gb

molecule  {
0 1
  P        2.6114510     0.0433530    -0.1897960
  O       -0.7415730    -0.5166550    -0.8759300
  O       -3.1471200     1.7525200     0.1857420
  O       -3.5574290    -0.5524670    -0.9560380
  O       -0.9262260    -1.6975490     1.1507850
  O        1.5012860     1.2233130    -0.3203930
  O        1.7414800    -1.2994450    -0.3567160
  O        2.9590140    -0.0653000     1.3909990
  O        3.7753660     0.2843820    -1.0654240
  C       -2.3145497     0.9072220     0.4923133
  C       -0.8949230     0.8134730    -0.3165700
  C       -2.7827930    -0.6059770     0.2231310
  C       -1.5369320    -1.4089660    -0.0835960
  C        0.3225300     1.1924080     0.5079200
  H       -1.9376650     0.8286140     1.6117160
  H       -1.0169450     1.4955040    -1.1629930
  H       -3.3413290    -1.0227480     1.0706890
  H       -1.7077950    -2.2947630    -0.7028010
  H        0.4416350     0.4968690     1.3430810
  H        0.1975530     2.2044650     0.9092850
  H       -2.8909940     2.6048820     0.5755830
  H       -4.0423210     0.2940670    -0.9260900
  H       -0.0419210    -2.0739930     0.9730340
  H        0.9072950    -1.0817680    -0.8531670
  H        3.8470510     0.3069850     1.5449930
units angstrom
no_reorient  #important for SAPT in psi4, default
symmetry c1  #important for SAPT in psi4, default
}

set PROPERTIES_ORIGIN ["COM"]
properties('MP2/aug-cc-pvtz', properties = ['dipole'])
--------------------------------------------------------------------------

    Molecular point group: c1
  Charge       = 0
  Multiplicity = 1
  Basis Set: AUG-CC-PVTZ
    Blend: AUG-CC-PVTZ
  Basis Set: (AUG-CC-PVTZ AUX)
    Blend: AUG-CC-PVTZ-JKFIT

    Orbital Energies [Eh]
    ---------------------

    Doubly Occupied:

       1A    -80.111926     2A    -20.630474     3A    -20.608437
       4A    -20.600974     5A    -20.599890     6A    -20.595425
       7A    -20.590525     8A    -20.571803     9A    -20.512021
      10A    -11.359710    11A    -11.331420    12A    -11.316228
      13A    -11.310366    14A    -11.304052    15A     -7.626876
      16A     -5.525291    17A     -5.525215    18A     -5.523722
      19A     -1.513473    20A     -1.456625    21A     -1.441295
      22A     -1.387092    23A     -1.377738    24A     -1.374715
      25A     -1.364046    26A     -1.293350    27A     -1.060628
      28A     -1.033097    29A     -0.944759    30A     -0.870837
      31A     -0.842511    32A     -0.824211    33A     -0.786941
      34A     -0.762768    35A     -0.749842    36A     -0.737839
      37A     -0.715495    38A     -0.705716    39A     -0.688452
      40A     -0.667200    41A     -0.659774    42A     -0.648342
      43A     -0.643988    44A     -0.618609    45A     -0.611315
      46A     -0.598436    47A     -0.587592    48A     -0.578467
      49A     -0.568627    50A     -0.555172    51A     -0.539933
      52A     -0.527231    53A     -0.523194    54A     -0.498986
      55A     -0.480309    56A     -0.472674    57A     -0.466260
      58A     -0.460341    59A     -0.454896    60A     -0.422031

  @DF-RHF Final Energy: -1135.77647596735255

   => Energetics <=

    Nuclear Repulsion Energy =           1214.6092697576232240
    One-Electron Energy =               -3982.4531602740939888
    Two-Electron Energy =                1632.0674145491182117
    Total Energy =                      -1135.7764759673525532
  Basis Set: (AUG-CC-PVTZ AUX)
    Blend: AUG-CC-PVTZ-RI
    Molecular point group: c1

    Geometry (in Angstrom), charge = 0, multiplicity = 1:

       Center              X                  Y                   Z               Mass
    ------------   -----------------  -----------------  -----------------  -----------------
         P            2.566173840270     0.043536414329    -0.167493598015    30.973761998420
         O           -0.786850159730    -0.516471585671    -0.853627598015    15.994914619570
         O           -3.192397159730     1.752703414329     0.208044401985    15.994914619570
         O           -3.602706159730    -0.552283585671    -0.933735598015    15.994914619570
         O           -0.971503159730    -1.697365585671     1.173087401985    15.994914619570
         O            1.456008840270     1.223496414329    -0.298090598015    15.994914619570
         O            1.696202840270    -1.299261585671    -0.334413598015    15.994914619570
         O            2.913736840270    -0.065116585671     1.413301401985    15.994914619570
         O            3.730088840270     0.284565414329    -1.043121598015    15.994914619570
         C           -2.359826859730     0.907405414329     0.514615701985    12.000000000000
         C           -0.940200159730     0.813656414329    -0.294267598015    12.000000000000
         C           -2.828070159730    -0.605793585671     0.245433401985    12.000000000000
         C           -1.582209159730    -1.408782585671    -0.061293598015    12.000000000000
         C            0.277252840270     1.192591414329     0.530222401985    12.000000000000
         H           -1.982942159730     0.828797414329     1.634018401985     1.007825032230
         H           -1.062222159730     1.495687414329    -1.140690598015     1.007825032230
         H           -3.386606159730    -1.022564585671     1.092991401985     1.007825032230
         H           -1.753072159730    -2.294579585671    -0.680498598015     1.007825032230
         H            0.396357840270     0.497052414329     1.365383401985     1.007825032230
         H            0.152275840270     2.204648414329     0.931587401985     1.007825032230
         H           -2.936271159730     2.605065414329     0.597885401985     1.007825032230
         H           -4.087598159730     0.294250414329    -0.903787598015     1.007825032230
         H           -0.087198159730    -2.073809585671     0.995336401985     1.007825032230
         H            0.862017840270    -1.081584585671    -0.830864598015     1.007825032230
         H            3.801773840270     0.307168414329     1.567295401985     1.007825032230

  Basis Set: AUG-CC-PVTZ
    Blend: AUG-CC-PVTZ
  Basis Set: (AUG-CC-PVTZ AUX)
    Blend: AUG-CC-PVTZ-JKFIT
	 Reference Energy          =   -1135.7764759673525532 [Eh]
	 Singles Energy            =      -0.0000000000000000 [Eh]
	 Same-Spin Energy          =      -0.8170952328161425 [Eh]
	 Opposite-Spin Energy      =      -2.4214825076823381 [Eh]
	 Correlation Energy        =      -3.2385777404984806 [Eh]
	 Total Energy              =   -1139.0150537078509387 [Eh]

	 ================> DF-SCS-MP2 Energies <==================
	-----------------------------------------------------------
	 SCS Same-Spin Scale       =       0.3333333333333333 [-]
	 SCS Opposite-Spin Scale   =       1.2000000000000000 [-]
	 SCS Same-Spin Energy      =      -0.2723650776053808 [Eh]
	 SCS Opposite-Spin Energy  =      -2.9057790092188056 [Eh]
	 SCS Correlation Energy    =      -3.1781440868241866 [Eh]
	 SCS Total Energy          =   -1138.9546200541767575 [Eh]
	-----------------------------------------------------------

  Dipole Moment: [D]
     X:    -4.1789      Y:     2.9020      Z:     3.9229     Total:     6.4244

*** Psi4 exiting successfully. Buy a developer a beer!
