                               Psi4 1.3.2 release

  ==> Input File <==

--------------------------------------------------------------------------
#psi4
#
memory 32 gb

molecule  {
0 1
  P        2.6114510     0.0433530    -0.1897960
  O       -0.7415730    -0.5166550    -0.8759300
  O       -3.1471200     1.7525200     0.1857420
  O       -3.5574290    -0.5524670    -0.9560380
  O       -0.9262260    -1.6975490     1.1507850
  O        1.5012860     1.2233130    -0.3203930
  O        1.7414800    -1.2994450    -0.3567160
  O        2.9590140    -0.0653000     1.3909990
  O        3.7753660     0.2843820    -1.0654240
  C       -2.1786680     0.7692630     0.5423480
  C       -0.8949230     0.8134730    -0.3165700
  C       -2.7827930    -0.6059770     0.2231310
  C       -1.5369320    -1.4089660    -0.0835960
  C        0.4861308     1.1966973     0.3929575
  H       -1.9376650     0.8286140     1.6117160
  H       -1.0169450     1.4955040    -1.1629930
  H       -3.3413290    -1.0227480     1.0706890
  H       -1.7077950    -2.2947630    -0.7028010
  H        0.4416350     0.4968690     1.3430810
  H        0.1975530     2.2044650     0.9092850
  H       -2.8909940     2.6048820     0.5755830
  H       -4.0423210     0.2940670    -0.9260900
  H       -0.0419210    -2.0739930     0.9730340
  H        0.9072950    -1.0817680    -0.8531670
  H        3.8470510     0.3069850     1.5449930
units angstrom
no_reorient  #important for SAPT in psi4, default
symmetry c1  #important for SAPT in psi4, default
}

set PROPERTIES_ORIGIN ["COM"]
properties('MP2/aug-cc-pvtz', properties = ['dipole'])
--------------------------------------------------------------------------

    Molecular point group: c1
  Charge       = 0
  Multiplicity = 1
  Basis Set: AUG-CC-PVTZ
    Blend: AUG-CC-PVTZ
  Basis Set: (AUG-CC-PVTZ AUX)
    Blend: AUG-CC-PVTZ-JKFIT

    Orbital Energies [Eh]
    ---------------------

    Doubly Occupied:

       1A    -80.130264     2A    -20.626503     3A    -20.620256
       4A    -20.607583     5A    -20.601700     6A    -20.596998
       7A    -20.591145     8A    -20.571474     9A    -20.525715
      10A    -11.358354    11A    -11.325031    12A    -11.319655
      13A    -11.310630    14A    -11.303917    15A     -7.645276
      16A     -5.543845    17A     -5.543422    18A     -5.542014
      19A     -1.516916    20A     -1.450843    21A     -1.429159
      22A     -1.407088    23A     -1.388800    24A     -1.369914
      25A     -1.364893    26A     -1.308214    27A     -1.068101
      28A     -1.035166    29A     -0.952415    30A     -0.869652
      31A     -0.837309    32A     -0.827793    33A     -0.790676
      34A     -0.759700    35A     -0.748024    36A     -0.735716
      37A     -0.727434    38A     -0.717323    39A     -0.692109
      40A     -0.669742    41A     -0.668982    42A     -0.649176
      43A     -0.637213    44A     -0.615422    45A     -0.598202
      46A     -0.594517    47A     -0.588988    48A     -0.575751
      49A     -0.570953    50A     -0.561443    51A     -0.551888
      52A     -0.530761    53A     -0.516843    54A     -0.497077
      55A     -0.485546    56A     -0.481545    57A     -0.478009
      58A     -0.467073    59A     -0.457776    60A     -0.428083

  @DF-RHF Final Energy: -1135.78048930260184

   => Energetics <=

    Nuclear Repulsion Energy =           1218.1851948663852454
    One-Electron Energy =               -3989.1593333568316666
    Two-Electron Energy =                1635.1936491878445850
    Total Energy =                      -1135.7804893026018362
  Basis Set: (AUG-CC-PVTZ AUX)
    Blend: AUG-CC-PVTZ-RI
    Molecular point group: c1

    Geometry (in Angstrom), charge = 0, multiplicity = 1:

       Center              X                  Y                   Z               Mass
    ------------   -----------------  -----------------  -----------------  -----------------
         P            2.550549967507     0.050509904884    -0.164106342713    30.973761998420
         O           -0.802474032493    -0.509498095116    -0.850240342713    15.994914619570
         O           -3.208021032493     1.759676904884     0.211431657287    15.994914619570
         O           -3.618330032493    -0.545310095116    -0.930348342713    15.994914619570
         O           -0.987127032493    -1.690392095116     1.176474657287    15.994914619570
         O            1.440384967507     1.230469904884    -0.294703342713    15.994914619570
         O            1.680578967507    -1.292288095116    -0.331026342713    15.994914619570
         O            2.898112967507    -0.058143095116     1.416688657287    15.994914619570
         O            3.714464967507     0.291538904884    -1.039734342713    15.994914619570
         C           -2.239569032493     0.776419904884     0.568037657287    12.000000000000
         C           -0.955824032493     0.820629904884    -0.290880342713    12.000000000000
         C           -2.843694032493    -0.598820095116     0.248820657287    12.000000000000
         C           -1.597833032493    -1.401809095116    -0.057906342713    12.000000000000
         C            0.425229767507     1.203854204884     0.418647157287    12.000000000000
         H           -1.998566032493     0.835770904884     1.637405657287     1.007825032230
         H           -1.077846032493     1.502660904884    -1.137303342713     1.007825032230
         H           -3.402230032493    -1.015591095116     1.096378657287     1.007825032230
         H           -1.768696032493    -2.287606095116    -0.677111342713     1.007825032230
         H            0.380733967507     0.504025904884     1.368770657287     1.007825032230
         H            0.136651967507     2.211621904884     0.934974657287     1.007825032230
         H           -2.951895032493     2.612038904884     0.601272657287     1.007825032230
         H           -4.103222032493     0.301223904884    -0.900400342713     1.007825032230
         H           -0.102822032493    -2.066836095116     0.998723657287     1.007825032230
         H            0.846393967507    -1.074611095116    -0.827477342713     1.007825032230
         H            3.786149967507     0.314141904884     1.570682657287     1.007825032230

  Basis Set: AUG-CC-PVTZ
    Blend: AUG-CC-PVTZ
  Basis Set: (AUG-CC-PVTZ AUX)
    Blend: AUG-CC-PVTZ-JKFIT
	 Reference Energy          =   -1135.7804893026018362 [Eh]
	 Singles Energy            =      -0.0000000000000000 [Eh]
	 Same-Spin Energy          =      -0.8175530147875751 [Eh]
	 Opposite-Spin Energy      =      -2.4221936763643006 [Eh]
	 Correlation Energy        =      -3.2397466911518755 [Eh]
	 Total Energy              =   -1139.0202359937536585 [Eh]

	 ================> DF-SCS-MP2 Energies <==================
	-----------------------------------------------------------
	 SCS Same-Spin Scale       =       0.3333333333333333 [-]
	 SCS Opposite-Spin Scale   =       1.2000000000000000 [-]
	 SCS Same-Spin Energy      =      -0.2725176715958584 [Eh]
	 SCS Opposite-Spin Energy  =      -2.9066324116371605 [Eh]
	 SCS Correlation Energy    =      -3.1791500832330186 [Eh]
	 SCS Total Energy          =   -1138.9596393858348620 [Eh]
	-----------------------------------------------------------

  Dipole Moment: [D]
     X:    -2.5010      Y:     2.1082      Z:     3.6440     Total:     4.8967

*** Psi4 exiting successfully. Buy a developer a beer!
