                               Psi4 1.3.2 release

  ==> Input File <==

--------------------------------------------------------------------------
#psi4
#
memory 32 gb

molecule  {
0 1
  P        2.6114510     0.0433530    -0.1897960
  O       -0.7643127    -0.5144404    -0.8868571
  O       -3.1471200     1.7525200     0.1857420
  O       -3.5574290    -0.5524670    -0.9560380
  O       -0.9262260    -1.6975490     1.1507850
  O        1.5012860     1.2233130    -0.3203930
  O        1.7414800    -1.2994450    -0.3567160
  O        2.9590140    -0.0653000     1.3909990
  O        3.7753660     0.2843820    -1.0654240
  C       -2.1786680     0.7692630     0.5423480
  C       -0.8949230     0.8134730    -0.3165700
  C       -2.7827930    -0.6059770     0.2231310
  C       -1.5369320    -1.4089660    -0.0835960
  C        0.3225300     1.1924080     0.5079200
  H       -1.9376650     0.8286140     1.6117160
  H       -1.0169450     1.4955040    -1.1629930
  H       -3.3413290    -1.0227480     1.0706890
  H       -1.7077950    -2.2947630    -0.7028010
  H        0.4416350     0.4968690     1.3430810
  H        0.1975530     2.2044650     0.9092850
  H       -2.8909940     2.6048820     0.5755830
  H       -4.0423210     0.2940670    -0.9260900
  H       -0.0419210    -2.0739930     0.9730340
  H        0.9072950    -1.0817680    -0.8531670
  H        3.8470510     0.3069850     1.5449930
units angstrom
no_reorient  #important for SAPT in psi4, default
symmetry c1  #important for SAPT in psi4, default
}

set PROPERTIES_ORIGIN ["COM"]
properties('MP2/aug-cc-pvtz', properties = ['dipole'])
--------------------------------------------------------------------------

    Molecular point group: c1
  Charge       = 0
  Multiplicity = 1
  Basis Set: AUG-CC-PVTZ
    Blend: AUG-CC-PVTZ
  Basis Set: (AUG-CC-PVTZ AUX)
    Blend: AUG-CC-PVTZ-JKFIT

    Orbital Energies [Eh]
    ---------------------

    Doubly Occupied:

       1A    -80.115707     2A    -20.611782     3A    -20.605662
       4A    -20.605642     5A    -20.603320     6A    -20.600175
       7A    -20.595301     8A    -20.573976     9A    -20.515223
      10A    -11.361262    11A    -11.322607    12A    -11.321910
      13A    -11.318028    14A    -11.306161    15A     -7.630662
      16A     -5.529077    17A     -5.529003    18A     -5.527496
      19A     -1.463549    20A     -1.449103    21A     -1.410832
      22A     -1.391184    23A     -1.379264    24A     -1.373627
      25A     -1.368726    26A     -1.296563    27A     -1.083994
      28A     -1.046538    29A     -0.947348    30A     -0.857460
      31A     -0.842048    32A     -0.828824    33A     -0.771859
      34A     -0.759527    35A     -0.747584    36A     -0.734360
      37A     -0.717518    38A     -0.693525    39A     -0.684334
      40A     -0.666819    41A     -0.653397    42A     -0.648072
      43A     -0.632193    44A     -0.614578    45A     -0.600649
      46A     -0.596328    47A     -0.582753    48A     -0.577738
      49A     -0.569462    50A     -0.559633    51A     -0.544122
      52A     -0.532591    53A     -0.527376    54A     -0.511461
      55A     -0.490774    56A     -0.487461    57A     -0.475435
      58A     -0.469353    59A     -0.465981    60A     -0.450091

  @DF-RHF Final Energy: -1135.82258584816896

   => Energetics <=

    Nuclear Repulsion Energy =           1215.6905653213059395
    One-Electron Energy =               -3984.6722450581796693
    Two-Electron Energy =                1633.1590938887050015
    Total Energy =                      -1135.8225858481689556
  Basis Set: (AUG-CC-PVTZ AUX)
    Blend: AUG-CC-PVTZ-RI
    Molecular point group: c1

    Geometry (in Angstrom), charge = 0, multiplicity = 1:

       Center              X                  Y                   Z               Mass
    ------------   -----------------  -----------------  -----------------  -----------------
         P            2.560666208335     0.050579678473    -0.169344045513    30.973761998420
         O           -0.815097491665    -0.507213721527    -0.866405145513    15.994914619570
         O           -3.197904791665     1.759746678473     0.206193954487    15.994914619570
         O           -3.608213791665    -0.545240321527    -0.935586045513    15.994914619570
         O           -0.977010791665    -1.690322321527     1.171236954487    15.994914619570
         O            1.450501208335     1.230539678473    -0.299941045513    15.994914619570
         O            1.690695208335    -1.292218321527    -0.336264045513    15.994914619570
         O            2.908229208335    -0.058073321527     1.411450954487    15.994914619570
         O            3.724581208335     0.291608678473    -1.044972045513    15.994914619570
         C           -2.229452791665     0.776489678473     0.562799954487    12.000000000000
         C           -0.945707791665     0.820699678473    -0.296118045513    12.000000000000
         C           -2.833577791665    -0.598750321527     0.243582954487    12.000000000000
         C           -1.587716791665    -1.401739321527    -0.063144045513    12.000000000000
         C            0.271745208335     1.199634678473     0.528371954487    12.000000000000
         H           -1.988449791665     0.835840678473     1.632167954487     1.007825032230
         H           -1.067729791665     1.502730678473    -1.142541045513     1.007825032230
         H           -3.392113791665    -1.015521321527     1.091140954487     1.007825032230
         H           -1.758579791665    -2.287536321527    -0.682349045513     1.007825032230
         H            0.390850208335     0.504095678473     1.363532954487     1.007825032230
         H            0.146768208335     2.211691678473     0.929736954487     1.007825032230
         H           -2.941778791665     2.612108678473     0.596034954487     1.007825032230
         H           -4.093105791665     0.301293678473    -0.905638045513     1.007825032230
         H           -0.092705791665    -2.066766321527     0.993485954487     1.007825032230
         H            0.856510208335    -1.074541321527    -0.832715045513     1.007825032230
         H            3.796266208335     0.314211678473     1.565444954487     1.007825032230

  Basis Set: AUG-CC-PVTZ
    Blend: AUG-CC-PVTZ
  Basis Set: (AUG-CC-PVTZ AUX)
    Blend: AUG-CC-PVTZ-JKFIT
	 Reference Energy          =   -1135.8225858481689556 [Eh]
	 Singles Energy            =      -0.0000000000000000 [Eh]
	 Same-Spin Energy          =      -0.8162480708827113 [Eh]
	 Opposite-Spin Energy      =      -2.4217753214476057 [Eh]
	 Correlation Energy        =      -3.2380233923303168 [Eh]
	 Total Energy              =   -1139.0606092404991614 [Eh]

	 ================> DF-SCS-MP2 Energies <==================
	-----------------------------------------------------------
	 SCS Same-Spin Scale       =       0.3333333333333333 [-]
	 SCS Opposite-Spin Scale   =       1.2000000000000000 [-]
	 SCS Same-Spin Energy      =      -0.2720826902942371 [Eh]
	 SCS Opposite-Spin Energy  =      -2.9061303857371268 [Eh]
	 SCS Correlation Energy    =      -3.1782130760313638 [Eh]
	 SCS Total Energy          =   -1139.0007989242003532 [Eh]
	-----------------------------------------------------------

  Dipole Moment: [D]
     X:    -3.3868      Y:     2.2970      Z:     4.0439     Total:     5.7532

*** Psi4 exiting successfully. Buy a developer a beer!
