                               Psi4 1.4a3.dev225

  ==> Input File <==

--------------------------------------------------------------------------
#psi4
#
memory 32 gb

molecule  {
0 1
  P        2.6113660     0.0433910    -0.1897900
  O       -0.7416560    -0.5164190    -0.8762010
  O       -3.1473860     1.7523070     0.1855430
  O       -3.5574330    -0.5529450    -0.9556820
  O       -0.9255690    -1.6972900     1.1506350
  O        1.5012550     1.2233910    -0.3202530
  O        1.7411940    -1.2993510    -0.3564950
  O        2.9591660    -0.0655390     1.3909200
  O        3.7751240     0.2843830    -1.0656400
  C       -2.1787050     0.7693270     0.5422590
  C       -0.8949630     0.8136090    -0.3166340
  C       -2.7935625    -0.6053786     0.2066222
  C       -1.5366410    -1.4089160    -0.0835620
  C        0.3224410     1.1924200     0.5080110
  H       -1.9377070     0.8289040     1.6116220
  H       -1.0168440     1.4957790    -1.1629650
  H       -3.3408870    -1.0228010     1.0710960
  H       -1.7074320    -2.2947510    -0.7027390
  H        0.4414920     0.4968360     1.3431340
  H        0.1974400     2.2044510     0.9094280
  H       -2.8916000     2.6047160     0.5754970
  H       -4.0429610     0.2932130    -0.9254450
  H       -0.0410590    -2.0731950     0.9726900
  H        0.9073710    -1.0816890    -0.8535130
  H        3.8468470     0.3075270     1.5450430
units angstrom
no_reorient  #important for SAPT in psi4, default
symmetry c1  #important for SAPT in psi4, default
}

set PROPERTIES_ORIGIN ["COM"]
properties('MP2/aug-cc-pvtz', properties = ['dipole'])
--------------------------------------------------------------------------

    Molecular point group: c1
  Charge       = 0
  Multiplicity = 1
  Basis Set: AUG-CC-PVTZ
    Blend: AUG-CC-PVTZ
  Basis Set: (AUG-CC-PVTZ AUX)
    Blend: AUG-CC-PVTZ-JKFIT

    Orbital Energies [Eh]
    ---------------------

    Doubly Occupied:

       1A    -80.114805     2A    -20.611073     3A    -20.605964
       4A    -20.604897     5A    -20.603031     6A    -20.598293
       7A    -20.594658     8A    -20.576880     9A    -20.514483
      10A    -11.361650    11A    -11.322782    12A    -11.321003
      13A    -11.317763    14A    -11.307612    15A     -7.629755
      16A     -5.528175    17A     -5.528094    18A     -5.526593
      19A     -1.462939    20A     -1.448185    21A     -1.412613
      22A     -1.390536    23A     -1.379232    24A     -1.377846
      25A     -1.369390    26A     -1.295818    27A     -1.082932
      28A     -1.044999    29A     -0.946116    30A     -0.857219
      31A     -0.841774    32A     -0.828844    33A     -0.771677
      34A     -0.761162    35A     -0.747018    36A     -0.733790
      37A     -0.716609    38A     -0.692510    39A     -0.685150
      40A     -0.668993    41A     -0.653109    42A     -0.647674
      43A     -0.633046    44A     -0.614466    45A     -0.601101
      46A     -0.597873    47A     -0.582298    48A     -0.577747
      49A     -0.570151    50A     -0.561325    51A     -0.543340
      52A     -0.532071    53A     -0.527148    54A     -0.511507
      55A     -0.489490    56A     -0.486757    57A     -0.474662
      58A     -0.468465    59A     -0.464573    60A     -0.449163

  @DF-RHF Final Energy: -1135.82265765732700

   => Energetics <=

    Nuclear Repulsion Energy =           1215.9162975987692334
    One-Electron Energy =               -3985.1402580339668020
    Two-Electron Energy =                1633.4013027778705691
    Total Energy =                      -1135.8226576573269995
  Basis Set: (AUG-CC-PVTZ AUX)
    Blend: AUG-CC-PVTZ-RI
    Molecular point group: c1

    Geometry (in Angstrom), charge = 0, multiplicity = 1:

       Center              X                  Y                   Z               Mass
    ------------   -----------------  -----------------  -----------------  -----------------
         P            2.559573457194     0.050736052736    -0.169224478163    30.973761998420
         O           -0.793448542806    -0.509073947264    -0.855635478163    15.994914619570
         O           -3.199178542806     1.759652052736     0.206108521837    15.994914619570
         O           -3.609225542806    -0.545599947264    -0.935116478163    15.994914619570
         O           -0.977361542806    -1.689944947264     1.171200521837    15.994914619570
         O            1.449462457194     1.230736052736    -0.299687478163    15.994914619570
         O            1.689401457194    -1.292005947264    -0.335929478163    15.994914619570
         O            2.907373457194    -0.058193947264     1.411485521837    15.994914619570
         O            3.723331457194     0.291728052736    -1.045074478163    15.994914619570
         C           -2.230497542806     0.776672052736     0.562824521837    12.000000000000
         C           -0.946755542806     0.820954052736    -0.296068478163    12.000000000000
         C           -2.845355042806    -0.598033547264     0.227187721837    12.000000000000
         C           -1.588433542806    -1.401570947264    -0.062996478163    12.000000000000
         C            0.270648457194     1.199765052736     0.528576521837    12.000000000000
         H           -1.989499542806     0.836249052736     1.632187521837     1.007825032230
         H           -1.068636542806     1.503124052736    -1.142399478163     1.007825032230
         H           -3.392679542806    -1.015455947264     1.091661521837     1.007825032230
         H           -1.759224542806    -2.287405947264    -0.682173478163     1.007825032230
         H            0.389699457194     0.504181052736     1.363699521837     1.007825032230
         H            0.145647457194     2.211796052736     0.929993521837     1.007825032230
         H           -2.943392542806     2.612061052736     0.596062521837     1.007825032230
         H           -4.094753542806     0.300558052736    -0.904879478163     1.007825032230
         H           -0.092851542806    -2.065849947264     0.993255521837     1.007825032230
         H            0.855578457194    -1.074343947264    -0.832947478163     1.007825032230
         H            3.795054457194     0.314872052736     1.565608521837     1.007825032230

  Basis Set: AUG-CC-PVTZ
    Blend: AUG-CC-PVTZ
  Basis Set: (AUG-CC-PVTZ AUX)
    Blend: AUG-CC-PVTZ-JKFIT
	 Reference Energy          =   -1135.8226576573269995 [Eh]
	 Singles Energy            =      -0.0000000000000000 [Eh]
	 Same-Spin Energy          =      -0.8162512640294042 [Eh]
	 Opposite-Spin Energy      =      -2.4215630485374744 [Eh]
	 Correlation Energy        =      -3.2378143125668783 [Eh]
	 Total Energy              =   -1139.0604719698937970 [Eh]

	 ================> DF-SCS-MP2 Energies <==================
	-----------------------------------------------------------
	 SCS Same-Spin Scale       =       0.3333333333333333 [-]
	 SCS Opposite-Spin Scale   =       1.2000000000000000 [-]
	 SCS Same-Spin Energy      =      -0.2720837546764681 [Eh]
	 SCS Opposite-Spin Energy  =      -2.9058756582449692 [Eh]
	 SCS Correlation Energy    =      -3.1779594129214370 [Eh]
	 SCS Total Energy          =   -1139.0006170702483814 [Eh]
	-----------------------------------------------------------

  Dipole Moment: [D]
     X:    -3.5302      Y:     2.3052      Z:     3.9826     Total:     5.7998

*** Psi4 exiting successfully. Buy a developer a beer!
