                               Psi4 1.3.2 release

  ==> Input File <==

--------------------------------------------------------------------------
#psi4
#
memory 32 gb

molecule  {
0 1
  P        2.6114510     0.0433530    -0.1897960
  O       -0.7415730    -0.5166550    -0.8759300
  O       -3.1471200     1.7525200     0.1857420
  O       -3.5574290    -0.5524670    -0.9560380
  O       -0.9262260    -1.6975490     1.1507850
  O        1.5120770     1.2063449    -0.3052878
  O        1.7414800    -1.2994450    -0.3567160
  O        2.9590140    -0.0653000     1.3909990
  O        3.7753660     0.2843820    -1.0654240
  C       -2.1786680     0.7692630     0.5423480
  C       -0.8949230     0.8134730    -0.3165700
  C       -2.7827930    -0.6059770     0.2231310
  C       -1.5369320    -1.4089660    -0.0835960
  C        0.3225300     1.1924080     0.5079200
  H       -1.9376650     0.8286140     1.6117160
  H       -1.0169450     1.4955040    -1.1629930
  H       -3.3413290    -1.0227480     1.0706890
  H       -1.7077950    -2.2947630    -0.7028010
  H        0.4416350     0.4968690     1.3430810
  H        0.1975530     2.2044650     0.9092850
  H       -2.8909940     2.6048820     0.5755830
  H       -4.0423210     0.2940670    -0.9260900
  H       -0.0419210    -2.0739930     0.9730340
  H        0.9072950    -1.0817680    -0.8531670
  H        3.8470510     0.3069850     1.5449930
units angstrom
no_reorient  #important for SAPT in psi4, default
symmetry c1  #important for SAPT in psi4, default
}

set PROPERTIES_ORIGIN ["COM"]
properties('MP2/aug-cc-pvtz', properties = ['dipole'])
--------------------------------------------------------------------------

    Molecular point group: c1
  Charge       = 0
  Multiplicity = 1
  Basis Set: AUG-CC-PVTZ
    Blend: AUG-CC-PVTZ
  Basis Set: (AUG-CC-PVTZ AUX)
    Blend: AUG-CC-PVTZ-JKFIT

    Orbital Energies [Eh]
    ---------------------

    Doubly Occupied:

       1A    -80.112394     2A    -20.608932     3A    -20.606786
       4A    -20.604954     5A    -20.603877     6A    -20.596689
       7A    -20.594853     8A    -20.575195     9A    -20.513398
      10A    -11.362457    11A    -11.324051    12A    -11.323027
      13A    -11.319285    14A    -11.307669    15A     -7.627698
      16A     -5.526218    17A     -5.526020    18A     -5.524511
      19A     -1.464429    20A     -1.449543    21A     -1.411918
      22A     -1.391327    23A     -1.377377    24A     -1.373980
      25A     -1.368984    26A     -1.294890    27A     -1.085416
      28A     -1.048015    29A     -0.948896    30A     -0.858437
      31A     -0.841799    32A     -0.829085    33A     -0.772660
      34A     -0.760264    35A     -0.748008    36A     -0.734560
      37A     -0.716478    38A     -0.694372    39A     -0.685256
      40A     -0.667530    41A     -0.652676    42A     -0.648010
      43A     -0.634005    44A     -0.613879    45A     -0.601336
      46A     -0.596332    47A     -0.581325    48A     -0.577440
      49A     -0.570151    50A     -0.559825    51A     -0.542303
      52A     -0.532740    53A     -0.527812    54A     -0.512367
      55A     -0.491053    56A     -0.488358    57A     -0.474463
      58A     -0.469000    59A     -0.465275    60A     -0.451315

  @DF-RHF Final Energy: -1135.82408467476830

   => Energetics <=

    Nuclear Repulsion Energy =           1216.6745345121171340
    One-Electron Energy =               -3986.6554393513952164
    Two-Electron Energy =                1634.1568201645097815
    Total Energy =                      -1135.8240846747683008
  Basis Set: (AUG-CC-PVTZ AUX)
    Blend: AUG-CC-PVTZ-RI
    Molecular point group: c1

    Geometry (in Angstrom), charge = 0, multiplicity = 1:

       Center              X                  Y                   Z               Mass
    ------------   -----------------  -----------------  -----------------  -----------------
         P            2.558334573453     0.051913591945    -0.171154261784    30.973761998420
         O           -0.794689426547    -0.508094408055    -0.857288261784    15.994914619570
         O           -3.200236426547     1.761080591945     0.204383738216    15.994914619570
         O           -3.610545426547    -0.543906408055    -0.937396261784    15.994914619570
         O           -0.979342426547    -1.688988408055     1.169426738216    15.994914619570
         O            1.458960573453     1.214905491945    -0.286646061784    15.994914619570
         O            1.688363573453    -1.290884408055    -0.338074261784    15.994914619570
         O            2.905897573453    -0.056739408055     1.409640738216    15.994914619570
         O            3.722249573453     0.292942591945    -1.046782261784    15.994914619570
         C           -2.231784426547     0.777823591945     0.560989738216    12.000000000000
         C           -0.948039426547     0.822033591945    -0.297928261784    12.000000000000
         C           -2.835909426547    -0.597416408055     0.241772738216    12.000000000000
         C           -1.590048426547    -1.400405408055    -0.064954261784    12.000000000000
         C            0.269413573453     1.200968591945     0.526561738216    12.000000000000
         H           -1.990781426547     0.837174591945     1.630357738216     1.007825032230
         H           -1.070061426547     1.504064591945    -1.144351261784     1.007825032230
         H           -3.394445426547    -1.014187408055     1.089330738216     1.007825032230
         H           -1.760911426547    -2.286202408055    -0.684159261784     1.007825032230
         H            0.388518573453     0.505429591945     1.361722738216     1.007825032230
         H            0.144436573453     2.213025591945     0.927926738216     1.007825032230
         H           -2.944110426547     2.613442591945     0.594224738216     1.007825032230
         H           -4.095437426547     0.302627591945    -0.907448261784     1.007825032230
         H           -0.095037426547    -2.065432408055     0.991675738216     1.007825032230
         H            0.854178573453    -1.073207408055    -0.834525261784     1.007825032230
         H            3.793934573453     0.315545591945     1.563634738216     1.007825032230

  Basis Set: AUG-CC-PVTZ
    Blend: AUG-CC-PVTZ
  Basis Set: (AUG-CC-PVTZ AUX)
    Blend: AUG-CC-PVTZ-JKFIT
	 Reference Energy          =   -1135.8240846747683008 [Eh]
	 Singles Energy            =      -0.0000000000000000 [Eh]
	 Same-Spin Energy          =      -0.8159646891465642 [Eh]
	 Opposite-Spin Energy      =      -2.4209816473877290 [Eh]
	 Correlation Energy        =      -3.2369463365342934 [Eh]
	 Total Energy              =   -1139.0610310113027026 [Eh]

	 ================> DF-SCS-MP2 Energies <==================
	-----------------------------------------------------------
	 SCS Same-Spin Scale       =       0.3333333333333333 [-]
	 SCS Opposite-Spin Scale   =       1.2000000000000000 [-]
	 SCS Same-Spin Energy      =      -0.2719882297155214 [Eh]
	 SCS Opposite-Spin Energy  =      -2.9051779768652746 [Eh]
	 SCS Correlation Energy    =      -3.1771662065807957 [Eh]
	 SCS Total Energy          =   -1139.0012508813490513 [Eh]
	-----------------------------------------------------------

  Dipole Moment: [D]
     X:    -3.5847      Y:     2.3713      Z:     4.0087     Total:     5.8773

*** Psi4 exiting successfully. Buy a developer a beer!
