                               Psi4 1.3.2 release

  ==> Input File <==

--------------------------------------------------------------------------
#psi4
#
memory 32 gb

molecule  {
0 1
  P        2.6114510     0.0433530    -0.1897960
  O       -0.7415730    -0.5166550    -0.8759300
  O       -3.1471200     1.7525200     0.1857420
  O       -3.5218674    -0.4092284    -0.9636389
  O       -0.9262260    -1.6975490     1.1507850
  O        1.5012860     1.2233130    -0.3203930
  O        1.7414800    -1.2994450    -0.3567160
  O        2.9590140    -0.0653000     1.3909990
  O        3.7753660     0.2843820    -1.0654240
  C       -2.1786680     0.7692630     0.5423480
  C       -0.8949230     0.8134730    -0.3165700
  C       -2.7827930    -0.6059770     0.2231310
  C       -1.5369320    -1.4089660    -0.0835960
  C        0.3225300     1.1924080     0.5079200
  H       -1.9376650     0.8286140     1.6117160
  H       -1.0169450     1.4955040    -1.1629930
  H       -3.3413290    -1.0227480     1.0706890
  H       -1.7077950    -2.2947630    -0.7028010
  H        0.4416350     0.4968690     1.3430810
  H        0.1975530     2.2044650     0.9092850
  H       -2.8909940     2.6048820     0.5755830
  H       -4.0423210     0.2940670    -0.9260900
  H       -0.0419210    -2.0739930     0.9730340
  H        0.9072950    -1.0817680    -0.8531670
  H        3.8470510     0.3069850     1.5449930
units angstrom
no_reorient  #important for SAPT in psi4, default
symmetry c1  #important for SAPT in psi4, default
}

set PROPERTIES_ORIGIN ["COM"]
properties('MP2/aug-cc-pvtz', properties = ['dipole'])
--------------------------------------------------------------------------

    Molecular point group: c1
  Charge       = 0
  Multiplicity = 1
  Basis Set: AUG-CC-PVTZ
    Blend: AUG-CC-PVTZ
  Basis Set: (AUG-CC-PVTZ AUX)
    Blend: AUG-CC-PVTZ-JKFIT

    Orbital Energies [Eh]
    ---------------------

    Doubly Occupied:

       1A    -80.114578     2A    -20.610881     3A    -20.604307
       4A    -20.603111     5A    -20.601569     6A    -20.598319
       7A    -20.597002     8A    -20.562672     9A    -20.514261
      10A    -11.365312    11A    -11.320094    12A    -11.319479
      13A    -11.316500    14A    -11.310936    15A     -7.629528
      16A     -5.527945    17A     -5.527869    18A     -5.526367
      19A     -1.463834    20A     -1.449030    21A     -1.416662
      22A     -1.390371    23A     -1.382464    24A     -1.377924
      25A     -1.370925    26A     -1.295600    27A     -1.083915
      28A     -1.052408    29A     -0.946269    30A     -0.856953
      31A     -0.845912    32A     -0.832040    33A     -0.777055
      34A     -0.764514    35A     -0.747379    36A     -0.732790
      37A     -0.716384    38A     -0.693737    39A     -0.690299
      40A     -0.673938    41A     -0.652719    42A     -0.647155
      43A     -0.630949    44A     -0.617505    45A     -0.599561
      46A     -0.597685    47A     -0.581853    48A     -0.576265
      49A     -0.567488    50A     -0.559749    51A     -0.543296
      52A     -0.532059    53A     -0.526123    54A     -0.509784
      55A     -0.490274    56A     -0.487126    57A     -0.475149
      58A     -0.470790    59A     -0.466051    60A     -0.448444

  @DF-RHF Final Energy: -1135.81443034503104

   => Energetics <=

    Nuclear Repulsion Energy =           1218.1007072457068716
    One-Electron Energy =               -3989.4479579434255356
    Two-Electron Energy =                1635.5328203526876223
    Total Energy =                      -1135.8144303450310417
  Basis Set: (AUG-CC-PVTZ AUX)
    Blend: AUG-CC-PVTZ-RI
    Molecular point group: c1

    Geometry (in Angstrom), charge = 0, multiplicity = 1:

       Center              X                  Y                   Z               Mass
    ------------   -----------------  -----------------  -----------------  -----------------
         P            2.556612092414     0.040773248022    -0.169575340533    30.973761998420
         O           -0.796411907586    -0.519234751978    -0.855709340533    15.994914619570
         O           -3.201958907586     1.749940248022     0.205962659467    15.994914619570
         O           -3.576706307586    -0.411808151978    -0.943418240533    15.994914619570
         O           -0.981064907586    -1.700128751978     1.171005659467    15.994914619570
         O            1.446447092414     1.220733248022    -0.300172340533    15.994914619570
         O            1.686641092414    -1.302024751978    -0.336495340533    15.994914619570
         O            2.904175092414    -0.067879751978     1.411219659467    15.994914619570
         O            3.720527092414     0.281802248022    -1.045203340533    15.994914619570
         C           -2.233506907586     0.766683248022     0.562568659467    12.000000000000
         C           -0.949761907586     0.810893248022    -0.296349340533    12.000000000000
         C           -2.837631907586    -0.608556751978     0.243351659467    12.000000000000
         C           -1.591770907586    -1.411545751978    -0.063375340533    12.000000000000
         C            0.267691092414     1.189828248022     0.528140659467    12.000000000000
         H           -1.992503907586     0.826034248022     1.631936659467     1.007825032230
         H           -1.071783907586     1.492924248022    -1.142772340533     1.007825032230
         H           -3.396167907586    -1.025327751978     1.090909659467     1.007825032230
         H           -1.762633907586    -2.297342751978    -0.682580340533     1.007825032230
         H            0.386796092414     0.494289248022     1.363301659467     1.007825032230
         H            0.142714092414     2.201885248022     0.929505659467     1.007825032230
         H           -2.945832907586     2.602302248022     0.595803659467     1.007825032230
         H           -4.097159907586     0.291487248022    -0.905869340533     1.007825032230
         H           -0.096759907586    -2.076572751978     0.993254659467     1.007825032230
         H            0.852456092414    -1.084347751978    -0.832946340533     1.007825032230
         H            3.792212092414     0.304405248022     1.565213659467     1.007825032230

  Basis Set: AUG-CC-PVTZ
    Blend: AUG-CC-PVTZ
  Basis Set: (AUG-CC-PVTZ AUX)
    Blend: AUG-CC-PVTZ-JKFIT
	 Reference Energy          =   -1135.8144303450310417 [Eh]
	 Singles Energy            =      -0.0000000000000000 [Eh]
	 Same-Spin Energy          =      -0.8151177429473235 [Eh]
	 Opposite-Spin Energy      =      -2.4188352325551765 [Eh]
	 Correlation Energy        =      -3.2339529755025000 [Eh]
	 Total Energy              =   -1139.0483833205335031 [Eh]

	 ================> DF-SCS-MP2 Energies <==================
	-----------------------------------------------------------
	 SCS Same-Spin Scale       =       0.3333333333333333 [-]
	 SCS Opposite-Spin Scale   =       1.2000000000000000 [-]
	 SCS Same-Spin Energy      =      -0.2717059143157745 [Eh]
	 SCS Opposite-Spin Energy  =      -2.9026022790662118 [Eh]
	 SCS Correlation Energy    =      -3.1743081933819863 [Eh]
	 SCS Total Energy          =   -1138.9887385384129175 [Eh]
	-----------------------------------------------------------

  Dipole Moment: [D]
     X:    -3.6033      Y:     1.9821      Z:     4.0725     Total:     5.7878

*** Psi4 exiting successfully. Buy a developer a beer!
