                               Psi4 1.4a3.dev225

  ==> Input File <==

--------------------------------------------------------------------------
#psi4
#
memory 32 gb

molecule  {
0 1
  P        2.6113660     0.0433910    -0.1897900
  O       -0.7416560    -0.5164190    -0.8762010
  O       -3.1473860     1.7523070     0.1855430
  O       -3.5574330    -0.5529450    -0.9556820
  O       -0.9255690    -1.6972900     1.1506350
  O        1.5012550     1.2233910    -0.3202530
  O        1.7411940    -1.2993510    -0.3564950
  O        2.9591660    -0.0655390     1.3909200
  O        3.7751240     0.2843830    -1.0656400
  C       -2.1787050     0.7693270     0.5422590
  C       -0.8949630     0.8136090    -0.3166340
  C       -2.7825860    -0.6061320     0.2233240
  C       -1.5366410    -1.4089160    -0.0835620
  C        0.3224410     1.1924200     0.5080110
  H       -1.9377070     0.8289040     1.6116220
  H       -1.0168440     1.4957790    -1.1629650
  H       -3.3154468    -1.0038146     1.0324655
  H       -1.7074320    -2.2947510    -0.7027390
  H        0.4414920     0.4968360     1.3431340
  H        0.1974400     2.2044510     0.9094280
  H       -2.8916000     2.6047160     0.5754970
  H       -4.0429610     0.2932130    -0.9254450
  H       -0.0410590    -2.0731950     0.9726900
  H        0.9073710    -1.0816890    -0.8535130
  H        3.8468470     0.3075270     1.5450430
units angstrom
no_reorient  #important for SAPT in psi4, default
symmetry c1  #important for SAPT in psi4, default
}

set PROPERTIES_ORIGIN ["COM"]
properties('MP2/aug-cc-pvtz', properties = ['dipole'])
--------------------------------------------------------------------------

    Molecular point group: c1
  Charge       = 0
  Multiplicity = 1
  Basis Set: AUG-CC-PVTZ
    Blend: AUG-CC-PVTZ
  Basis Set: (AUG-CC-PVTZ AUX)
    Blend: AUG-CC-PVTZ-JKFIT

    Orbital Energies [Eh]
    ---------------------

    Doubly Occupied:

       1A    -80.114895     2A    -20.611166     3A    -20.606127
       4A    -20.604990     5A    -20.603121     6A    -20.598405
       7A    -20.594932     8A    -20.573973     9A    -20.514554
      10A    -11.361823    11A    -11.322941    12A    -11.321127
      13A    -11.317930    14A    -11.301389    15A     -7.629845
      16A     -5.528265    17A     -5.528183    18A     -5.526682
      19A     -1.463013    20A     -1.448162    21A     -1.411290
      22A     -1.390617    23A     -1.378130    24A     -1.373355
      25A     -1.368491    26A     -1.295889    27A     -1.084408
      28A     -1.048330    29A     -0.946678    30A     -0.857953
      31A     -0.843705    32A     -0.832015    33A     -0.772026
      34A     -0.759352    35A     -0.748477    36A     -0.735154
      37A     -0.716768    38A     -0.692764    39A     -0.686146
      40A     -0.667294    41A     -0.653312    42A     -0.647946
      43A     -0.634128    44A     -0.614621    45A     -0.600864
      46A     -0.596930    47A     -0.581921    48A     -0.577403
      49A     -0.569651    50A     -0.559948    51A     -0.543381
      52A     -0.532173    53A     -0.526901    54A     -0.511814
      55A     -0.490408    56A     -0.487995    57A     -0.475126
      58A     -0.470094    59A     -0.466520    60A     -0.450824

  @DF-RHF Final Energy: -1135.82212129908794

   => Energetics <=

    Nuclear Repulsion Energy =           1216.2702578794273904
    One-Electron Energy =               -3985.8401089373692230
    Two-Electron Energy =                1633.7477297588538931
    Total Energy =                      -1135.8221212990879394
  Basis Set: (AUG-CC-PVTZ AUX)
    Blend: AUG-CC-PVTZ-RI
    Molecular point group: c1

    Geometry (in Angstrom), charge = 0, multiplicity = 1:

       Center              X                  Y                   Z               Mass
    ------------   -----------------  -----------------  -----------------  -----------------
         P            2.558889352121     0.050692168699    -0.169926544979    30.973761998420
         O           -0.794132647879    -0.509117831301    -0.856337544979    15.994914619570
         O           -3.199862647879     1.759608168699     0.205406455021    15.994914619570
         O           -3.609909647879    -0.545643831301    -0.935818544979    15.994914619570
         O           -0.978045647879    -1.689988831301     1.170498455021    15.994914619570
         O            1.448778352121     1.230692168699    -0.300389544979    15.994914619570
         O            1.688717352121    -1.292049831301    -0.336631544979    15.994914619570
         O            2.906689352121    -0.058237831301     1.410783455021    15.994914619570
         O            3.722647352121     0.291684168699    -1.045776544979    15.994914619570
         C           -2.231181647879     0.776628168699     0.562122455021    12.000000000000
         C           -0.947439647879     0.820910168699    -0.296770544979    12.000000000000
         C           -2.835062647879    -0.598830831301     0.243187455021    12.000000000000
         C           -1.589117647879    -1.401614831301    -0.063698544979    12.000000000000
         C            0.269964352121     1.199721168699     0.527874455021    12.000000000000
         H           -1.990183647879     0.836205168699     1.631485455021     1.007825032230
         H           -1.069320647879     1.503080168699    -1.143101544979     1.007825032230
         H           -3.367923447879    -0.996513431301     1.052328955021     1.007825032230
         H           -1.759908647879    -2.287449831301    -0.682875544979     1.007825032230
         H            0.389015352121     0.504137168699     1.362997455021     1.007825032230
         H            0.144963352121     2.211752168699     0.929291455021     1.007825032230
         H           -2.944076647879     2.612017168699     0.595360455021     1.007825032230
         H           -4.095437647879     0.300514168699    -0.905581544979     1.007825032230
         H           -0.093535647879    -2.065893831301     0.992553455021     1.007825032230
         H            0.854894352121    -1.074387831301    -0.833649544979     1.007825032230
         H            3.794370352121     0.314828168699     1.564906455021     1.007825032230

  Basis Set: AUG-CC-PVTZ
    Blend: AUG-CC-PVTZ
  Basis Set: (AUG-CC-PVTZ AUX)
    Blend: AUG-CC-PVTZ-JKFIT
	 Reference Energy          =   -1135.8221212990879394 [Eh]
	 Singles Energy            =      -0.0000000000000000 [Eh]
	 Same-Spin Energy          =      -0.8161705957101661 [Eh]
	 Opposite-Spin Energy      =      -2.4214193875037147 [Eh]
	 Correlation Energy        =      -3.2375899832138808 [Eh]
	 Total Energy              =   -1139.0597112823018051 [Eh]

	 ================> DF-SCS-MP2 Energies <==================
	-----------------------------------------------------------
	 SCS Same-Spin Scale       =       0.3333333333333333 [-]
	 SCS Opposite-Spin Scale   =       1.2000000000000000 [-]
	 SCS Same-Spin Energy      =      -0.2720568652367220 [Eh]
	 SCS Opposite-Spin Energy  =      -2.9057032650044574 [Eh]
	 SCS Correlation Energy    =      -3.1777601302411793 [Eh]
	 SCS Total Energy          =   -1138.9998814293292071 [Eh]
	-----------------------------------------------------------

  Dipole Moment: [D]
     X:    -3.4888      Y:     2.2894      Z:     4.0562     Total:     5.8195

*** Psi4 exiting successfully. Buy a developer a beer!
