                               Psi4 1.3.2 release

  ==> Input File <==

--------------------------------------------------------------------------
#psi4
#
memory 32 gb

molecule  {
0 1
  P        2.6114510     0.0433530    -0.1897960
  O       -0.7415730    -0.5166550    -0.8759300
  O       -3.1471200     1.7525200     0.1857420
  O       -3.5574290    -0.5524670    -0.9560380
  O       -0.9262260    -1.6975490     1.1507850
  O        1.5605349     1.1215439    -0.2261410
  O        1.7414800    -1.2994450    -0.3567160
  O        2.9590140    -0.0653000     1.3909990
  O        3.7753660     0.2843820    -1.0654240
  C       -2.1786680     0.7692630     0.5423480
  C       -0.8949230     0.8134730    -0.3165700
  C       -2.7827930    -0.6059770     0.2231310
  C       -1.5369320    -1.4089660    -0.0835960
  C        0.3225300     1.1924080     0.5079200
  H       -1.9376650     0.8286140     1.6117160
  H       -1.0169450     1.4955040    -1.1629930
  H       -3.3413290    -1.0227480     1.0706890
  H       -1.7077950    -2.2947630    -0.7028010
  H        0.4416350     0.4968690     1.3430810
  H        0.1975530     2.2044650     0.9092850
  H       -2.8909940     2.6048820     0.5755830
  H       -4.0423210     0.2940670    -0.9260900
  H       -0.0419210    -2.0739930     0.9730340
  H        0.9072950    -1.0817680    -0.8531670
  H        3.8470510     0.3069850     1.5449930
units angstrom
no_reorient  #important for SAPT in psi4, default
symmetry c1  #important for SAPT in psi4, default
}

set PROPERTIES_ORIGIN ["COM"]
properties('MP2/aug-cc-pvtz', properties = ['dipole'])
--------------------------------------------------------------------------

    Molecular point group: c1
  Charge       = 0
  Multiplicity = 1
  Basis Set: AUG-CC-PVTZ
    Blend: AUG-CC-PVTZ
  Basis Set: (AUG-CC-PVTZ AUX)
    Blend: AUG-CC-PVTZ-JKFIT

    Orbital Energies [Eh]
    ---------------------

    Doubly Occupied:

       1A    -80.098531     2A    -20.609583     3A    -20.605855
       4A    -20.603465     5A    -20.596819     6A    -20.595032
       7A    -20.587496     8A    -20.576991     9A    -20.507426
      10A    -11.363727    11A    -11.332235    12A    -11.327758
      13A    -11.324744    14A    -11.309813    15A     -7.616196
      16A     -5.515386    17A     -5.514263    18A     -5.512768
      19A     -1.477632    20A     -1.455805    21A     -1.414415
      22A     -1.391152    23A     -1.375692    24A     -1.373314
      25A     -1.368084    26A     -1.289637    27A     -1.092013
      28A     -1.053352    29A     -0.960413    30A     -0.863117
      31A     -0.842120    32A     -0.826508    33A     -0.776040
      34A     -0.763635    35A     -0.750391    36A     -0.736134
      37A     -0.716016    38A     -0.705277    39A     -0.688259
      40A     -0.670218    41A     -0.651486    42A     -0.646244
      43A     -0.638553    44A     -0.614662    45A     -0.604084
      46A     -0.596721    47A     -0.578874    48A     -0.578049
      49A     -0.570669    50A     -0.558326    51A     -0.539367
      52A     -0.532034    53A     -0.529407    54A     -0.514429
      55A     -0.493786    56A     -0.490525    57A     -0.472745
      58A     -0.467094    59A     -0.461557    60A     -0.453906

  @DF-RHF Final Energy: -1135.81939736053323

   => Energetics <=

    Nuclear Repulsion Energy =           1220.5446689077155042
    One-Electron Energy =               -3994.3684735440174336
    Two-Electron Energy =                1638.0044072757689264
    Total Energy =                      -1135.8193973605332303
  Basis Set: (AUG-CC-PVTZ AUX)
    Blend: AUG-CC-PVTZ-RI
    Molecular point group: c1

    Geometry (in Angstrom), charge = 0, multiplicity = 1:

       Center              X                  Y                   Z               Mass
    ------------   -----------------  -----------------  -----------------  -----------------
         P            2.554964941148     0.057810425879    -0.176657917826    30.973761998420
         O           -0.798059058852    -0.502197574121    -0.862791917826    15.994914619570
         O           -3.203606058852     1.766977425879     0.198880082174    15.994914619570
         O           -3.613915058852    -0.538009574121    -0.942899917826    15.994914619570
         O           -0.982712058852    -1.683091574121     1.163923082174    15.994914619570
         O            1.504048841148     1.136001325879    -0.213002917826    15.994914619570
         O            1.684993941148    -1.284987574121    -0.343577917826    15.994914619570
         O            2.902527941148    -0.050842574121     1.404137082174    15.994914619570
         O            3.718879941148     0.298839425879    -1.052285917826    15.994914619570
         C           -2.235154058852     0.783720425879     0.555486082174    12.000000000000
         C           -0.951409058852     0.827930425879    -0.303431917826    12.000000000000
         C           -2.839279058852    -0.591519574121     0.236269082174    12.000000000000
         C           -1.593418058852    -1.394508574121    -0.070457917826    12.000000000000
         C            0.266043941148     1.206865425879     0.521058082174    12.000000000000
         H           -1.994151058852     0.843071425879     1.624854082174     1.007825032230
         H           -1.073431058852     1.509961425879    -1.149854917826     1.007825032230
         H           -3.397815058852    -1.008290574121     1.083827082174     1.007825032230
         H           -1.764281058852    -2.280305574121    -0.689662917826     1.007825032230
         H            0.385148941148     0.511326425879     1.356219082174     1.007825032230
         H            0.141066941148     2.218922425879     0.922423082174     1.007825032230
         H           -2.947480058852     2.619339425879     0.588721082174     1.007825032230
         H           -4.098807058852     0.308524425879    -0.912951917826     1.007825032230
         H           -0.098407058852    -2.059535574121     0.986172082174     1.007825032230
         H            0.850808941148    -1.067310574121    -0.840028917826     1.007825032230
         H            3.790564941148     0.321442425879     1.558131082174     1.007825032230

  Basis Set: AUG-CC-PVTZ
    Blend: AUG-CC-PVTZ
  Basis Set: (AUG-CC-PVTZ AUX)
    Blend: AUG-CC-PVTZ-JKFIT
	 Reference Energy          =   -1135.8193973605332303 [Eh]
	 Singles Energy            =      -0.0000000000000000 [Eh]
	 Same-Spin Energy          =      -0.8147342719068081 [Eh]
	 Opposite-Spin Energy      =      -2.4173533195194663 [Eh]
	 Correlation Energy        =      -3.2320875914262746 [Eh]
	 Total Energy              =   -1139.0514849519595373 [Eh]

	 ================> DF-SCS-MP2 Energies <==================
	-----------------------------------------------------------
	 SCS Same-Spin Scale       =       0.3333333333333333 [-]
	 SCS Opposite-Spin Scale   =       1.2000000000000000 [-]
	 SCS Same-Spin Energy      =      -0.2715780906356027 [Eh]
	 SCS Opposite-Spin Energy  =      -2.9008239834233596 [Eh]
	 SCS Correlation Energy    =      -3.1724020740589625 [Eh]
	 SCS Total Energy          =   -1138.9917994345921670 [Eh]
	-----------------------------------------------------------

  Dipole Moment: [D]
     X:    -4.0996      Y:     2.7543      Z:     3.8750     Total:     6.2776

*** Psi4 exiting successfully. Buy a developer a beer!
