                               Psi4 1.3.2 release

  ==> Input File <==

--------------------------------------------------------------------------
#psi4
#
memory 32 gb

molecule  {
0 1
  P        2.6114510     0.0433530    -0.1897960
  O       -0.7415730    -0.5166550    -0.8759300
  O       -3.1471200     1.7525200     0.1857420
  O       -3.5764299    -0.5622103    -0.9437403
  O       -0.9262260    -1.6975490     1.1507850
  O        1.5012860     1.2233130    -0.3203930
  O        1.7414800    -1.2994450    -0.3567160
  O        2.9590140    -0.0653000     1.3909990
  O        3.7753660     0.2843820    -1.0654240
  C       -2.1786680     0.7692630     0.5423480
  C       -0.8949230     0.8134730    -0.3165700
  C       -2.7827930    -0.6059770     0.2231310
  C       -1.5369320    -1.4089660    -0.0835960
  C        0.3225300     1.1924080     0.5079200
  H       -1.9376650     0.8286140     1.6117160
  H       -1.0169450     1.4955040    -1.1629930
  H       -3.3413290    -1.0227480     1.0706890
  H       -1.7077950    -2.2947630    -0.7028010
  H        0.4416350     0.4968690     1.3430810
  H        0.1975530     2.2044650     0.9092850
  H       -2.8909940     2.6048820     0.5755830
  H       -4.0423210     0.2940670    -0.9260900
  H       -0.0419210    -2.0739930     0.9730340
  H        0.9072950    -1.0817680    -0.8531670
  H        3.8470510     0.3069850     1.5449930
units angstrom
no_reorient  #important for SAPT in psi4, default
symmetry c1  #important for SAPT in psi4, default
}

set PROPERTIES_ORIGIN ["COM"]
properties('MP2/aug-cc-pvtz', properties = ['dipole'])
--------------------------------------------------------------------------

    Molecular point group: c1
  Charge       = 0
  Multiplicity = 1
  Basis Set: AUG-CC-PVTZ
    Blend: AUG-CC-PVTZ
  Basis Set: (AUG-CC-PVTZ AUX)
    Blend: AUG-CC-PVTZ-JKFIT

    Orbital Energies [Eh]
    ---------------------

    Doubly Occupied:

       1A    -80.115109     2A    -20.611331     3A    -20.606553
       4A    -20.605295     5A    -20.603865     6A    -20.598639
       7A    -20.594994     8A    -20.574597     9A    -20.514747
      10A    -11.362377    11A    -11.323749    12A    -11.321509
      13A    -11.318535    14A    -11.307110    15A     -7.630060
      16A     -5.528480    17A     -5.528398    18A     -5.526897
      19A     -1.463340    20A     -1.448410    21A     -1.411598
      22A     -1.390844    23A     -1.378366    24A     -1.373680
      25A     -1.369008    26A     -1.296083    27A     -1.084533
      28A     -1.047163    29A     -0.946926    30A     -0.858022
      31A     -0.842184    32A     -0.829491    33A     -0.772119
      34A     -0.759684    35A     -0.747719    36A     -0.734449
      37A     -0.716977    38A     -0.692968    39A     -0.684014
      40A     -0.667540    41A     -0.653415    42A     -0.648067
      43A     -0.633181    44A     -0.613556    45A     -0.601189
      46A     -0.596085    47A     -0.582206    48A     -0.577913
      49A     -0.570048    50A     -0.560500    51A     -0.543513
      52A     -0.532486    53A     -0.527467    54A     -0.512085
      55A     -0.490872    56A     -0.487899    57A     -0.475209
      58A     -0.468994    59A     -0.465475    60A     -0.450931

  @DF-RHF Final Energy: -1135.82290792019990

   => Energetics <=

    Nuclear Repulsion Energy =           1215.5514942028464702
    One-Electron Energy =               -3984.3918962778002424
    Two-Electron Energy =                1633.0174941547541039
    Total Energy =                      -1135.8229079201998957
  Basis Set: (AUG-CC-PVTZ AUX)
    Blend: AUG-CC-PVTZ-RI
    Molecular point group: c1

    Geometry (in Angstrom), charge = 0, multiplicity = 1:

       Center              X                  Y                   Z               Mass
    ------------   -----------------  -----------------  -----------------  -----------------
         P            2.560406222218     0.051411198744    -0.170959035769    30.973761998420
         O           -0.792617777782    -0.508596801256    -0.857093035769    15.994914619570
         O           -3.198164777782     1.760578198744     0.204578964231    15.994914619570
         O           -3.627474677782    -0.554152101256    -0.924903335769    15.994914619570
         O           -0.977270777782    -1.689490801256     1.169621964231    15.994914619570
         O            1.450241222218     1.231371198744    -0.301556035769    15.994914619570
         O            1.690435222218    -1.291386801256    -0.337879035769    15.994914619570
         O            2.907969222218    -0.057241801256     1.409835964231    15.994914619570
         O            3.724321222218     0.292440198744    -1.046587035769    15.994914619570
         C           -2.229712777782     0.777321198744     0.561184964231    12.000000000000
         C           -0.945967777782     0.821531198744    -0.297733035769    12.000000000000
         C           -2.833837777782    -0.597918801256     0.241967964231    12.000000000000
         C           -1.587976777782    -1.400907801256    -0.064759035769    12.000000000000
         C            0.271485222218     1.200466198744     0.526756964231    12.000000000000
         H           -1.988709777782     0.836672198744     1.630552964231     1.007825032230
         H           -1.067989777782     1.503562198744    -1.144156035769     1.007825032230
         H           -3.392373777782    -1.014689801256     1.089525964231     1.007825032230
         H           -1.758839777782    -2.286704801256    -0.683964035769     1.007825032230
         H            0.390590222218     0.504927198744     1.361917964231     1.007825032230
         H            0.146508222218     2.212523198744     0.928121964231     1.007825032230
         H           -2.942038777782     2.612940198744     0.594419964231     1.007825032230
         H           -4.093365777782     0.302125198744    -0.907253035769     1.007825032230
         H           -0.092965777782    -2.065934801256     0.991870964231     1.007825032230
         H            0.856250222218    -1.073709801256    -0.834330035769     1.007825032230
         H            3.796006222218     0.315043198744     1.563829964231     1.007825032230

  Basis Set: AUG-CC-PVTZ
    Blend: AUG-CC-PVTZ
  Basis Set: (AUG-CC-PVTZ AUX)
    Blend: AUG-CC-PVTZ-JKFIT
	 Reference Energy          =   -1135.8229079201998957 [Eh]
	 Singles Energy            =      -0.0000000000000000 [Eh]
	 Same-Spin Energy          =      -0.8161936082715796 [Eh]
	 Opposite-Spin Energy      =      -2.4217258165248206 [Eh]
	 Correlation Energy        =      -3.2379194247964000 [Eh]
	 Total Energy              =   -1139.0608273449963690 [Eh]

	 ================> DF-SCS-MP2 Energies <==================
	-----------------------------------------------------------
	 SCS Same-Spin Scale       =       0.3333333333333333 [-]
	 SCS Opposite-Spin Scale   =       1.2000000000000000 [-]
	 SCS Same-Spin Energy      =      -0.2720645360905265 [Eh]
	 SCS Opposite-Spin Energy  =      -2.9060709798297846 [Eh]
	 SCS Correlation Energy    =      -3.1781355159203111 [Eh]
	 SCS Total Energy          =   -1139.0010434361201987 [Eh]
	-----------------------------------------------------------

  Dipole Moment: [D]
     X:    -3.4324      Y:     2.3237      Z:     4.0159     Total:     5.7713

*** Psi4 exiting successfully. Buy a developer a beer!
