                               Psi4 1.3.2 release

  ==> Input File <==

--------------------------------------------------------------------------
#psi4
#
memory 32 gb

molecule  {
0 1
  P        2.6114510     0.0433530    -0.1897960
  O       -0.7188801    -0.5184645    -0.8648325
  O       -3.1471200     1.7525200     0.1857420
  O       -3.5574290    -0.5524670    -0.9560380
  O       -0.9262260    -1.6975490     1.1507850
  O        1.5012860     1.2233130    -0.3203930
  O        1.7414800    -1.2994450    -0.3567160
  O        2.9590140    -0.0653000     1.3909990
  O        3.7753660     0.2843820    -1.0654240
  C       -2.1786680     0.7692630     0.5423480
  C       -0.8949230     0.8134730    -0.3165700
  C       -2.7827930    -0.6059770     0.2231310
  C       -1.5369320    -1.4089660    -0.0835960
  C        0.3225300     1.1924080     0.5079200
  H       -1.9376650     0.8286140     1.6117160
  H       -1.0169450     1.4955040    -1.1629930
  H       -3.3413290    -1.0227480     1.0706890
  H       -1.7077950    -2.2947630    -0.7028010
  H        0.4416350     0.4968690     1.3430810
  H        0.1975530     2.2044650     0.9092850
  H       -2.8909940     2.6048820     0.5755830
  H       -4.0423210     0.2940670    -0.9260900
  H       -0.0419210    -2.0739930     0.9730340
  H        0.9072950    -1.0817680    -0.8531670
  H        3.8470510     0.3069850     1.5449930
units angstrom
no_reorient  #important for SAPT in psi4, default
symmetry c1  #important for SAPT in psi4, default
}

set PROPERTIES_ORIGIN ["COM"]
properties('MP2/aug-cc-pvtz', properties = ['dipole'])
--------------------------------------------------------------------------

    Molecular point group: c1
  Charge       = 0
  Multiplicity = 1
  Basis Set: AUG-CC-PVTZ
    Blend: AUG-CC-PVTZ
  Basis Set: (AUG-CC-PVTZ AUX)
    Blend: AUG-CC-PVTZ-JKFIT

    Orbital Energies [Eh]
    ---------------------

    Doubly Occupied:

       1A    -80.114203     2A    -20.610618     3A    -20.606795
       4A    -20.604556     5A    -20.603639     6A    -20.596739
       7A    -20.594400     8A    -20.575692     9A    -20.513994
      10A    -11.363222    11A    -11.324007    12A    -11.320640
      13A    -11.318381    14A    -11.308335    15A     -7.629150
      16A     -5.527575    17A     -5.527483    18A     -5.525990
      19A     -1.462774    20A     -1.447425    21A     -1.412020
      22A     -1.390180    23A     -1.377155    24A     -1.373920
      25A     -1.368277    26A     -1.295325    27A     -1.084442
      28A     -1.047339    29A     -0.946133    30A     -0.858325
      31A     -0.841660    32A     -0.829639    33A     -0.772000
      34A     -0.759565    35A     -0.747694    36A     -0.734006
      37A     -0.716107    38A     -0.692071    39A     -0.684349
      40A     -0.667538    41A     -0.652859    42A     -0.647379
      43A     -0.633617    44A     -0.612862    45A     -0.601320
      46A     -0.595876    47A     -0.581339    48A     -0.577307
      49A     -0.570153    50A     -0.560478    51A     -0.542665
      52A     -0.531881    53A     -0.526642    54A     -0.512333
      55A     -0.490231    56A     -0.488494    57A     -0.474737
      58A     -0.469118    59A     -0.465478    60A     -0.450833

  @DF-RHF Final Energy: -1135.82242201281588

   => Energetics <=

    Nuclear Repulsion Energy =           1216.1559926493880539
    One-Electron Energy =               -3985.6388927619909737
    Two-Electron Energy =                1633.6604780997868147
    Total Energy =                      -1135.8224220128158777
  Basis Set: (AUG-CC-PVTZ AUX)
    Blend: AUG-CC-PVTZ-RI
    Molecular point group: c1

    Geometry (in Angstrom), charge = 0, multiplicity = 1:

       Center              X                  Y                   Z               Mass
    ------------   -----------------  -----------------  -----------------  -----------------
         P            2.557506947272     0.050859503587    -0.170875577083    30.973761998420
         O           -0.772824152728    -0.510957996413    -0.845912077083    15.994914619570
         O           -3.201064052728     1.760026503587     0.204662422917    15.994914619570
         O           -3.611373052728    -0.544960496413    -0.937117577083    15.994914619570
         O           -0.980170052728    -1.690042496413     1.169705422917    15.994914619570
         O            1.447341947272     1.230819503587    -0.301472577083    15.994914619570
         O            1.687535947272    -1.291938496413    -0.337795577083    15.994914619570
         O            2.905069947272    -0.057793496413     1.409919422917    15.994914619570
         O            3.721421947272     0.291888503587    -1.046503577083    15.994914619570
         C           -2.232612052728     0.776769503587     0.561268422917    12.000000000000
         C           -0.948867052728     0.820979503587    -0.297649577083    12.000000000000
         C           -2.836737052728    -0.598470496413     0.242051422917    12.000000000000
         C           -1.590876052728    -1.401459496413    -0.064675577083    12.000000000000
         C            0.268585947272     1.199914503587     0.526840422917    12.000000000000
         H           -1.991609052728     0.836120503587     1.630636422917     1.007825032230
         H           -1.070889052728     1.503010503587    -1.144072577083     1.007825032230
         H           -3.395273052728    -1.015241496413     1.089609422917     1.007825032230
         H           -1.761739052728    -2.287256496413    -0.683880577083     1.007825032230
         H            0.387690947272     0.504375503587     1.362001422917     1.007825032230
         H            0.143608947272     2.211971503587     0.928205422917     1.007825032230
         H           -2.944938052728     2.612388503587     0.594503422917     1.007825032230
         H           -4.096265052728     0.301573503587    -0.907169577083     1.007825032230
         H           -0.095865052728    -2.066486496413     0.991954422917     1.007825032230
         H            0.853350947272    -1.074261496413    -0.834246577083     1.007825032230
         H            3.793106947272     0.314491503587     1.563913422917     1.007825032230

  Basis Set: AUG-CC-PVTZ
    Blend: AUG-CC-PVTZ
  Basis Set: (AUG-CC-PVTZ AUX)
    Blend: AUG-CC-PVTZ-JKFIT
	 Reference Energy          =   -1135.8224220128158777 [Eh]
	 Singles Energy            =      -0.0000000000000000 [Eh]
	 Same-Spin Energy          =      -0.8163036780961476 [Eh]
	 Opposite-Spin Energy      =      -2.4219261948486865 [Eh]
	 Correlation Energy        =      -3.2382298729448342 [Eh]
	 Total Energy              =   -1139.0606518857607625 [Eh]

	 ================> DF-SCS-MP2 Energies <==================
	-----------------------------------------------------------
	 SCS Same-Spin Scale       =       0.3333333333333333 [-]
	 SCS Opposite-Spin Scale   =       1.2000000000000000 [-]
	 SCS Same-Spin Energy      =      -0.2721012260320492 [Eh]
	 SCS Opposite-Spin Energy  =      -2.9063114338184239 [Eh]
	 SCS Correlation Energy    =      -3.1784126598504732 [Eh]
	 SCS Total Energy          =   -1139.0008346726663149 [Eh]
	-----------------------------------------------------------

  Dipole Moment: [D]
     X:    -3.5796      Y:     2.2957      Z:     4.0225     Total:     5.8535

*** Psi4 exiting successfully. Buy a developer a beer!
