                               Psi4 1.3.2 release

  ==> Input File <==

--------------------------------------------------------------------------
#psi4
#
memory 32 gb

molecule  {
0 1
  P        2.6114510     0.0433530    -0.1897960
  O       -0.7415730    -0.5166550    -0.8759300
  O       -3.1471200     1.7525200     0.1857420
  O       -3.5574290    -0.5524670    -0.9560380
  O       -0.9262260    -1.6975490     1.1507850
  O        1.5012860     1.2233130    -0.3203930
  O        1.7414800    -1.2994450    -0.3567160
  O        2.9590140    -0.0653000     1.3909990
  O        3.7753660     0.2843820    -1.0654240
  C       -2.1786680     0.7692630     0.5423480
  C       -0.8949230     0.8134730    -0.3165700
  C       -2.7827930    -0.6059770     0.2231310
  C       -1.5369320    -1.4089660    -0.0835960
  C        0.2407296     1.1902633     0.5654012
  H       -1.9376650     0.8286140     1.6117160
  H       -1.0169450     1.4955040    -1.1629930
  H       -3.3413290    -1.0227480     1.0706890
  H       -1.7077950    -2.2947630    -0.7028010
  H        0.4416350     0.4968690     1.3430810
  H        0.1975530     2.2044650     0.9092850
  H       -2.8909940     2.6048820     0.5755830
  H       -4.0423210     0.2940670    -0.9260900
  H       -0.0419210    -2.0739930     0.9730340
  H        0.9072950    -1.0817680    -0.8531670
  H        3.8470510     0.3069850     1.5449930
units angstrom
no_reorient  #important for SAPT in psi4, default
symmetry c1  #important for SAPT in psi4, default
}

set PROPERTIES_ORIGIN ["COM"]
properties('MP2/aug-cc-pvtz', properties = ['dipole'])
--------------------------------------------------------------------------

    Molecular point group: c1
  Charge       = 0
  Multiplicity = 1
  Basis Set: AUG-CC-PVTZ
    Blend: AUG-CC-PVTZ
  Basis Set: (AUG-CC-PVTZ AUX)
    Blend: AUG-CC-PVTZ-JKFIT

    Orbital Energies [Eh]
    ---------------------

    Doubly Occupied:

       1A    -80.107808     2A    -20.608721     3A    -20.607065
       4A    -20.606862     5A    -20.596677     6A    -20.594411
       7A    -20.593271     8A    -20.576710     9A    -20.509210
      10A    -11.364213    11A    -11.325720    12A    -11.325047
      13A    -11.321928    14A    -11.309204    15A     -7.622775
      16A     -5.521213    17A     -5.521092    18A     -5.519638
      19A     -1.462027    20A     -1.440871    21A     -1.413818
      22A     -1.380454    23A     -1.375632    24A     -1.370924
      25A     -1.359584    26A     -1.289631    27A     -1.095340
      28A     -1.051177    29A     -0.949213    30A     -0.856395
      31A     -0.842773    32A     -0.830584    33A     -0.771599
      34A     -0.758815    35A     -0.746451    36A     -0.732499
      37A     -0.711028    38A     -0.692959    39A     -0.684339
      40A     -0.668501    41A     -0.650072    42A     -0.642898
      43A     -0.626305    44A     -0.616253    45A     -0.604219
      46A     -0.596078    47A     -0.581180    48A     -0.577712
      49A     -0.571513    50A     -0.561272    51A     -0.537905
      52A     -0.531633    53A     -0.521232    54A     -0.515133
      55A     -0.495965    56A     -0.491671    57A     -0.477141
      58A     -0.467643    59A     -0.461812    60A     -0.450130

  @DF-RHF Final Energy: -1135.81338156987067

   => Energetics <=

    Nuclear Repulsion Energy =           1215.0154013090023000
    One-Electron Energy =               -3983.4696776152195525
    Two-Electron Energy =                1632.6408947363465813
    Total Energy =                      -1135.8133815698706712
  Basis Set: (AUG-CC-PVTZ AUX)
    Blend: AUG-CC-PVTZ-RI
    Molecular point group: c1

    Geometry (in Angstrom), charge = 0, multiplicity = 1:

       Center              X                  Y                   Z               Mass
    ------------   -----------------  -----------------  -----------------  -----------------
         P            2.563352442192     0.050845563887    -0.173102656112    30.973761998420
         O           -0.789671557808    -0.509162436113    -0.859236656112    15.994914619570
         O           -3.195218557808     1.760012563887     0.202435343888    15.994914619570
         O           -3.605527557808    -0.544974436113    -0.939344656112    15.994914619570
         O           -0.974324557808    -1.690056436113     1.167478343888    15.994914619570
         O            1.453187442192     1.230805563887    -0.303699656112    15.994914619570
         O            1.693381442192    -1.291952436113    -0.340022656112    15.994914619570
         O            2.910915442192    -0.057807436113     1.407692343888    15.994914619570
         O            3.727267442192     0.291874563887    -1.048730656112    15.994914619570
         C           -2.226766557808     0.776755563887     0.559041343888    12.000000000000
         C           -0.943021557808     0.820965563887    -0.299876656112    12.000000000000
         C           -2.830891557808    -0.598484436113     0.239824343888    12.000000000000
         C           -1.585030557808    -1.401473436113    -0.066902656112    12.000000000000
         C            0.192631042192     1.197755863887     0.582094543888    12.000000000000
         H           -1.985763557808     0.836106563887     1.628409343888     1.007825032230
         H           -1.065043557808     1.502996563887    -1.146299656112     1.007825032230
         H           -3.389427557808    -1.015255436113     1.087382343888     1.007825032230
         H           -1.755893557808    -2.287270436113    -0.686107656112     1.007825032230
         H            0.393536442192     0.504361563887     1.359774343888     1.007825032230
         H            0.149454442192     2.211957563887     0.925978343888     1.007825032230
         H           -2.939092557808     2.612374563887     0.592276343888     1.007825032230
         H           -4.090419557808     0.301559563887    -0.909396656112     1.007825032230
         H           -0.090019557808    -2.066500436113     0.989727343888     1.007825032230
         H            0.859196442192    -1.074275436113    -0.836473656112     1.007825032230
         H            3.798952442192     0.314477563887     1.561686343888     1.007825032230

  Basis Set: AUG-CC-PVTZ
    Blend: AUG-CC-PVTZ
  Basis Set: (AUG-CC-PVTZ AUX)
    Blend: AUG-CC-PVTZ-JKFIT
	 Reference Energy          =   -1135.8133815698706712 [Eh]
	 Singles Energy            =      -0.0000000000000000 [Eh]
	 Same-Spin Energy          =      -0.8167254171261262 [Eh]
	 Opposite-Spin Energy      =      -2.4233498795836930 [Eh]
	 Correlation Energy        =      -3.2400752967098194 [Eh]
	 Total Energy              =   -1139.0534568665805182 [Eh]

	 ================> DF-SCS-MP2 Energies <==================
	-----------------------------------------------------------
	 SCS Same-Spin Scale       =       0.3333333333333333 [-]
	 SCS Opposite-Spin Scale   =       1.2000000000000000 [-]
	 SCS Same-Spin Energy      =      -0.2722418057087087 [Eh]
	 SCS Opposite-Spin Energy  =      -2.9080198555004313 [Eh]
	 SCS Correlation Energy    =      -3.1802616612091401 [Eh]
	 SCS Total Energy          =   -1138.9936432310798864 [Eh]
	-----------------------------------------------------------

  Dipole Moment: [D]
     X:    -3.9161      Y:     2.3511      Z:     4.1733     Total:     6.1870

*** Psi4 exiting successfully. Buy a developer a beer!
