                               Psi4 1.3.2 release

  ==> Input File <==

--------------------------------------------------------------------------
#psi4
#
memory 32 gb

molecule  {
0 1
  P        2.6114510     0.0433530    -0.1897960
  O       -0.7419447    -0.4840237    -0.8379732
  O       -3.1471200     1.7525200     0.1857420
  O       -3.5574290    -0.5524670    -0.9560380
  O       -0.9262260    -1.6975490     1.1507850
  O        1.5012860     1.2233130    -0.3203930
  O        1.7414800    -1.2994450    -0.3567160
  O        2.9590140    -0.0653000     1.3909990
  O        3.7753660     0.2843820    -1.0654240
  C       -2.1786680     0.7692630     0.5423480
  C       -0.8949230     0.8134730    -0.3165700
  C       -2.7827930    -0.6059770     0.2231310
  C       -1.5369320    -1.4089660    -0.0835960
  C        0.3225300     1.1924080     0.5079200
  H       -1.9376650     0.8286140     1.6117160
  H       -1.0169450     1.4955040    -1.1629930
  H       -3.3413290    -1.0227480     1.0706890
  H       -1.7077950    -2.2947630    -0.7028010
  H        0.4416350     0.4968690     1.3430810
  H        0.1975530     2.2044650     0.9092850
  H       -2.8909940     2.6048820     0.5755830
  H       -4.0423210     0.2940670    -0.9260900
  H       -0.0419210    -2.0739930     0.9730340
  H        0.9072950    -1.0817680    -0.8531670
  H        3.8470510     0.3069850     1.5449930
units angstrom
no_reorient  #important for SAPT in psi4, default
symmetry c1  #important for SAPT in psi4, default
}

set PROPERTIES_ORIGIN ["COM"]
properties('MP2/aug-cc-pvtz', properties = ['dipole'])
--------------------------------------------------------------------------

    Molecular point group: c1
  Charge       = 0
  Multiplicity = 1
  Basis Set: AUG-CC-PVTZ
    Blend: AUG-CC-PVTZ
  Basis Set: (AUG-CC-PVTZ AUX)
    Blend: AUG-CC-PVTZ-JKFIT

    Orbital Energies [Eh]
    ---------------------

    Doubly Occupied:

       1A    -80.114915     2A    -20.611072     3A    -20.604802
       4A    -20.604344     5A    -20.601396     6A    -20.599323
       7A    -20.594830     8A    -20.575017     9A    -20.514568
      10A    -11.364313    11A    -11.321228    12A    -11.318388
      13A    -11.313999    14A    -11.307017    15A     -7.629866
      16A     -5.528278    17A     -5.528212    18A     -5.526705
      19A     -1.468868    20A     -1.450204    21A     -1.410634
      22A     -1.390533    23A     -1.378540    24A     -1.375417
      25A     -1.371654    26A     -1.295905    27A     -1.080636
      28A     -1.049624    29A     -0.947995    30A     -0.857436
      31A     -0.843952    32A     -0.829387    33A     -0.772698
      34A     -0.759962    35A     -0.750193    36A     -0.733666
      37A     -0.716663    38A     -0.692504    39A     -0.684785
      40A     -0.669258    41A     -0.654470    42A     -0.650655
      43A     -0.633160    44A     -0.614523    45A     -0.599592
      46A     -0.598027    47A     -0.581921    48A     -0.577178
      49A     -0.569858    50A     -0.561015    51A     -0.543548
      52A     -0.532722    53A     -0.527659    54A     -0.511360
      55A     -0.491951    56A     -0.484297    57A     -0.473773
      58A     -0.469056    59A     -0.465183    60A     -0.448227

  @DF-RHF Final Energy: -1135.82348003333050

   => Energetics <=

    Nuclear Repulsion Energy =           1217.3877421569336548
    One-Electron Energy =               -3988.0685250701594668
    Two-Electron Energy =                1634.8573028798953146
    Total Energy =                      -1135.8234800333304975
  Basis Set: (AUG-CC-PVTZ AUX)
    Blend: AUG-CC-PVTZ-RI
    Molecular point group: c1

    Geometry (in Angstrom), charge = 0, multiplicity = 1:

       Center              X                  Y                   Z               Mass
    ------------   -----------------  -----------------  -----------------  -----------------
         P            2.559110797651     0.048464582794    -0.172743300714    30.973761998420
         O           -0.794284902349    -0.478912117206    -0.820920500714    15.994914619570
         O           -3.199460202349     1.757631582794     0.202794699286    15.994914619570
         O           -3.609769202349    -0.547355417206    -0.938985300714    15.994914619570
         O           -0.978566202349    -1.692437417206     1.167837699286    15.994914619570
         O            1.448945797651     1.228424582794    -0.303340300714    15.994914619570
         O            1.689139797651    -1.294333417206    -0.339663300714    15.994914619570
         O            2.906673797651    -0.060188417206     1.408051699286    15.994914619570
         O            3.723025797651     0.289493582794    -1.048371300714    15.994914619570
         C           -2.231008202349     0.774374582794     0.559400699286    12.000000000000
         C           -0.947263202349     0.818584582794    -0.299517300714    12.000000000000
         C           -2.835133202349    -0.600865417206     0.240183699286    12.000000000000
         C           -1.589272202349    -1.403854417206    -0.066543300714    12.000000000000
         C            0.270189797651     1.197519582794     0.524972699286    12.000000000000
         H           -1.990005202349     0.833725582794     1.628768699286     1.007825032230
         H           -1.069285202349     1.500615582794    -1.145940300714     1.007825032230
         H           -3.393669202349    -1.017636417206     1.087741699286     1.007825032230
         H           -1.760135202349    -2.289651417206    -0.685748300714     1.007825032230
         H            0.389294797651     0.501980582794     1.360133699286     1.007825032230
         H            0.145212797651     2.209576582794     0.926337699286     1.007825032230
         H           -2.943334202349     2.609993582794     0.592635699286     1.007825032230
         H           -4.094661202349     0.299178582794    -0.909037300714     1.007825032230
         H           -0.094261202349    -2.068881417206     0.990086699286     1.007825032230
         H            0.854954797651    -1.076656417206    -0.836114300714     1.007825032230
         H            3.794710797651     0.312096582794     1.562045699286     1.007825032230

  Basis Set: AUG-CC-PVTZ
    Blend: AUG-CC-PVTZ
  Basis Set: (AUG-CC-PVTZ AUX)
    Blend: AUG-CC-PVTZ-JKFIT
	 Reference Energy          =   -1135.8234800333304975 [Eh]
	 Singles Energy            =      -0.0000000000000000 [Eh]
	 Same-Spin Energy          =      -0.8159397750736019 [Eh]
	 Opposite-Spin Energy      =      -2.4204655016508947 [Eh]
	 Correlation Energy        =      -3.2364052767244966 [Eh]
	 Total Energy              =   -1139.0598853100550514 [Eh]

	 ================> DF-SCS-MP2 Energies <==================
	-----------------------------------------------------------
	 SCS Same-Spin Scale       =       0.3333333333333333 [-]
	 SCS Opposite-Spin Scale   =       1.2000000000000000 [-]
	 SCS Same-Spin Energy      =      -0.2719799250245339 [Eh]
	 SCS Opposite-Spin Energy  =      -2.9045586019810736 [Eh]
	 SCS Correlation Energy    =      -3.1765385270056075 [Eh]
	 SCS Total Energy          =   -1139.0000185603360023 [Eh]
	-----------------------------------------------------------

  Dipole Moment: [D]
     X:    -3.4824      Y:     2.1573      Z:     3.9514     Total:     5.6916

*** Psi4 exiting successfully. Buy a developer a beer!
