                               Psi4 1.3.2 release

  ==> Input File <==

--------------------------------------------------------------------------
#psi4
#
memory 32 gb

molecule  {
0 1
  P        2.6114510     0.0433530    -0.1897960
  O       -0.7415730    -0.5166550    -0.8759300
  O       -3.1471200     1.7525200     0.1857420
  O       -3.5574290    -0.5524670    -0.9560380
  O       -0.9262260    -1.6975490     1.1507850
  O        1.5012860     1.2233130    -0.3203930
  O        1.7414800    -1.2994450    -0.3567160
  O        2.9590140    -0.0653000     1.3909990
  O        3.7753660     0.2843820    -1.0654240
  C       -2.1683421     0.7702025     0.5176335
  C       -0.8949230     0.8134730    -0.3165700
  C       -2.7827930    -0.6059770     0.2231310
  C       -1.5369320    -1.4089660    -0.0835960
  C        0.3225300     1.1924080     0.5079200
  H       -1.9376650     0.8286140     1.6117160
  H       -1.0169450     1.4955040    -1.1629930
  H       -3.3413290    -1.0227480     1.0706890
  H       -1.7077950    -2.2947630    -0.7028010
  H        0.4416350     0.4968690     1.3430810
  H        0.1975530     2.2044650     0.9092850
  H       -2.8909940     2.6048820     0.5755830
  H       -4.0423210     0.2940670    -0.9260900
  H       -0.0419210    -2.0739930     0.9730340
  H        0.9072950    -1.0817680    -0.8531670
  H        3.8470510     0.3069850     1.5449930
units angstrom
no_reorient  #important for SAPT in psi4, default
symmetry c1  #important for SAPT in psi4, default
}

set PROPERTIES_ORIGIN ["COM"]
properties('MP2/aug-cc-pvtz', properties = ['dipole'])
--------------------------------------------------------------------------

    Molecular point group: c1
  Charge       = 0
  Multiplicity = 1
  Basis Set: AUG-CC-PVTZ
    Blend: AUG-CC-PVTZ
  Basis Set: (AUG-CC-PVTZ AUX)
    Blend: AUG-CC-PVTZ-JKFIT

    Orbital Energies [Eh]
    ---------------------

    Doubly Occupied:

       1A    -80.115191     2A    -20.611368     3A    -20.605959
       4A    -20.605517     5A    -20.603817     6A    -20.598662
       7A    -20.594797     8A    -20.574520     9A    -20.514812
      10A    -11.362227    11A    -11.323753    12A    -11.321866
      13A    -11.318067    14A    -11.307419    15A     -7.630141
      16A     -5.528562    17A     -5.528478    18A     -5.526977
      19A     -1.463693    20A     -1.448667    21A     -1.411204
      22A     -1.390958    23A     -1.378414    24A     -1.373594
      25A     -1.368952    26A     -1.296146    27A     -1.086851
      28A     -1.047109    29A     -0.947794    30A     -0.857786
      31A     -0.841054    32A     -0.830712    33A     -0.771981
      34A     -0.759637    35A     -0.748555    36A     -0.731631
      37A     -0.717103    38A     -0.693187    39A     -0.684063
      40A     -0.667087    41A     -0.653368    42A     -0.647895
      43A     -0.633972    44A     -0.614438    45A     -0.601619
      46A     -0.596550    47A     -0.582210    48A     -0.577960
      49A     -0.568809    50A     -0.560230    51A     -0.543604
      52A     -0.532320    53A     -0.527261    54A     -0.509649
      55A     -0.490154    56A     -0.487492    57A     -0.475122
      58A     -0.469420    59A     -0.466404    60A     -0.452711

  @DF-RHF Final Energy: -1135.82178097847031

   => Energetics <=

    Nuclear Repulsion Energy =           1216.3309424598653550
    One-Electron Energy =               -3985.9464456967798469
    Two-Electron Energy =                1633.7937222584439496
    Total Energy =                      -1135.8217809784703149
  Basis Set: (AUG-CC-PVTZ AUX)
    Blend: AUG-CC-PVTZ-RI
    Molecular point group: c1

    Geometry (in Angstrom), charge = 0, multiplicity = 1:

       Center              X                  Y                   Z               Mass
    ------------   -----------------  -----------------  -----------------  -----------------
         P            2.558546252884     0.050684662504    -0.168814541920    30.973761998420
         O           -0.794477747116    -0.509323337496    -0.854948541920    15.994914619570
         O           -3.200024747116     1.759851662504     0.206723458080    15.994914619570
         O           -3.610333747116    -0.545135337496    -0.935056541920    15.994914619570
         O           -0.979130747116    -1.690217337496     1.171766458080    15.994914619570
         O            1.448381252884     1.230644662504    -0.299411541920    15.994914619570
         O            1.688575252884    -1.292113337496    -0.335734541920    15.994914619570
         O            2.906109252884    -0.057968337496     1.411980458080    15.994914619570
         O            3.722461252884     0.291713662504    -1.044442541920    15.994914619570
         C           -2.221246847116     0.777534162504     0.538614958080    12.000000000000
         C           -0.947827747116     0.820804662504    -0.295588541920    12.000000000000
         C           -2.835697747116    -0.598645337496     0.244112458080    12.000000000000
         C           -1.589836747116    -1.401634337496    -0.062614541920    12.000000000000
         C            0.269625252884     1.199739662504     0.528901458080    12.000000000000
         H           -1.990569747116     0.835945662504     1.632697458080     1.007825032230
         H           -1.069849747116     1.502835662504    -1.142011541920     1.007825032230
         H           -3.394233747116    -1.015416337496     1.091670458080     1.007825032230
         H           -1.760699747116    -2.287431337496    -0.681819541920     1.007825032230
         H            0.388730252884     0.504200662504     1.364062458080     1.007825032230
         H            0.144648252884     2.211796662504     0.930266458080     1.007825032230
         H           -2.943898747116     2.612213662504     0.596564458080     1.007825032230
         H           -4.095225747116     0.301398662504    -0.905108541920     1.007825032230
         H           -0.094825747116    -2.066661337496     0.994015458080     1.007825032230
         H            0.854390252884    -1.074436337496    -0.832185541920     1.007825032230
         H            3.794146252884     0.314316662504     1.565974458080     1.007825032230

  Basis Set: AUG-CC-PVTZ
    Blend: AUG-CC-PVTZ
  Basis Set: (AUG-CC-PVTZ AUX)
    Blend: AUG-CC-PVTZ-JKFIT
	 Reference Energy          =   -1135.8217809784703149 [Eh]
	 Singles Energy            =      -0.0000000000000000 [Eh]
	 Same-Spin Energy          =      -0.8164165115975693 [Eh]
	 Opposite-Spin Energy      =      -2.4219826412948926 [Eh]
	 Correlation Energy        =      -3.2383991528924621 [Eh]
	 Total Energy              =   -1139.0601801313628130 [Eh]

	 ================> DF-SCS-MP2 Energies <==================
	-----------------------------------------------------------
	 SCS Same-Spin Scale       =       0.3333333333333333 [-]
	 SCS Opposite-Spin Scale   =       1.2000000000000000 [-]
	 SCS Same-Spin Energy      =      -0.2721388371991897 [Eh]
	 SCS Opposite-Spin Energy  =      -2.9063791695538712 [Eh]
	 SCS Correlation Energy    =      -3.1785180067530607 [Eh]
	 SCS Total Energy          =   -1139.0002989852234805 [Eh]
	-----------------------------------------------------------

  Dipole Moment: [D]
     X:    -3.4564      Y:     2.2879      Z:     4.0045     Total:     5.7635

*** Psi4 exiting successfully. Buy a developer a beer!
