                               Psi4 1.3.2 release

  ==> Input File <==

--------------------------------------------------------------------------
#psi4
#
memory 32 gb

molecule  {
0 1
  P        2.6114510     0.0433530    -0.1897960
  O       -0.7415730    -0.5166550    -0.8759300
  O       -3.1471200     1.7525200     0.1857420
  O       -3.5574290    -0.5524670    -0.9560380
  O       -0.9262260    -1.6975490     1.1507850
  O        1.5012860     1.2233130    -0.3203930
  O        1.7414800    -1.2994450    -0.3567160
  O        2.9590140    -0.0653000     1.3909990
  O        3.7753660     0.2843820    -1.0654240
  C       -2.1786680     0.7692630     0.5423480
  C       -0.9163672     0.6935666    -0.2144775
  C       -2.7827930    -0.6059770     0.2231310
  C       -1.5369320    -1.4089660    -0.0835960
  C        0.3225300     1.1924080     0.5079200
  H       -1.9376650     0.8286140     1.6117160
  H       -1.0169450     1.4955040    -1.1629930
  H       -3.3413290    -1.0227480     1.0706890
  H       -1.7077950    -2.2947630    -0.7028010
  H        0.4416350     0.4968690     1.3430810
  H        0.1975530     2.2044650     0.9092850
  H       -2.8909940     2.6048820     0.5755830
  H       -4.0423210     0.2940670    -0.9260900
  H       -0.0419210    -2.0739930     0.9730340
  H        0.9072950    -1.0817680    -0.8531670
  H        3.8470510     0.3069850     1.5449930
units angstrom
no_reorient  #important for SAPT in psi4, default
symmetry c1  #important for SAPT in psi4, default
}

set PROPERTIES_ORIGIN ["COM"]
properties('MP2/aug-cc-pvtz', properties = ['dipole'])
--------------------------------------------------------------------------

    Molecular point group: c1
  Charge       = 0
  Multiplicity = 1
  Basis Set: AUG-CC-PVTZ
    Blend: AUG-CC-PVTZ
  Basis Set: (AUG-CC-PVTZ AUX)
    Blend: AUG-CC-PVTZ-JKFIT

    Orbital Energies [Eh]
    ---------------------

    Doubly Occupied:

       1A    -80.116171     2A    -20.614357     3A    -20.611486
       4A    -20.608696     5A    -20.606946     6A    -20.601266
       7A    -20.599938     8A    -20.576273     9A    -20.515566
      10A    -11.366187    11A    -11.323177    12A    -11.321141
      13A    -11.320648    14A    -11.308993    15A     -7.631119
      16A     -5.529532    17A     -5.529466    18A     -5.527946
      19A     -1.480390    20A     -1.453069    21A     -1.413457
      22A     -1.391764    23A     -1.382538    24A     -1.380174
      25A     -1.373687    26A     -1.296843    27A     -1.097065
      28A     -1.048773    29A     -0.951622    30A     -0.857719
      31A     -0.845435    32A     -0.828151    33A     -0.775537
      34A     -0.765424    35A     -0.753209    36A     -0.737566
      37A     -0.718620    38A     -0.696115    39A     -0.684072
      40A     -0.669602    41A     -0.655462    42A     -0.653067
      43A     -0.632768    44A     -0.619140    45A     -0.606708
      46A     -0.589046    47A     -0.583398    48A     -0.581870
      49A     -0.569615    50A     -0.559282    51A     -0.545357
      52A     -0.531831    53A     -0.528782    54A     -0.514509
      55A     -0.496952    56A     -0.491861    57A     -0.473250
      58A     -0.468298    59A     -0.455618    60A     -0.442633

  @DF-RHF Final Energy: -1135.79379911039791

   => Energetics <=

    Nuclear Repulsion Energy =           1218.5543966921904939
    One-Electron Energy =               -3990.0780186732558832
    Two-Electron Energy =                1635.7298228706674763
    Total Energy =                      -1135.7937991103979130
  Basis Set: (AUG-CC-PVTZ AUX)
    Blend: AUG-CC-PVTZ-RI
    Molecular point group: c1

    Geometry (in Angstrom), charge = 0, multiplicity = 1:

       Center              X                  Y                   Z               Mass
    ------------   -----------------  -----------------  -----------------  -----------------
         P            2.560203685289     0.056989140948    -0.175430008378    30.973761998420
         O           -0.792820314711    -0.503018859052    -0.861564008378    15.994914619570
         O           -3.198367314711     1.766156140948     0.200107991622    15.994914619570
         O           -3.608676314711    -0.538830859052    -0.941672008378    15.994914619570
         O           -0.977473314711    -1.683912859052     1.165150991622    15.994914619570
         O            1.450038685289     1.236949140948    -0.306027008378    15.994914619570
         O            1.690232685289    -1.285808859052    -0.342350008378    15.994914619570
         O            2.907766685289    -0.051663859052     1.405364991622    15.994914619570
         O            3.724118685289     0.298018140948    -1.051058008378    15.994914619570
         C           -2.229915314711     0.782899140948     0.556713991622    12.000000000000
         C           -0.967614514711     0.707202740948    -0.200111508378    12.000000000000
         C           -2.834040314711    -0.592340859052     0.237496991622    12.000000000000
         C           -1.588179314711    -1.395329859052    -0.069230008378    12.000000000000
         C            0.271282685289     1.206044140948     0.522285991622    12.000000000000
         H           -1.988912314711     0.842250140948     1.626081991622     1.007825032230
         H           -1.068192314711     1.509140140948    -1.148627008378     1.007825032230
         H           -3.392576314711    -1.009111859052     1.085054991622     1.007825032230
         H           -1.759042314711    -2.281126859052    -0.688435008378     1.007825032230
         H            0.390387685289     0.510505140948     1.357446991622     1.007825032230
         H            0.146305685289     2.218101140948     0.923650991622     1.007825032230
         H           -2.942241314711     2.618518140948     0.589948991622     1.007825032230
         H           -4.093568314711     0.307703140948    -0.911724008378     1.007825032230
         H           -0.093168314711    -2.060356859052     0.987399991622     1.007825032230
         H            0.856047685289    -1.068131859052    -0.838801008378     1.007825032230
         H            3.795803685289     0.320621140948     1.559358991622     1.007825032230

  Basis Set: AUG-CC-PVTZ
    Blend: AUG-CC-PVTZ
  Basis Set: (AUG-CC-PVTZ AUX)
    Blend: AUG-CC-PVTZ-JKFIT
	 Reference Energy          =   -1135.7937991103979130 [Eh]
	 Singles Energy            =      -0.0000000000000000 [Eh]
	 Same-Spin Energy          =      -0.8182151584172964 [Eh]
	 Opposite-Spin Energy      =      -2.4245246928201594 [Eh]
	 Correlation Energy        =      -3.2427398512374559 [Eh]
	 Total Energy              =   -1139.0365389616354150 [Eh]

	 ================> DF-SCS-MP2 Energies <==================
	-----------------------------------------------------------
	 SCS Same-Spin Scale       =       0.3333333333333333 [-]
	 SCS Opposite-Spin Scale   =       1.2000000000000000 [-]
	 SCS Same-Spin Energy      =      -0.2727383861390988 [Eh]
	 SCS Opposite-Spin Energy  =      -2.9094296313841910 [Eh]
	 SCS Correlation Energy    =      -3.1821680175232898 [Eh]
	 SCS Total Energy          =   -1138.9759671279211943 [Eh]
	-----------------------------------------------------------

  Dipole Moment: [D]
     X:    -3.4462      Y:     1.9715      Z:     4.0887     Total:     5.6991

*** Psi4 exiting successfully. Buy a developer a beer!
