                               Psi4 1.3.2 release

  ==> Input File <==

--------------------------------------------------------------------------
#psi4
#
memory 32 gb

molecule  {
0 1
  P        2.6114510     0.0433530    -0.1897960
  O       -0.7415730    -0.5166550    -0.8759300
  O       -3.1471200     1.7525200     0.1857420
  O       -3.5574290    -0.5524670    -0.9560380
  O       -0.9267651    -1.6736463     1.1563956
  O        1.5012860     1.2233130    -0.3203930
  O        1.7414800    -1.2994450    -0.3567160
  O        2.9590140    -0.0653000     1.3909990
  O        3.7753660     0.2843820    -1.0654240
  C       -2.1786680     0.7692630     0.5423480
  C       -0.8949230     0.8134730    -0.3165700
  C       -2.7827930    -0.6059770     0.2231310
  C       -1.5369320    -1.4089660    -0.0835960
  C        0.3225300     1.1924080     0.5079200
  H       -1.9376650     0.8286140     1.6117160
  H       -1.0169450     1.4955040    -1.1629930
  H       -3.3413290    -1.0227480     1.0706890
  H       -1.7077950    -2.2947630    -0.7028010
  H        0.4416350     0.4968690     1.3430810
  H        0.1975530     2.2044650     0.9092850
  H       -2.8909940     2.6048820     0.5755830
  H       -4.0423210     0.2940670    -0.9260900
  H       -0.0419210    -2.0739930     0.9730340
  H        0.9072950    -1.0817680    -0.8531670
  H        3.8470510     0.3069850     1.5449930
units angstrom
no_reorient  #important for SAPT in psi4, default
symmetry c1  #important for SAPT in psi4, default
}

set PROPERTIES_ORIGIN ["COM"]
properties('MP2/aug-cc-pvtz', properties = ['dipole'])
--------------------------------------------------------------------------

    Molecular point group: c1
  Charge       = 0
  Multiplicity = 1
  Basis Set: AUG-CC-PVTZ
    Blend: AUG-CC-PVTZ
  Basis Set: (AUG-CC-PVTZ AUX)
    Blend: AUG-CC-PVTZ-JKFIT

    Orbital Energies [Eh]
    ---------------------

    Doubly Occupied:

       1A    -80.114787     2A    -20.611041     3A    -20.605904
       4A    -20.604787     5A    -20.602870     6A    -20.598325
       7A    -20.596266     8A    -20.574514     9A    -20.514467
      10A    -11.362179    11A    -11.322917    12A    -11.320753
      13A    -11.317828    14A    -11.306802    15A     -7.629736
      16A     -5.528156    17A     -5.528075    18A     -5.526574
      19A     -1.462986    20A     -1.448083    21A     -1.411029
      22A     -1.390363    23A     -1.378033    24A     -1.372903
      25A     -1.367599    26A     -1.295801    27A     -1.083826
      28A     -1.046351    29A     -0.946134    30A     -0.857415
      31A     -0.841614    32A     -0.828769    33A     -0.771531
      34A     -0.758701    35A     -0.746994    36A     -0.733767
      37A     -0.716622    38A     -0.692368    39A     -0.683598
      40A     -0.667226    41A     -0.652940    42A     -0.647548
      43A     -0.632704    44A     -0.613584    45A     -0.600409
      46A     -0.595622    47A     -0.581894    48A     -0.577151
      49A     -0.569411    50A     -0.559707    51A     -0.543191
      52A     -0.532535    53A     -0.526712    54A     -0.511237
      55A     -0.491384    56A     -0.487440    57A     -0.474825
      58A     -0.468996    59A     -0.465456    60A     -0.450186

  @DF-RHF Final Energy: -1135.82159456466820

   => Energetics <=

    Nuclear Repulsion Energy =           1216.2919398602880392
    One-Electron Energy =               -3985.9258137391025230
    Two-Electron Energy =                1633.8122793141462807
    Total Energy =                      -1135.8215945646682030
  Basis Set: (AUG-CC-PVTZ AUX)
    Blend: AUG-CC-PVTZ-RI
    Molecular point group: c1

    Geometry (in Angstrom), charge = 0, multiplicity = 1:

       Center              X                  Y                   Z               Mass
    ------------   -----------------  -----------------  -----------------  -----------------
         P            2.559122438197     0.049071546210    -0.170494032783    30.973761998420
         O           -0.793901561803    -0.510936453790    -0.856628032783    15.994914619570
         O           -3.199448561803     1.758238546210     0.205043967217    15.994914619570
         O           -3.609757561803    -0.546748453790    -0.936736032783    15.994914619570
         O           -0.979093661803    -1.667927753790     1.175697567217    15.994914619570
         O            1.448957438197     1.229031546210    -0.301091032783    15.994914619570
         O            1.689151438197    -1.293726453790    -0.337414032783    15.994914619570
         O            2.906685438197    -0.059581453790     1.410300967217    15.994914619570
         O            3.723037438197     0.290100546210    -1.046122032783    15.994914619570
         C           -2.230996561803     0.774981546210     0.561649967217    12.000000000000
         C           -0.947251561803     0.819191546210    -0.297268032783    12.000000000000
         C           -2.835121561803    -0.600258453790     0.242432967217    12.000000000000
         C           -1.589260561803    -1.403247453790    -0.064294032783    12.000000000000
         C            0.270201438197     1.198126546210     0.527221967217    12.000000000000
         H           -1.989993561803     0.834332546210     1.631017967217     1.007825032230
         H           -1.069273561803     1.501222546210    -1.143691032783     1.007825032230
         H           -3.393657561803    -1.017029453790     1.089990967217     1.007825032230
         H           -1.760123561803    -2.289044453790    -0.683499032783     1.007825032230
         H            0.389306438197     0.502587546210     1.362382967217     1.007825032230
         H            0.145224438197     2.210183546210     0.928586967217     1.007825032230
         H           -2.943322561803     2.610600546210     0.594884967217     1.007825032230
         H           -4.094649561803     0.299785546210    -0.906788032783     1.007825032230
         H           -0.094249561803    -2.068274453790     0.992335967217     1.007825032230
         H            0.854966438197    -1.076049453790    -0.833865032783     1.007825032230
         H            3.794722438197     0.312703546210     1.564294967217     1.007825032230

  Basis Set: AUG-CC-PVTZ
    Blend: AUG-CC-PVTZ
  Basis Set: (AUG-CC-PVTZ AUX)
    Blend: AUG-CC-PVTZ-JKFIT
	 Reference Energy          =   -1135.8215945646682030 [Eh]
	 Singles Energy            =      -0.0000000000000000 [Eh]
	 Same-Spin Energy          =      -0.8164994545654963 [Eh]
	 Opposite-Spin Energy      =      -2.4223027323738284 [Eh]
	 Correlation Energy        =      -3.2388021869393246 [Eh]
	 Total Energy              =   -1139.0603967516076409 [Eh]

	 ================> DF-SCS-MP2 Energies <==================
	-----------------------------------------------------------
	 SCS Same-Spin Scale       =       0.3333333333333333 [-]
	 SCS Opposite-Spin Scale   =       1.2000000000000000 [-]
	 SCS Same-Spin Energy      =      -0.2721664848551654 [Eh]
	 SCS Opposite-Spin Energy  =      -2.9067632788485942 [Eh]
	 SCS Correlation Energy    =      -3.1789297637037595 [Eh]
	 SCS Total Energy          =   -1139.0005243283719665 [Eh]
	-----------------------------------------------------------

  Dipole Moment: [D]
     X:    -3.4877      Y:     2.2342      Z:     4.0357     Total:     5.7830

*** Psi4 exiting successfully. Buy a developer a beer!
