                               Psi4 1.3.2 release

  ==> Input File <==

--------------------------------------------------------------------------
#psi4
#
memory 32 gb

molecule  {
0 1
  P        2.6114510     0.0433530    -0.1897960
  O       -0.7075505    -0.5157908    -0.8392233
  O       -3.1471200     1.7525200     0.1857420
  O       -3.5574290    -0.5524670    -0.9560380
  O       -0.9262260    -1.6975490     1.1507850
  O        1.5012860     1.2233130    -0.3203930
  O        1.7414800    -1.2994450    -0.3567160
  O        2.9590140    -0.0653000     1.3909990
  O        3.7753660     0.2843820    -1.0654240
  C       -2.1786680     0.7692630     0.5423480
  C       -0.8949230     0.8134730    -0.3165700
  C       -2.7827930    -0.6059770     0.2231310
  C       -1.5369320    -1.4089660    -0.0835960
  C        0.3225300     1.1924080     0.5079200
  H       -1.9376650     0.8286140     1.6117160
  H       -1.0169450     1.4955040    -1.1629930
  H       -3.3413290    -1.0227480     1.0706890
  H       -1.7077950    -2.2947630    -0.7028010
  H        0.4416350     0.4968690     1.3430810
  H        0.1975530     2.2044650     0.9092850
  H       -2.8909940     2.6048820     0.5755830
  H       -4.0423210     0.2940670    -0.9260900
  H       -0.0419210    -2.0739930     0.9730340
  H        0.9072950    -1.0817680    -0.8531670
  H        3.8470510     0.3069850     1.5449930
units angstrom
no_reorient  #important for SAPT in psi4, default
symmetry c1  #important for SAPT in psi4, default
}

set PROPERTIES_ORIGIN ["COM"]
properties('MP2/aug-cc-pvtz', properties = ['dipole'])
--------------------------------------------------------------------------

    Molecular point group: c1
  Charge       = 0
  Multiplicity = 1
  Basis Set: AUG-CC-PVTZ
    Blend: AUG-CC-PVTZ
  Basis Set: (AUG-CC-PVTZ AUX)
    Blend: AUG-CC-PVTZ-JKFIT

    Orbital Energies [Eh]
    ---------------------

    Doubly Occupied:

       1A    -80.113848     2A    -20.610307     3A    -20.606770
       4A    -20.604215     5A    -20.603109     6A    -20.596035
       7A    -20.593055     8A    -20.576136     9A    -20.513712
      10A    -11.363350    11A    -11.323839    12A    -11.319738
      13A    -11.317905    14A    -11.308536    15A     -7.628793
      16A     -5.527220    17A     -5.527126    18A     -5.525635
      19A     -1.464978    20A     -1.448099    21A     -1.412237
      22A     -1.389894    23A     -1.376718    24A     -1.374024
      25A     -1.369106    26A     -1.295047    27A     -1.084070
      28A     -1.048248    29A     -0.946173    30A     -0.858533
      31A     -0.842622    32A     -0.829856    33A     -0.772398
      34A     -0.759622    35A     -0.748807    36A     -0.733755
      37A     -0.715747    38A     -0.691504    39A     -0.684631
      40A     -0.668677    41A     -0.653071    42A     -0.648184
      43A     -0.634336    44A     -0.612681    45A     -0.601311
      46A     -0.596301    47A     -0.581085    48A     -0.577028
      49A     -0.570427    50A     -0.560904    51A     -0.542278
      52A     -0.531755    53A     -0.526481    54A     -0.512402
      55A     -0.490314    56A     -0.487742    57A     -0.474133
      58A     -0.468932    59A     -0.465128    60A     -0.450670

  @DF-RHF Final Energy: -1135.82293793586541

   => Energetics <=

    Nuclear Repulsion Energy =           1216.9009903774531267
    One-Electron Energy =               -3987.1293836704426212
    Two-Electron Energy =                1634.4054553571240831
    Total Energy =                      -1135.8229379358654114
  Basis Set: (AUG-CC-PVTZ AUX)
    Blend: AUG-CC-PVTZ-RI
    Molecular point group: c1

    Geometry (in Angstrom), charge = 0, multiplicity = 1:

       Center              X                  Y                   Z               Mass
    ------------   -----------------  -----------------  -----------------  -----------------
         P            2.556719117297     0.050673581665    -0.172656372116    30.973761998420
         O           -0.762282382703    -0.508470218335    -0.822083672116    15.994914619570
         O           -3.201851882703     1.759840581665     0.202881627884    15.994914619570
         O           -3.612160882703    -0.545146418335    -0.938898372116    15.994914619570
         O           -0.980957882703    -1.690228418335     1.167924627884    15.994914619570
         O            1.446554117297     1.230633581665    -0.303253372116    15.994914619570
         O            1.686748117297    -1.292124418335    -0.339576372116    15.994914619570
         O            2.904282117297    -0.057979418335     1.408138627884    15.994914619570
         O            3.720634117297     0.291702581665    -1.048284372116    15.994914619570
         C           -2.233399882703     0.776583581665     0.559487627884    12.000000000000
         C           -0.949654882703     0.820793581665    -0.299430372116    12.000000000000
         C           -2.837524882703    -0.598656418335     0.240270627884    12.000000000000
         C           -1.591663882703    -1.401645418335    -0.066456372116    12.000000000000
         C            0.267798117297     1.199728581665     0.525059627884    12.000000000000
         H           -1.992396882703     0.835934581665     1.628855627884     1.007825032230
         H           -1.071676882703     1.502824581665    -1.145853372116     1.007825032230
         H           -3.396060882703    -1.015427418335     1.087828627884     1.007825032230
         H           -1.762526882703    -2.287442418335    -0.685661372116     1.007825032230
         H            0.386903117297     0.504189581665     1.360220627884     1.007825032230
         H            0.142821117297     2.211785581665     0.926424627884     1.007825032230
         H           -2.945725882703     2.612202581665     0.592722627884     1.007825032230
         H           -4.097052882703     0.301387581665    -0.908950372116     1.007825032230
         H           -0.096652882703    -2.066672418335     0.990173627884     1.007825032230
         H            0.852563117297    -1.074447418335    -0.836027372116     1.007825032230
         H            3.792319117297     0.314305581665     1.562132627884     1.007825032230

  Basis Set: AUG-CC-PVTZ
    Blend: AUG-CC-PVTZ
  Basis Set: (AUG-CC-PVTZ AUX)
    Blend: AUG-CC-PVTZ-JKFIT
	 Reference Energy          =   -1135.8229379358654114 [Eh]
	 Singles Energy            =      -0.0000000000000000 [Eh]
	 Same-Spin Energy          =      -0.8161668498860597 [Eh]
	 Opposite-Spin Energy      =      -2.4213560518520283 [Eh]
	 Correlation Energy        =      -3.2375229017380880 [Eh]
	 Total Energy              =   -1139.0604608376033866 [Eh]

	 ================> DF-SCS-MP2 Energies <==================
	-----------------------------------------------------------
	 SCS Same-Spin Scale       =       0.3333333333333333 [-]
	 SCS Opposite-Spin Scale   =       1.2000000000000000 [-]
	 SCS Same-Spin Energy      =      -0.2720556166286865 [Eh]
	 SCS Opposite-Spin Energy  =      -2.9056272622224339 [Eh]
	 SCS Correlation Energy    =      -3.1776828788511207 [Eh]
	 SCS Total Energy          =   -1139.0006208147165125 [Eh]
	-----------------------------------------------------------

  Dipole Moment: [D]
     X:    -3.6222      Y:     2.2835      Z:     3.9698     Total:     5.8391

*** Psi4 exiting successfully. Buy a developer a beer!
