                               Psi4 1.3.2 release

  ==> Input File <==

--------------------------------------------------------------------------
#psi4
#
memory 32 gb

molecule  {
0 1
  P        2.6114510     0.0433530    -0.1897960
  O       -0.7415730    -0.5166550    -0.8759300
  O       -3.1471200     1.7525200     0.1857420
  O       -3.5574290    -0.5524670    -0.9560380
  O       -0.9262260    -1.6975490     1.1507850
  O        1.5012860     1.2233130    -0.3203930
  O        1.7414800    -1.2994450    -0.3567160
  O        2.9590140    -0.0653000     1.3909990
  O        3.7753660     0.2843820    -1.0654240
  C       -2.1107271     0.7002835     0.5673654
  C       -0.8949230     0.8134730    -0.3165700
  C       -2.7827930    -0.6059770     0.2231310
  C       -1.5369320    -1.4089660    -0.0835960
  C        0.3225300     1.1924080     0.5079200
  H       -1.9376650     0.8286140     1.6117160
  H       -1.0169450     1.4955040    -1.1629930
  H       -3.3413290    -1.0227480     1.0706890
  H       -1.7077950    -2.2947630    -0.7028010
  H        0.4416350     0.4968690     1.3430810
  H        0.1975530     2.2044650     0.9092850
  H       -2.8909940     2.6048820     0.5755830
  H       -4.0423210     0.2940670    -0.9260900
  H       -0.0419210    -2.0739930     0.9730340
  H        0.9072950    -1.0817680    -0.8531670
  H        3.8470510     0.3069850     1.5449930
units angstrom
no_reorient  #important for SAPT in psi4, default
symmetry c1  #important for SAPT in psi4, default
}

set PROPERTIES_ORIGIN ["COM"]
properties('MP2/aug-cc-pvtz', properties = ['dipole'])
--------------------------------------------------------------------------

    Molecular point group: c1
  Charge       = 0
  Multiplicity = 1
  Basis Set: AUG-CC-PVTZ
    Blend: AUG-CC-PVTZ
  Basis Set: (AUG-CC-PVTZ AUX)
    Blend: AUG-CC-PVTZ-JKFIT

    Orbital Energies [Eh]
    ---------------------

    Doubly Occupied:

       1A    -80.116241     2A    -20.612384     3A    -20.606756
       4A    -20.605112     5A    -20.599823     6A    -20.597226
       7A    -20.594619     8A    -20.576798     9A    -20.515706
      10A    -11.363642    11A    -11.324414    12A    -11.323381
      13A    -11.321042    14A    -11.309210    15A     -7.631193
      16A     -5.529615    17A     -5.529530    18A     -5.528027
      19A     -1.465845    20A     -1.450228    21A     -1.392772
      22A     -1.391884    23A     -1.379508    24A     -1.371852
      25A     -1.358012    26A     -1.297049    27A     -1.096503
      28A     -1.053719    29A     -0.948802    30A     -0.858657
      31A     -0.844294    32A     -0.832208    33A     -0.771359
      34A     -0.760663    35A     -0.745801    36A     -0.733447
      37A     -0.716347    38A     -0.694875    39A     -0.681218
      40A     -0.664425    41A     -0.654317    42A     -0.648981
      43A     -0.629949    44A     -0.613495    45A     -0.600661
      46A     -0.594616    47A     -0.583147    48A     -0.577894
      49A     -0.561445    50A     -0.552389    51A     -0.544580
      52A     -0.534488    53A     -0.528134    54A     -0.516830
      55A     -0.496422    56A     -0.492431    57A     -0.476351
      58A     -0.471993    59A     -0.468664    60A     -0.454896

  @DF-RHF Final Energy: -1135.81148301557027

   => Energetics <=

    Nuclear Repulsion Energy =           1216.7925314540507316
    One-Electron Energy =               -3986.8162901171749581
    Two-Electron Energy =                1634.2122756475539518
    Total Energy =                      -1135.8114830155702748
  Basis Set: (AUG-CC-PVTZ AUX)
    Blend: AUG-CC-PVTZ-RI
    Molecular point group: c1

    Geometry (in Angstrom), charge = 0, multiplicity = 1:

       Center              X                  Y                   Z               Mass
    ------------   -----------------  -----------------  -----------------  -----------------
         P            2.555540503202     0.054332306556    -0.171409033678    30.973761998420
         O           -0.797483496798    -0.505675693444    -0.857543033678    15.994914619570
         O           -3.203030496798     1.763499306556     0.204128966322    15.994914619570
         O           -3.613339496798    -0.541487693444    -0.937651033678    15.994914619570
         O           -0.982136496798    -1.686569693444     1.169171966322    15.994914619570
         O            1.445375503202     1.234292306556    -0.302006033678    15.994914619570
         O            1.685569503202    -1.288465693444    -0.338329033678    15.994914619570
         O            2.903103503202    -0.054320693444     1.409385966322    15.994914619570
         O            3.719455503202     0.295361306556    -1.047037033678    15.994914619570
         C           -2.166637596798     0.711262806556     0.585752366322    12.000000000000
         C           -0.950833496798     0.824452306556    -0.298183033678    12.000000000000
         C           -2.838703496798    -0.594997693444     0.241517966322    12.000000000000
         C           -1.592842496798    -1.397986693444    -0.065209033678    12.000000000000
         C            0.266619503202     1.203387306556     0.526306966322    12.000000000000
         H           -1.993575496798     0.839593306556     1.630102966322     1.007825032230
         H           -1.072855496798     1.506483306556    -1.144606033678     1.007825032230
         H           -3.397239496798    -1.011768693444     1.089075966322     1.007825032230
         H           -1.763705496798    -2.283783693444    -0.684414033678     1.007825032230
         H            0.385724503202     0.507848306556     1.361467966322     1.007825032230
         H            0.141642503202     2.215444306556     0.927671966322     1.007825032230
         H           -2.946904496798     2.615861306556     0.593969966322     1.007825032230
         H           -4.098231496798     0.305046306556    -0.907703033678     1.007825032230
         H           -0.097831496798    -2.063013693444     0.991420966322     1.007825032230
         H            0.851384503202    -1.070788693444    -0.834780033678     1.007825032230
         H            3.791140503202     0.317964306556     1.563379966322     1.007825032230

  Basis Set: AUG-CC-PVTZ
    Blend: AUG-CC-PVTZ
  Basis Set: (AUG-CC-PVTZ AUX)
    Blend: AUG-CC-PVTZ-JKFIT
	 Reference Energy          =   -1135.8114830155702748 [Eh]
	 Singles Energy            =      -0.0000000000000000 [Eh]
	 Same-Spin Energy          =      -0.8171044756885359 [Eh]
	 Opposite-Spin Energy      =      -2.4240797764405739 [Eh]
	 Correlation Energy        =      -3.2411842521291101 [Eh]
	 Total Energy              =   -1139.0526672676994622 [Eh]

	 ================> DF-SCS-MP2 Energies <==================
	-----------------------------------------------------------
	 SCS Same-Spin Scale       =       0.3333333333333333 [-]
	 SCS Opposite-Spin Scale   =       1.2000000000000000 [-]
	 SCS Same-Spin Energy      =      -0.2723681585628453 [Eh]
	 SCS Opposite-Spin Energy  =      -2.9088957317286885 [Eh]
	 SCS Correlation Energy    =      -3.1812638902915338 [Eh]
	 SCS Total Energy          =   -1138.9927469058618499 [Eh]
	-----------------------------------------------------------

  Dipole Moment: [D]
     X:    -3.2229      Y:     2.0537      Z:     4.0542     Total:     5.5715

*** Psi4 exiting successfully. Buy a developer a beer!
