                               Psi4 1.3.2 release

  ==> Input File <==

--------------------------------------------------------------------------
#psi4
#
memory 32 gb

molecule  {
0 1
  P        2.6114510     0.0433530    -0.1897960
  O       -0.7415730    -0.5166550    -0.8759300
  O       -3.1471200     1.7525200     0.1857420
  O       -3.5574290    -0.5524670    -0.9560380
  O       -0.9262260    -1.6975490     1.1507850
  O        1.5149608     1.2298050    -0.3003086
  O        1.7414800    -1.2994450    -0.3567160
  O        2.9590140    -0.0653000     1.3909990
  O        3.7753660     0.2843820    -1.0654240
  C       -2.1786680     0.7692630     0.5423480
  C       -0.8949230     0.8134730    -0.3165700
  C       -2.7827930    -0.6059770     0.2231310
  C       -1.5369320    -1.4089660    -0.0835960
  C        0.3225300     1.1924080     0.5079200
  H       -1.9376650     0.8286140     1.6117160
  H       -1.0169450     1.4955040    -1.1629930
  H       -3.3413290    -1.0227480     1.0706890
  H       -1.7077950    -2.2947630    -0.7028010
  H        0.4416350     0.4968690     1.3430810
  H        0.1975530     2.2044650     0.9092850
  H       -2.8909940     2.6048820     0.5755830
  H       -4.0423210     0.2940670    -0.9260900
  H       -0.0419210    -2.0739930     0.9730340
  H        0.9072950    -1.0817680    -0.8531670
  H        3.8470510     0.3069850     1.5449930
units angstrom
no_reorient  #important for SAPT in psi4, default
symmetry c1  #important for SAPT in psi4, default
}

set PROPERTIES_ORIGIN ["COM"]
properties('MP2/aug-cc-pvtz', properties = ['dipole'])
--------------------------------------------------------------------------

    Molecular point group: c1
  Charge       = 0
  Multiplicity = 1
  Basis Set: AUG-CC-PVTZ
    Blend: AUG-CC-PVTZ
  Basis Set: (AUG-CC-PVTZ AUX)
    Blend: AUG-CC-PVTZ-JKFIT

    Orbital Energies [Eh]
    ---------------------

    Doubly Occupied:

       1A    -80.114104     2A    -20.609484     3A    -20.606607
       4A    -20.605032     5A    -20.603930     6A    -20.598968
       7A    -20.595033     8A    -20.575145     9A    -20.514156
      10A    -11.362540    11A    -11.323887    12A    -11.321652
      13A    -11.318964    14A    -11.307623    15A     -7.629167
      16A     -5.527616    17A     -5.527494    18A     -5.525999
      19A     -1.463540    20A     -1.448706    21A     -1.411789
      22A     -1.390157    23A     -1.378671    24A     -1.373952
      25A     -1.368998    26A     -1.295536    27A     -1.084789
      28A     -1.047464    29A     -0.947495    30A     -0.858434
      31A     -0.841694    32A     -0.829266    33A     -0.772472
      34A     -0.759960    35A     -0.748263    36A     -0.734374
      37A     -0.716486    38A     -0.692428    39A     -0.684829
      40A     -0.667359    41A     -0.652201    42A     -0.648426
      43A     -0.633527    44A     -0.614042    45A     -0.601198
      46A     -0.596728    47A     -0.581938    48A     -0.577491
      49A     -0.570129    50A     -0.559995    51A     -0.542927
      52A     -0.532904    53A     -0.527122    54A     -0.512230
      55A     -0.490862    56A     -0.488281    57A     -0.474558
      58A     -0.469155    59A     -0.465620    60A     -0.451239

  @DF-RHF Final Energy: -1135.82317819583204

   => Energetics <=

    Nuclear Repulsion Energy =           1215.9016358333149128
    One-Electron Energy =               -3985.1003537409023920
    Two-Electron Energy =                1633.3755397117556640
    Total Energy =                      -1135.8231781958320425
  Basis Set: (AUG-CC-PVTZ AUX)
    Blend: AUG-CC-PVTZ-RI
    Molecular point group: c1

    Geometry (in Angstrom), charge = 0, multiplicity = 1:

       Center              X                  Y                   Z               Mass
    ------------   -----------------  -----------------  -----------------  -----------------
         P            2.558134041741     0.050282239558    -0.171500501988    30.973761998420
         O           -0.794889958259    -0.509725760442    -0.857634501988    15.994914619570
         O           -3.200436958259     1.759449239558     0.204037498012    15.994914619570
         O           -3.610745958259    -0.545537760442    -0.937742501988    15.994914619570
         O           -0.979542958259    -1.690619760442     1.169080498012    15.994914619570
         O            1.461643841741     1.236734239558    -0.282013101988    15.994914619570
         O            1.688163041741    -1.292515760442    -0.338420501988    15.994914619570
         O            2.905697041741    -0.058370760442     1.409294498012    15.994914619570
         O            3.722049041741     0.291311239558    -1.047128501988    15.994914619570
         C           -2.231984958259     0.776192239558     0.560643498012    12.000000000000
         C           -0.948239958259     0.820402239558    -0.298274501988    12.000000000000
         C           -2.836109958259    -0.599047760442     0.241426498012    12.000000000000
         C           -1.590248958259    -1.402036760442    -0.065300501988    12.000000000000
         C            0.269213041741     1.199337239558     0.526215498012    12.000000000000
         H           -1.990981958259     0.835543239558     1.630011498012     1.007825032230
         H           -1.070261958259     1.502433239558    -1.144697501988     1.007825032230
         H           -3.394645958259    -1.015818760442     1.088984498012     1.007825032230
         H           -1.761111958259    -2.287833760442    -0.684505501988     1.007825032230
         H            0.388318041741     0.503798239558     1.361376498012     1.007825032230
         H            0.144236041741     2.211394239558     0.927580498012     1.007825032230
         H           -2.944310958259     2.611811239558     0.593878498012     1.007825032230
         H           -4.095637958259     0.300996239558    -0.907794501988     1.007825032230
         H           -0.095237958259    -2.067063760442     0.991329498012     1.007825032230
         H            0.853978041741    -1.074838760442    -0.834871501988     1.007825032230
         H            3.793734041741     0.313914239558     1.563288498012     1.007825032230

  Basis Set: AUG-CC-PVTZ
    Blend: AUG-CC-PVTZ
  Basis Set: (AUG-CC-PVTZ AUX)
    Blend: AUG-CC-PVTZ-JKFIT
	 Reference Energy          =   -1135.8231781958320425 [Eh]
	 Singles Energy            =      -0.0000000000000000 [Eh]
	 Same-Spin Energy          =      -0.8161633861861025 [Eh]
	 Opposite-Spin Energy      =      -2.4215525960272668 [Eh]
	 Correlation Energy        =      -3.2377159822133694 [Eh]
	 Total Energy              =   -1139.0608941780453733 [Eh]

	 ================> DF-SCS-MP2 Energies <==================
	-----------------------------------------------------------
	 SCS Same-Spin Scale       =       0.3333333333333333 [-]
	 SCS Opposite-Spin Scale   =       1.2000000000000000 [-]
	 SCS Same-Spin Energy      =      -0.2720544620620342 [Eh]
	 SCS Opposite-Spin Energy  =      -2.9058631152327199 [Eh]
	 SCS Correlation Energy    =      -3.1779175772947541 [Eh]
	 SCS Total Energy          =   -1139.0010957731267354 [Eh]
	-----------------------------------------------------------

  Dipole Moment: [D]
     X:    -3.5497      Y:     2.2923      Z:     3.9932     Total:     5.8138

*** Psi4 exiting successfully. Buy a developer a beer!
