                               Psi4 1.3.2 release

  ==> Input File <==

--------------------------------------------------------------------------
#psi4
#
memory 32 gb

molecule  {
0 1
  P        2.6114510     0.0433530    -0.1897960
  O       -0.7415730    -0.5166550    -0.8759300
  O       -3.1471200     1.7525200     0.1857420
  O       -3.5574290    -0.5524670    -0.9560380
  O       -0.9262260    -1.6975490     1.1507850
  O        1.5012860     1.2233130    -0.3203930
  O        1.7414800    -1.2994450    -0.3567160
  O        2.9590140    -0.0653000     1.3909990
  O        3.7753660     0.2843820    -1.0654240
  C       -2.0858338     0.8110712     0.6680221
  C       -0.8949230     0.8134730    -0.3165700
  C       -2.7827930    -0.6059770     0.2231310
  C       -1.5369320    -1.4089660    -0.0835960
  C        0.3225300     1.1924080     0.5079200
  H       -1.9376650     0.8286140     1.6117160
  H       -1.0169450     1.4955040    -1.1629930
  H       -3.3413290    -1.0227480     1.0706890
  H       -1.7077950    -2.2947630    -0.7028010
  H        0.4416350     0.4968690     1.3430810
  H        0.1975530     2.2044650     0.9092850
  H       -2.8909940     2.6048820     0.5755830
  H       -4.0423210     0.2940670    -0.9260900
  H       -0.0419210    -2.0739930     0.9730340
  H        0.9072950    -1.0817680    -0.8531670
  H        3.8470510     0.3069850     1.5449930
units angstrom
no_reorient  #important for SAPT in psi4, default
symmetry c1  #important for SAPT in psi4, default
}

set PROPERTIES_ORIGIN ["COM"]
properties('MP2/aug-cc-pvtz', properties = ['dipole'])
--------------------------------------------------------------------------

    Molecular point group: c1
  Charge       = 0
  Multiplicity = 1
  Basis Set: AUG-CC-PVTZ
    Blend: AUG-CC-PVTZ
  Basis Set: (AUG-CC-PVTZ AUX)
    Blend: AUG-CC-PVTZ-JKFIT

    Orbital Energies [Eh]
    ---------------------

    Doubly Occupied:

       1A    -80.114666     2A    -20.611237     3A    -20.605264
       4A    -20.603722     5A    -20.603482     6A    -20.598674
       7A    -20.595546     8A    -20.577593     9A    -20.514348
      10A    -11.361269    11A    -11.322503    12A    -11.320956
      13A    -11.320361    14A    -11.313139    15A     -7.629625
      16A     -5.528041    17A     -5.527963    18A     -5.526467
      19A     -1.462608    20A     -1.447469    21A     -1.394792
      22A     -1.390322    23A     -1.378133    24A     -1.370133
      25A     -1.366406    26A     -1.295730    27A     -1.088284
      28A     -1.039822    29A     -0.945740    30A     -0.865051
      31A     -0.848815    32A     -0.825486    33A     -0.769127
      34A     -0.759823    35A     -0.747359    36A     -0.738073
      37A     -0.714809    38A     -0.693086    39A     -0.680824
      40A     -0.663379    41A     -0.653408    42A     -0.644805
      43A     -0.631904    44A     -0.609114    45A     -0.603385
      46A     -0.590069    47A     -0.582091    48A     -0.578224
      49A     -0.569219    50A     -0.558813    51A     -0.543542
      52A     -0.532608    53A     -0.527668    54A     -0.519187
      55A     -0.497174    56A     -0.485473    57A     -0.474930
      58A     -0.468944    59A     -0.464439    60A     -0.439735

  @DF-RHF Final Energy: -1135.78739436423393

   => Energetics <=

    Nuclear Repulsion Energy =           1214.4349748018978516
    One-Electron Energy =               -3982.1750254690364272
    Two-Electron Energy =                1631.9526563029044155
    Total Energy =                      -1135.7873943642339327
  Basis Set: (AUG-CC-PVTZ AUX)
    Blend: AUG-CC-PVTZ-RI
    Molecular point group: c1

    Geometry (in Angstrom), charge = 0, multiplicity = 1:

       Center              X                  Y                   Z               Mass
    ------------   -----------------  -----------------  -----------------  -----------------
         P            2.554241830485     0.048552560065    -0.176660250272    30.973761998420
         O           -0.798782169515    -0.511455439935    -0.862794250272    15.994914619570
         O           -3.204329169515     1.757719560065     0.198877749728    15.994914619570
         O           -3.614638169515    -0.547267439935    -0.942902250272    15.994914619570
         O           -0.983435169515    -1.692349439935     1.163920749728    15.994914619570
         O            1.444076830485     1.228512560065    -0.307257250272    15.994914619570
         O            1.684270830485    -1.294245439935    -0.343580250272    15.994914619570
         O            2.901804830485    -0.060100439935     1.404134749728    15.994914619570
         O            3.718156830485     0.289581560065    -1.052288250272    15.994914619570
         C           -2.143042969515     0.816270760065     0.681157849728    12.000000000000
         C           -0.952132169515     0.818672560065    -0.303434250272    12.000000000000
         C           -2.840002169515    -0.600777439935     0.236266749728    12.000000000000
         C           -1.594141169515    -1.403766439935    -0.070460250272    12.000000000000
         C            0.265320830485     1.197607560065     0.521055749728    12.000000000000
         H           -1.994874169515     0.833813560065     1.624851749728     1.007825032230
         H           -1.074154169515     1.500703560065    -1.149857250272     1.007825032230
         H           -3.398538169515    -1.017548439935     1.083824749728     1.007825032230
         H           -1.765004169515    -2.289563439935    -0.689665250272     1.007825032230
         H            0.384425830485     0.502068560065     1.356216749728     1.007825032230
         H            0.140343830485     2.209664560065     0.922420749728     1.007825032230
         H           -2.948203169515     2.610081560065     0.588718749728     1.007825032230
         H           -4.099530169515     0.299266560065    -0.912954250272     1.007825032230
         H           -0.099130169515    -2.068793439935     0.986169749728     1.007825032230
         H            0.850085830485    -1.076568439935    -0.840031250272     1.007825032230
         H            3.789841830485     0.312184560065     1.558128749728     1.007825032230

  Basis Set: AUG-CC-PVTZ
    Blend: AUG-CC-PVTZ
  Basis Set: (AUG-CC-PVTZ AUX)
    Blend: AUG-CC-PVTZ-JKFIT
	 Reference Energy          =   -1135.7873943642339327 [Eh]
	 Singles Energy            =      -0.0000000000000000 [Eh]
	 Same-Spin Energy          =      -0.8173918321914352 [Eh]
	 Opposite-Spin Energy      =      -2.4256678263503861 [Eh]
	 Correlation Energy        =      -3.2430596585418212 [Eh]
	 Total Energy              =   -1139.0304540227757570 [Eh]

	 ================> DF-SCS-MP2 Energies <==================
	-----------------------------------------------------------
	 SCS Same-Spin Scale       =       0.3333333333333333 [-]
	 SCS Opposite-Spin Scale   =       1.2000000000000000 [-]
	 SCS Same-Spin Energy      =      -0.2724639440638117 [Eh]
	 SCS Opposite-Spin Energy  =      -2.9108013916204634 [Eh]
	 SCS Correlation Energy    =      -3.1832653356842751 [Eh]
	 SCS Total Energy          =   -1138.9706596999183148 [Eh]
	-----------------------------------------------------------

  Dipole Moment: [D]
     X:    -3.4487      Y:     2.2134      Z:     4.0880     Total:     5.7883

*** Psi4 exiting successfully. Buy a developer a beer!
