                               Psi4 1.4a3.dev225

  ==> Input File <==

--------------------------------------------------------------------------
#psi4
#
memory 32 gb

molecule  {
0 1
  P        2.6113660     0.0433910    -0.1897900
  O       -0.7416560    -0.5164190    -0.8762010
  O       -3.1473860     1.7523070     0.1855430
  O       -3.5574330    -0.5529450    -0.9556820
  O       -0.9255690    -1.6972900     1.1506350
  O        1.5012550     1.2233910    -0.3202530
  O        1.7411940    -1.2993510    -0.3564950
  O        2.9591660    -0.0655390     1.3909200
  O        3.7751240     0.2843830    -1.0656400
  C       -2.1787050     0.7693270     0.5422590
  C       -0.8949630     0.8136090    -0.3166340
  C       -2.7825860    -0.6061320     0.2233240
  C       -1.5477274    -1.4213622    -0.0725083
  C        0.3224410     1.1924200     0.5080110
  H       -1.9377070     0.8289040     1.6116220
  H       -1.0168440     1.4957790    -1.1629650
  H       -3.3408870    -1.0228010     1.0710960
  H       -1.7074320    -2.2947510    -0.7027390
  H        0.4414920     0.4968360     1.3431340
  H        0.1974400     2.2044510     0.9094280
  H       -2.8916000     2.6047160     0.5754970
  H       -4.0429610     0.2932130    -0.9254450
  H       -0.0410590    -2.0731950     0.9726900
  H        0.9073710    -1.0816890    -0.8535130
  H        3.8468470     0.3075270     1.5450430
units angstrom
no_reorient  #important for SAPT in psi4, default
symmetry c1  #important for SAPT in psi4, default
}

set PROPERTIES_ORIGIN ["COM"]
properties('MP2/aug-cc-pvtz', properties = ['dipole'])
--------------------------------------------------------------------------

    Molecular point group: c1
  Charge       = 0
  Multiplicity = 1
  Basis Set: AUG-CC-PVTZ
    Blend: AUG-CC-PVTZ
  Basis Set: (AUG-CC-PVTZ AUX)
    Blend: AUG-CC-PVTZ-JKFIT

    Orbital Energies [Eh]
    ---------------------

    Doubly Occupied:

       1A    -80.114521     2A    -20.610913     3A    -20.606116
       4A    -20.604491     5A    -20.600417     6A    -20.597861
       7A    -20.596874     8A    -20.575172     9A    -20.514232
      10A    -11.363131    11A    -11.323250    12A    -11.320507
      13A    -11.316852    14A    -11.307816    15A     -7.629469
      16A     -5.527889    17A     -5.527807    18A     -5.526308
      19A     -1.461084    20A     -1.446939    21A     -1.411567
      22A     -1.390409    23A     -1.377694    24A     -1.374205
      25A     -1.367349    26A     -1.295552    27A     -1.082728
      28A     -1.047505    29A     -0.946957    30A     -0.857607
      31A     -0.840437    32A     -0.829623    33A     -0.771863
      34A     -0.761029    35A     -0.746690    36A     -0.733539
      37A     -0.716392    38A     -0.692240    39A     -0.683905
      40A     -0.667031    41A     -0.652709    42A     -0.647180
      43A     -0.632608    44A     -0.614063    45A     -0.600665
      46A     -0.595889    47A     -0.581329    48A     -0.577353
      49A     -0.569406    50A     -0.559414    51A     -0.543145
      52A     -0.532452    53A     -0.526546    54A     -0.511698
      55A     -0.492103    56A     -0.486365    57A     -0.474581
      58A     -0.469179    59A     -0.465538    60A     -0.449891

  @DF-RHF Final Energy: -1135.82210214449765

   => Energetics <=

    Nuclear Repulsion Energy =           1215.6091048373907597
    One-Electron Energy =               -3984.5662357908518061
    Two-Electron Energy =                1633.1350288089636251
    Total Energy =                      -1135.8221021444976486
  Basis Set: (AUG-CC-PVTZ AUX)
    Blend: AUG-CC-PVTZ-RI
    Molecular point group: c1

    Geometry (in Angstrom), charge = 0, multiplicity = 1:

       Center              X                  Y                   Z               Mass
    ------------   -----------------  -----------------  -----------------  -----------------
         P            2.559579190630     0.051424670171    -0.170672470619    30.973761998420
         O           -0.793442809370    -0.508385329829    -0.857083470619    15.994914619570
         O           -3.199172809370     1.760340670171     0.204660529381    15.994914619570
         O           -3.609219809370    -0.544911329829    -0.936564470619    15.994914619570
         O           -0.977355809370    -1.689256329829     1.169752529381    15.994914619570
         O            1.449468190630     1.231424670171    -0.301135470619    15.994914619570
         O            1.689407190630    -1.291317329829    -0.337377470619    15.994914619570
         O            2.907379190630    -0.057505329829     1.410037529381    15.994914619570
         O            3.723337190630     0.292416670171    -1.046522470619    15.994914619570
         C           -2.230491809370     0.777360670171     0.561376529381    12.000000000000
         C           -0.946749809370     0.821642670171    -0.297516470619    12.000000000000
         C           -2.834372809370    -0.598098329829     0.242441529381    12.000000000000
         C           -1.599514209370    -1.413328529829    -0.053390770619    12.000000000000
         C            0.270654190630     1.200453670171     0.527128529381    12.000000000000
         H           -1.989493809370     0.836937670171     1.630739529381     1.007825032230
         H           -1.068630809370     1.503812670171    -1.143847470619     1.007825032230
         H           -3.392673809370    -1.014767329829     1.090213529381     1.007825032230
         H           -1.759218809370    -2.286717329829    -0.683621470619     1.007825032230
         H            0.389705190630     0.504869670171     1.362251529381     1.007825032230
         H            0.145653190630     2.212484670171     0.928545529381     1.007825032230
         H           -2.943386809370     2.612749670171     0.594614529381     1.007825032230
         H           -4.094747809370     0.301246670171    -0.906327470619     1.007825032230
         H           -0.092845809370    -2.065161329829     0.991807529381     1.007825032230
         H            0.855584190630    -1.073655329829    -0.834395470619     1.007825032230
         H            3.795060190630     0.315560670171     1.564160529381     1.007825032230

  Basis Set: AUG-CC-PVTZ
    Blend: AUG-CC-PVTZ
  Basis Set: (AUG-CC-PVTZ AUX)
    Blend: AUG-CC-PVTZ-JKFIT
	 Reference Energy          =   -1135.8221021444976486 [Eh]
	 Singles Energy            =      -0.0000000000000000 [Eh]
	 Same-Spin Energy          =      -0.8163091979304736 [Eh]
	 Opposite-Spin Energy      =      -2.4219807458980722 [Eh]
	 Correlation Energy        =      -3.2382899438285460 [Eh]
	 Total Energy              =   -1139.0603920883261253 [Eh]

	 ================> DF-SCS-MP2 Energies <==================
	-----------------------------------------------------------
	 SCS Same-Spin Scale       =       0.3333333333333333 [-]
	 SCS Opposite-Spin Scale   =       1.2000000000000000 [-]
	 SCS Same-Spin Energy      =      -0.2721030659768245 [Eh]
	 SCS Opposite-Spin Energy  =      -2.9063768950776865 [Eh]
	 SCS Correlation Energy    =      -3.1784799610545109 [Eh]
	 SCS Total Energy          =   -1139.0005821055522119 [Eh]
	-----------------------------------------------------------

  Dipole Moment: [D]
     X:    -3.5291      Y:     2.2262      Z:     4.0835     Total:     5.8383

*** Psi4 exiting successfully. Buy a developer a beer!
