                               Psi4 1.3.2 release

  ==> Input File <==

--------------------------------------------------------------------------
#psi4
#
memory 32 gb

molecule  {
0 1
  P        2.6114510     0.0433530    -0.1897960
  O       -0.7415730    -0.5166550    -0.8759300
  O       -3.1471200     1.7525200     0.1857420
  O       -3.5574290    -0.5524670    -0.9560380
  O       -0.9262260    -1.6975490     1.1507850
  O        1.5012860     1.2233130    -0.3203930
  O        1.7414800    -1.2994450    -0.3567160
  O        2.9590140    -0.0653000     1.3909990
  O        3.7753660     0.2843820    -1.0654240
  C       -2.1786680     0.7692630     0.5423480
  C       -0.8949230     0.8134730    -0.3165700
  C       -2.7827930    -0.6059770     0.2231310
  C       -1.7015522    -1.3028641    -0.0430670
  C        0.3225300     1.1924080     0.5079200
  H       -1.9376650     0.8286140     1.6117160
  H       -1.0169450     1.4955040    -1.1629930
  H       -3.3413290    -1.0227480     1.0706890
  H       -1.7077950    -2.2947630    -0.7028010
  H        0.4416350     0.4968690     1.3430810
  H        0.1975530     2.2044650     0.9092850
  H       -2.8909940     2.6048820     0.5755830
  H       -4.0423210     0.2940670    -0.9260900
  H       -0.0419210    -2.0739930     0.9730340
  H        0.9072950    -1.0817680    -0.8531670
  H        3.8470510     0.3069850     1.5449930
units angstrom
no_reorient  #important for SAPT in psi4, default
symmetry c1  #important for SAPT in psi4, default
}

set PROPERTIES_ORIGIN ["COM"]
properties('MP2/aug-cc-pvtz', properties = ['dipole'])
--------------------------------------------------------------------------

    Molecular point group: c1
  Charge       = 0
  Multiplicity = 1
  Basis Set: AUG-CC-PVTZ
    Blend: AUG-CC-PVTZ
  Basis Set: (AUG-CC-PVTZ AUX)
    Blend: AUG-CC-PVTZ-JKFIT

    Orbital Energies [Eh]
    ---------------------

    Doubly Occupied:

       1A    -80.112936     2A    -20.611006     3A    -20.609423
       4A    -20.603673     5A    -20.600941     6A    -20.595281
       7A    -20.585344     8A    -20.582670     9A    -20.512911
      10A    -11.371409    11A    -11.331273    12A    -11.319778
      13A    -11.316227    14A    -11.306000    15A     -7.627890
      16A     -5.526322    17A     -5.526217    18A     -5.524730
      19A     -1.457343    20A     -1.443884    21A     -1.410465
      22A     -1.388817    23A     -1.382005    24A     -1.374911
      25A     -1.346432    26A     -1.294224    27A     -1.114401
      28A     -1.068003    29A     -0.952967    30A     -0.859898
      31A     -0.841900    32A     -0.822921    33A     -0.773358
      34A     -0.761784    35A     -0.748358    36A     -0.739644
      37A     -0.715252    38A     -0.690893    39A     -0.677889
      40A     -0.658634    41A     -0.653784    42A     -0.644340
      43A     -0.637066    44A     -0.611587    45A     -0.595755
      46A     -0.590921    47A     -0.583439    48A     -0.577179
      49A     -0.567620    50A     -0.564744    51A     -0.539912
      52A     -0.534614    53A     -0.526811    54A     -0.514192
      55A     -0.499935    56A     -0.473733    57A     -0.472027
      58A     -0.469720    59A     -0.465628    60A     -0.453367

  @DF-RHF Final Energy: -1135.76313856864090

   => Energetics <=

    Nuclear Repulsion Energy =           1216.9768831884623523
    One-Electron Energy =               -3987.1512647404470044
    Two-Electron Energy =                1634.4112429833439819
    Total Energy =                      -1135.7631385686408976
  Basis Set: (AUG-CC-PVTZ AUX)
    Blend: AUG-CC-PVTZ-RI
    Molecular point group: c1

    Geometry (in Angstrom), charge = 0, multiplicity = 1:

       Center              X                  Y                   Z               Mass
    ------------   -----------------  -----------------  -----------------  -----------------
         P            2.567673115411     0.045198385486    -0.172218267155    30.973761998420
         O           -0.785350884589    -0.514809614514    -0.858352267155    15.994914619570
         O           -3.190897884589     1.754365385486     0.203319732845    15.994914619570
         O           -3.601206884589    -0.550621614514    -0.938460267155    15.994914619570
         O           -0.970003884589    -1.695703614514     1.168362732845    15.994914619570
         O            1.457508115411     1.225158385486    -0.302815267155    15.994914619570
         O            1.697702115411    -1.297599614514    -0.339138267155    15.994914619570
         O            2.915236115411    -0.063454614514     1.408576732845    15.994914619570
         O            3.731588115411     0.286227385486    -1.047846267155    15.994914619570
         C           -2.222445884589     0.771108385486     0.559925732845    12.000000000000
         C           -0.938700884589     0.815318385486    -0.298992267155    12.000000000000
         C           -2.826570884589    -0.604131614514     0.240708732845    12.000000000000
         C           -1.745330084589    -1.301018714514    -0.025489267155    12.000000000000
         C            0.278752115411     1.194253385486     0.525497732845    12.000000000000
         H           -1.981442884589     0.830459385486     1.629293732845     1.007825032230
         H           -1.060722884589     1.497349385486    -1.145415267155     1.007825032230
         H           -3.385106884589    -1.020902614514     1.088266732845     1.007825032230
         H           -1.751572884589    -2.292917614514    -0.685223267155     1.007825032230
         H            0.397857115411     0.498714385486     1.360658732845     1.007825032230
         H            0.153775115411     2.206310385486     0.926862732845     1.007825032230
         H           -2.934771884589     2.606727385486     0.593160732845     1.007825032230
         H           -4.086098884589     0.295912385486    -0.908512267155     1.007825032230
         H           -0.085698884589    -2.072147614514     0.990611732845     1.007825032230
         H            0.863517115411    -1.079922614514    -0.835589267155     1.007825032230
         H            3.803273115411     0.308830385486     1.562570732845     1.007825032230

  Basis Set: AUG-CC-PVTZ
    Blend: AUG-CC-PVTZ
  Basis Set: (AUG-CC-PVTZ AUX)
    Blend: AUG-CC-PVTZ-JKFIT
	 Reference Energy          =   -1135.7631385686408976 [Eh]
	 Singles Energy            =      -0.0000000000000000 [Eh]
	 Same-Spin Energy          =      -0.8197184187039204 [Eh]
	 Opposite-Spin Energy      =      -2.4278414720117958 [Eh]
	 Correlation Energy        =      -3.2475598907157162 [Eh]
	 Total Energy              =   -1139.0106984593567176 [Eh]

	 ================> DF-SCS-MP2 Energies <==================
	-----------------------------------------------------------
	 SCS Same-Spin Scale       =       0.3333333333333333 [-]
	 SCS Opposite-Spin Scale   =       1.2000000000000000 [-]
	 SCS Same-Spin Energy      =      -0.2732394729013068 [Eh]
	 SCS Opposite-Spin Energy  =      -2.9134097664141549 [Eh]
	 SCS Correlation Energy    =      -3.1866492393154617 [Eh]
	 SCS Total Energy          =   -1138.9497878079564543 [Eh]
	-----------------------------------------------------------

  Dipole Moment: [D]
     X:    -4.0395      Y:     2.5800      Z:     4.0226     Total:     6.2574

*** Psi4 exiting successfully. Buy a developer a beer!
