                               Psi4 1.3.2 release

  ==> Input File <==

--------------------------------------------------------------------------
#psi4
#
memory 32 gb

molecule  {
0 1
  P        2.6114510     0.0433530    -0.1897960
  O       -0.7415730    -0.5166550    -0.8759300
  O       -3.1471200     1.7525200     0.1857420
  O       -3.5574290    -0.5524670    -0.9560380
  O       -0.9262260    -1.6975490     1.1507850
  O        1.5012860     1.2233130    -0.3203930
  O        1.7414800    -1.2994450    -0.3567160
  O        2.9590140    -0.0653000     1.3909990
  O        3.7753660     0.2843820    -1.0654240
  C       -2.1786680     0.7692630     0.5423480
  C       -0.8949230     0.8134730    -0.3165700
  C       -2.7827930    -0.6059770     0.2231310
  C       -1.5369320    -1.4089660    -0.0835960
  C        0.4027095     1.2173640     0.5622196
  H       -1.9376650     0.8286140     1.6117160
  H       -1.0169450     1.4955040    -1.1629930
  H       -3.3413290    -1.0227480     1.0706890
  H       -1.7077950    -2.2947630    -0.7028010
  H        0.4416350     0.4968690     1.3430810
  H        0.1975530     2.2044650     0.9092850
  H       -2.8909940     2.6048820     0.5755830
  H       -4.0423210     0.2940670    -0.9260900
  H       -0.0419210    -2.0739930     0.9730340
  H        0.9072950    -1.0817680    -0.8531670
  H        3.8470510     0.3069850     1.5449930
units angstrom
no_reorient  #important for SAPT in psi4, default
symmetry c1  #important for SAPT in psi4, default
}

set PROPERTIES_ORIGIN ["COM"]
properties('MP2/aug-cc-pvtz', properties = ['dipole'])
--------------------------------------------------------------------------

    Molecular point group: c1
  Charge       = 0
  Multiplicity = 1
  Basis Set: AUG-CC-PVTZ
    Blend: AUG-CC-PVTZ
  Basis Set: (AUG-CC-PVTZ AUX)
    Blend: AUG-CC-PVTZ-JKFIT

    Orbital Energies [Eh]
    ---------------------

    Doubly Occupied:

       1A    -80.117340     2A    -20.613148     3A    -20.609898
       4A    -20.604227     5A    -20.602327     6A    -20.600075
       7A    -20.594419     8A    -20.573370     9A    -20.516321
      10A    -11.360960    11A    -11.320182    12A    -11.319186
      13A    -11.318119    14A    -11.305409    15A     -7.632375
      16A     -5.530815    17A     -5.530661    18A     -5.529211
      19A     -1.465337    20A     -1.449930    21A     -1.409576
      22A     -1.397785    23A     -1.381040    24A     -1.372292
      25A     -1.367232    26A     -1.298002    27A     -1.073999
      28A     -1.038495    29A     -0.949659    30A     -0.857281
      31A     -0.841728    32A     -0.828912    33A     -0.772301
      34A     -0.759159    35A     -0.745812    36A     -0.734473
      37A     -0.719447    38A     -0.697676    39A     -0.681771
      40A     -0.667241    41A     -0.657236    42A     -0.648067
      43A     -0.632080    44A     -0.613467    45A     -0.599577
      46A     -0.595118    47A     -0.584900    48A     -0.578117
      49A     -0.568687    50A     -0.558559    51A     -0.547026
      52A     -0.536027    53A     -0.527481    54A     -0.512680
      55A     -0.489729    56A     -0.485010    57A     -0.475269
      58A     -0.469907    59A     -0.464272    60A     -0.437067

  @DF-RHF Final Energy: -1135.81527018960651

   => Energetics <=

    Nuclear Repulsion Energy =           1214.9087091681717538
    One-Electron Energy =               -3983.1130198854307309
    Two-Electron Energy =                1632.3890405276524689
    Total Energy =                      -1135.8152701896065082
  Basis Set: (AUG-CC-PVTZ AUX)
    Blend: AUG-CC-PVTZ-RI
    Molecular point group: c1

    Geometry (in Angstrom), charge = 0, multiplicity = 1:

       Center              X                  Y                   Z               Mass
    ------------   -----------------  -----------------  -----------------  -----------------
         P            2.554902020722     0.049431732065    -0.172936673414    30.973761998420
         O           -0.798121979278    -0.510576267935    -0.859070673414    15.994914619570
         O           -3.203668979278     1.758598732065     0.202601326586    15.994914619570
         O           -3.613977979278    -0.546388267935    -0.939178673414    15.994914619570
         O           -0.982774979278    -1.691470267935     1.167644326586    15.994914619570
         O            1.444737020722     1.229391732065    -0.303533673414    15.994914619570
         O            1.684931020722    -1.293366267935    -0.339856673414    15.994914619570
         O            2.902465020722    -0.059221267935     1.407858326586    15.994914619570
         O            3.718817020722     0.290460732065    -1.048564673414    15.994914619570
         C           -2.235216979278     0.775341732065     0.559207326586    12.000000000000
         C           -0.951471979278     0.819551732065    -0.299710673414    12.000000000000
         C           -2.839341979278    -0.599898267935     0.239990326586    12.000000000000
         C           -1.593480979278    -1.402887267935    -0.066736673414    12.000000000000
         C            0.346160520722     1.223442732065     0.579078926586    12.000000000000
         H           -1.994213979278     0.834692732065     1.628575326586     1.007825032230
         H           -1.073493979278     1.501582732065    -1.146133673414     1.007825032230
         H           -3.397877979278    -1.016669267935     1.087548326586     1.007825032230
         H           -1.764343979278    -2.288684267935    -0.685941673414     1.007825032230
         H            0.385086020722     0.502947732065     1.359940326586     1.007825032230
         H            0.141004020722     2.210543732065     0.926144326586     1.007825032230
         H           -2.947542979278     2.610960732065     0.592442326586     1.007825032230
         H           -4.098869979278     0.300145732065    -0.909230673414     1.007825032230
         H           -0.098469979278    -2.067914267935     0.989893326586     1.007825032230
         H            0.850746020722    -1.075689267935    -0.836307673414     1.007825032230
         H            3.790502020722     0.313063732065     1.561852326586     1.007825032230

  Basis Set: AUG-CC-PVTZ
    Blend: AUG-CC-PVTZ
  Basis Set: (AUG-CC-PVTZ AUX)
    Blend: AUG-CC-PVTZ-JKFIT
	 Reference Energy          =   -1135.8152701896065082 [Eh]
	 Singles Energy            =      -0.0000000000000000 [Eh]
	 Same-Spin Energy          =      -0.8160696712766959 [Eh]
	 Opposite-Spin Energy      =      -2.4218649275138335 [Eh]
	 Correlation Energy        =      -3.2379345987905293 [Eh]
	 Total Energy              =   -1139.0532047883971245 [Eh]

	 ================> DF-SCS-MP2 Energies <==================
	-----------------------------------------------------------
	 SCS Same-Spin Scale       =       0.3333333333333333 [-]
	 SCS Opposite-Spin Scale   =       1.2000000000000000 [-]
	 SCS Same-Spin Energy      =      -0.2720232237588986 [Eh]
	 SCS Opposite-Spin Energy  =      -2.9062379130166001 [Eh]
	 SCS Correlation Energy    =      -3.1782611367754985 [Eh]
	 SCS Total Energy          =   -1138.9935313263820262 [Eh]
	-----------------------------------------------------------

  Dipole Moment: [D]
     X:    -3.2458      Y:     2.3027      Z:     4.0192     Total:     5.6561

*** Psi4 exiting successfully. Buy a developer a beer!
