                               Psi4 1.3.2 release

  ==> Input File <==

--------------------------------------------------------------------------
#psi4
#
memory 32 gb

molecule  {
0 1
  P        2.6114510     0.0433530    -0.1897960
  O       -0.7415730    -0.5166550    -0.8759300
  O       -3.1471200     1.7525200     0.1857420
  O       -3.5951891    -0.5719668    -0.9310872
  O       -0.9262260    -1.6975490     1.1507850
  O        1.5012860     1.2233130    -0.3203930
  O        1.7414800    -1.2994450    -0.3567160
  O        2.9590140    -0.0653000     1.3909990
  O        3.7753660     0.2843820    -1.0654240
  C       -2.1786680     0.7692630     0.5423480
  C       -0.8949230     0.8134730    -0.3165700
  C       -2.7827930    -0.6059770     0.2231310
  C       -1.5369320    -1.4089660    -0.0835960
  C        0.3225300     1.1924080     0.5079200
  H       -1.9376650     0.8286140     1.6117160
  H       -1.0169450     1.4955040    -1.1629930
  H       -3.3413290    -1.0227480     1.0706890
  H       -1.7077950    -2.2947630    -0.7028010
  H        0.4416350     0.4968690     1.3430810
  H        0.1975530     2.2044650     0.9092850
  H       -2.8909940     2.6048820     0.5755830
  H       -4.0423210     0.2940670    -0.9260900
  H       -0.0419210    -2.0739930     0.9730340
  H        0.9072950    -1.0817680    -0.8531670
  H        3.8470510     0.3069850     1.5449930
units angstrom
no_reorient  #important for SAPT in psi4, default
symmetry c1  #important for SAPT in psi4, default
}

set PROPERTIES_ORIGIN ["COM"]
properties('MP2/aug-cc-pvtz', properties = ['dipole'])
--------------------------------------------------------------------------

    Molecular point group: c1
  Charge       = 0
  Multiplicity = 1
  Basis Set: AUG-CC-PVTZ
    Blend: AUG-CC-PVTZ
  Basis Set: (AUG-CC-PVTZ AUX)
    Blend: AUG-CC-PVTZ-JKFIT

    Orbital Energies [Eh]
    ---------------------

    Doubly Occupied:

       1A    -80.115254     2A    -20.611455     3A    -20.606868
       4A    -20.605481     5A    -20.604223     6A    -20.598802
       7A    -20.595153     8A    -20.574434     9A    -20.514877
      10A    -11.362529    11A    -11.324179    12A    -11.321736
      13A    -11.318846    14A    -11.306954    15A     -7.630205
      16A     -5.528626    17A     -5.528543    18A     -5.527042
      19A     -1.463503    20A     -1.448538    21A     -1.411748
      22A     -1.391001    23A     -1.378524    24A     -1.373670
      25A     -1.369300    26A     -1.296214    27A     -1.084836
      28A     -1.047325    29A     -0.947106    30A     -0.858180
      31A     -0.842459    32A     -0.829710    33A     -0.772295
      34A     -0.759789    35A     -0.747783    36A     -0.734706
      37A     -0.717137    38A     -0.693153    39A     -0.683646
      40A     -0.667830    41A     -0.653686    42A     -0.648410
      43A     -0.633408    44A     -0.613385    45A     -0.601387
      46A     -0.595981    47A     -0.582368    48A     -0.578310
      49A     -0.570238    50A     -0.560872    51A     -0.543629
      52A     -0.532752    53A     -0.527877    54A     -0.512287
      55A     -0.491252    56A     -0.487872    57A     -0.475322
      58A     -0.468820    59A     -0.465019    60A     -0.451340

  @DF-RHF Final Energy: -1135.82292473298526

   => Energetics <=

    Nuclear Repulsion Energy =           1215.1862987646168222
    One-Electron Energy =               -3983.6426943118435702
    Two-Electron Energy =                1632.6334708142414911
    Total Energy =                      -1135.8229247329852569
  Basis Set: (AUG-CC-PVTZ AUX)
    Blend: AUG-CC-PVTZ-RI
    Molecular point group: c1

    Geometry (in Angstrom), charge = 0, multiplicity = 1:

       Center              X                  Y                   Z               Mass
    ------------   -----------------  -----------------  -----------------  -----------------
         P            2.561710686636     0.052089639568    -0.171838898382    30.973761998420
         O           -0.791313313364    -0.507918360432    -0.857972898382    15.994914619570
         O           -3.196860313364     1.761256639568     0.203699101618    15.994914619570
         O           -3.644929413364    -0.563230160432    -0.913130098382    15.994914619570
         O           -0.975966313364    -1.688812360432     1.168742101618    15.994914619570
         O            1.451545686636     1.232049639568    -0.302435898382    15.994914619570
         O            1.691739686636    -1.290708360432    -0.338758898382    15.994914619570
         O            2.909273686636    -0.056563360432     1.408956101618    15.994914619570
         O            3.725625686636     0.293118639568    -1.047466898382    15.994914619570
         C           -2.228408313364     0.777999639568     0.560305101618    12.000000000000
         C           -0.944663313364     0.822209639568    -0.298612898382    12.000000000000
         C           -2.832533313364    -0.597240360432     0.241088101618    12.000000000000
         C           -1.586672313364    -1.400229360432    -0.065638898382    12.000000000000
         C            0.272789686636     1.201144639568     0.525877101618    12.000000000000
         H           -1.987405313364     0.837350639568     1.629673101618     1.007825032230
         H           -1.066685313364     1.504240639568    -1.145035898382     1.007825032230
         H           -3.391069313364    -1.014011360432     1.088646101618     1.007825032230
         H           -1.757535313364    -2.286026360432    -0.684843898382     1.007825032230
         H            0.391894686636     0.505605639568     1.361038101618     1.007825032230
         H            0.147812686636     2.213201639568     0.927242101618     1.007825032230
         H           -2.940734313364     2.613618639568     0.593540101618     1.007825032230
         H           -4.092061313364     0.302803639568    -0.908132898382     1.007825032230
         H           -0.091661313364    -2.065256360432     0.990991101618     1.007825032230
         H            0.857554686636    -1.073031360432    -0.835209898382     1.007825032230
         H            3.797310686636     0.315721639568     1.562950101618     1.007825032230

  Basis Set: AUG-CC-PVTZ
    Blend: AUG-CC-PVTZ
  Basis Set: (AUG-CC-PVTZ AUX)
    Blend: AUG-CC-PVTZ-JKFIT
	 Reference Energy          =   -1135.8229247329852569 [Eh]
	 Singles Energy            =      -0.0000000000000000 [Eh]
	 Same-Spin Energy          =      -0.8161403149171987 [Eh]
	 Opposite-Spin Energy      =      -2.4216608122582102 [Eh]
	 Correlation Energy        =      -3.2378011271754090 [Eh]
	 Total Energy              =   -1139.0607258601605736 [Eh]

	 ================> DF-SCS-MP2 Energies <==================
	-----------------------------------------------------------
	 SCS Same-Spin Scale       =       0.3333333333333333 [-]
	 SCS Opposite-Spin Scale   =       1.2000000000000000 [-]
	 SCS Same-Spin Energy      =      -0.2720467716390662 [Eh]
	 SCS Opposite-Spin Energy  =      -2.9059929747098523 [Eh]
	 SCS Correlation Energy    =      -3.1780397463489187 [Eh]
	 SCS Total Energy          =   -1139.0009644793342432 [Eh]
	-----------------------------------------------------------

  Dipole Moment: [D]
     X:    -3.3827      Y:     2.3498      Z:     3.9973     Total:     5.7396

*** Psi4 exiting successfully. Buy a developer a beer!
