                               Psi4 1.3.2 release

  ==> Input File <==

--------------------------------------------------------------------------
#psi4
#
memory 32 gb

molecule  {
0 1
  P        2.6114510     0.0433530    -0.1897960
  O       -0.7421703    -0.5503735    -0.9129215
  O       -3.1471200     1.7525200     0.1857420
  O       -3.5574290    -0.5524670    -0.9560380
  O       -0.9262260    -1.6975490     1.1507850
  O        1.5012860     1.2233130    -0.3203930
  O        1.7414800    -1.2994450    -0.3567160
  O        2.9590140    -0.0653000     1.3909990
  O        3.7753660     0.2843820    -1.0654240
  C       -2.1786680     0.7692630     0.5423480
  C       -0.8949230     0.8134730    -0.3165700
  C       -2.7827930    -0.6059770     0.2231310
  C       -1.5369320    -1.4089660    -0.0835960
  C        0.3225300     1.1924080     0.5079200
  H       -1.9376650     0.8286140     1.6117160
  H       -1.0169450     1.4955040    -1.1629930
  H       -3.3413290    -1.0227480     1.0706890
  H       -1.7077950    -2.2947630    -0.7028010
  H        0.4416350     0.4968690     1.3430810
  H        0.1975530     2.2044650     0.9092850
  H       -2.8909940     2.6048820     0.5755830
  H       -4.0423210     0.2940670    -0.9260900
  H       -0.0419210    -2.0739930     0.9730340
  H        0.9072950    -1.0817680    -0.8531670
  H        3.8470510     0.3069850     1.5449930
units angstrom
no_reorient  #important for SAPT in psi4, default
symmetry c1  #important for SAPT in psi4, default
}

set PROPERTIES_ORIGIN ["COM"]
properties('MP2/aug-cc-pvtz', properties = ['dipole'])
--------------------------------------------------------------------------

    Molecular point group: c1
  Charge       = 0
  Multiplicity = 1
  Basis Set: AUG-CC-PVTZ
    Blend: AUG-CC-PVTZ
  Basis Set: (AUG-CC-PVTZ AUX)
    Blend: AUG-CC-PVTZ-JKFIT

    Orbital Energies [Eh]
    ---------------------

    Doubly Occupied:

       1A    -80.115035     2A    -20.611356     3A    -20.607629
       4A    -20.605875     5A    -20.605173     6A    -20.597727
       7A    -20.594845     8A    -20.574682     9A    -20.514682
      10A    -11.360282    11A    -11.325328    12A    -11.324086
      13A    -11.322446    14A    -11.307493    15A     -7.629985
      16A     -5.528413    17A     -5.528315    18A     -5.526822
      19A     -1.459882    20A     -1.445410    21A     -1.412179
      22A     -1.390986    23A     -1.377953    24A     -1.373346
      25A     -1.363866    26A     -1.296016    27A     -1.087680
      28A     -1.044749    29A     -0.945589    30A     -0.858461
      31A     -0.840407    32A     -0.828600    33A     -0.771537
      34A     -0.759038    35A     -0.745611    36A     -0.734427
      37A     -0.717032    38A     -0.693241    39A     -0.684234
      40A     -0.665326    41A     -0.652711    42A     -0.644765
      43A     -0.632563    44A     -0.612550    45A     -0.602748
      46A     -0.593793    47A     -0.582194    48A     -0.578006
      49A     -0.569102    50A     -0.559359    51A     -0.543225
      52A     -0.531929    53A     -0.526124    54A     -0.512441
      55A     -0.491402    56A     -0.488808    57A     -0.476228
      58A     -0.469205    59A     -0.466067    60A     -0.452315

  @DF-RHF Final Energy: -1135.81892556645562

   => Energetics <=

    Nuclear Repulsion Energy =           1214.4730636188844528
    One-Electron Energy =               -3982.2614137176447002
    Two-Electron Energy =                1631.9694245323044015
    Total Energy =                      -1135.8189255664556185
  Basis Set: (AUG-CC-PVTZ AUX)
    Blend: AUG-CC-PVTZ-RI
    Molecular point group: c1

    Geometry (in Angstrom), charge = 0, multiplicity = 1:

       Center              X                  Y                   Z               Mass
    ------------   -----------------  -----------------  -----------------  -----------------
         P            2.559126485269     0.053078369803    -0.167531597093    30.973761998420
         O           -0.794494814731    -0.540648130197    -0.890657097093    15.994914619570
         O           -3.199444514731     1.762245369803     0.208006402907    15.994914619570
         O           -3.609753514731    -0.542741630197    -0.933773597093    15.994914619570
         O           -0.978550514731    -1.687823630197     1.173049402907    15.994914619570
         O            1.448961485269     1.233038369803    -0.298128597093    15.994914619570
         O            1.689155485269    -1.289719630197    -0.334451597093    15.994914619570
         O            2.906689485269    -0.055574630197     1.413263402907    15.994914619570
         O            3.723041485269     0.294107369803    -1.043159597093    15.994914619570
         C           -2.230992514731     0.778988369803     0.564612402907    12.000000000000
         C           -0.947247514731     0.823198369803    -0.294305597093    12.000000000000
         C           -2.835117514731    -0.596251630197     0.245395402907    12.000000000000
         C           -1.589256514731    -1.399240630197    -0.061331597093    12.000000000000
         C            0.270205485269     1.202133369803     0.530184402907    12.000000000000
         H           -1.989989514731     0.838339369803     1.633980402907     1.007825032230
         H           -1.069269514731     1.505229369803    -1.140728597093     1.007825032230
         H           -3.393653514731    -1.013022630197     1.092953402907     1.007825032230
         H           -1.760119514731    -2.285037630197    -0.680536597093     1.007825032230
         H            0.389310485269     0.506594369803     1.365345402907     1.007825032230
         H            0.145228485269     2.214190369803     0.931549402907     1.007825032230
         H           -2.943318514731     2.614607369803     0.597847402907     1.007825032230
         H           -4.094645514731     0.303792369803    -0.903825597093     1.007825032230
         H           -0.094245514731    -2.064267630197     0.995298402907     1.007825032230
         H            0.854970485269    -1.072042630197    -0.830902597093     1.007825032230
         H            3.794726485269     0.316710369803     1.567257402907     1.007825032230

  Basis Set: AUG-CC-PVTZ
    Blend: AUG-CC-PVTZ
  Basis Set: (AUG-CC-PVTZ AUX)
    Blend: AUG-CC-PVTZ-JKFIT
	 Reference Energy          =   -1135.8189255664556185 [Eh]
	 Singles Energy            =      -0.0000000000000000 [Eh]
	 Same-Spin Energy          =      -0.8167082594155095 [Eh]
	 Opposite-Spin Energy      =      -2.4234044794643701 [Eh]
	 Correlation Energy        =      -3.2401127388798798 [Eh]
	 Total Energy              =   -1139.0590383053354344 [Eh]

	 ================> DF-SCS-MP2 Energies <==================
	-----------------------------------------------------------
	 SCS Same-Spin Scale       =       0.3333333333333333 [-]
	 SCS Opposite-Spin Scale   =       1.2000000000000000 [-]
	 SCS Same-Spin Energy      =      -0.2722360864718365 [Eh]
	 SCS Opposite-Spin Energy  =      -2.9080853753572442 [Eh]
	 SCS Correlation Energy    =      -3.1803214618290809 [Eh]
	 SCS Total Energy          =   -1138.9992470282847989 [Eh]
	-----------------------------------------------------------

  Dipole Moment: [D]
     X:    -3.4816      Y:     2.4299      Z:     4.1125     Total:     5.9109

*** Psi4 exiting successfully. Buy a developer a beer!
