                               Psi4 1.3.2 release

  ==> Input File <==

--------------------------------------------------------------------------
#psi4
#
memory 32 gb

molecule  {
0 1
  P        2.6114510     0.0433530    -0.1897960
  O       -0.7415730    -0.5166550    -0.8759300
  O       -3.1471200     1.7525200     0.1857420
  O       -3.5574290    -0.5524670    -0.9560380
  O       -0.9262260    -1.6975490     1.1507850
  O        1.5012860     1.2233130    -0.3203930
  O        1.7414800    -1.2994450    -0.3567160
  O        2.9590140    -0.0653000     1.3909990
  O        3.7753660     0.2843820    -1.0654240
  C       -2.1786680     0.7692630     0.5423480
  C       -0.8949230     0.8134730    -0.3165700
  C       -2.7827930    -0.6059770     0.2231310
  C       -1.5369320    -1.4089660    -0.0835960
  C        0.3315506     1.2325123     0.4744647
  H       -1.9376650     0.8286140     1.6117160
  H       -1.0169450     1.4955040    -1.1629930
  H       -3.3413290    -1.0227480     1.0706890
  H       -1.7077950    -2.2947630    -0.7028010
  H        0.4416350     0.4968690     1.3430810
  H        0.1975530     2.2044650     0.9092850
  H       -2.8909940     2.6048820     0.5755830
  H       -4.0423210     0.2940670    -0.9260900
  H       -0.0419210    -2.0739930     0.9730340
  H        0.9072950    -1.0817680    -0.8531670
  H        3.8470510     0.3069850     1.5449930
units angstrom
no_reorient  #important for SAPT in psi4, default
symmetry c1  #important for SAPT in psi4, default
}

set PROPERTIES_ORIGIN ["COM"]
properties('MP2/aug-cc-pvtz', properties = ['dipole'])
--------------------------------------------------------------------------

    Molecular point group: c1
  Charge       = 0
  Multiplicity = 1
  Basis Set: AUG-CC-PVTZ
    Blend: AUG-CC-PVTZ
  Basis Set: (AUG-CC-PVTZ AUX)
    Blend: AUG-CC-PVTZ-JKFIT

    Orbital Energies [Eh]
    ---------------------

    Doubly Occupied:

       1A    -80.117052     2A    -20.611774     3A    -20.606459
       4A    -20.605771     5A    -20.603681     6A    -20.599094
       7A    -20.594087     8A    -20.574420     9A    -20.516076
      10A    -11.361894    11A    -11.323027    12A    -11.321661
      13A    -11.317158    14A    -11.306886    15A     -7.631854
      16A     -5.530332    17A     -5.530189    18A     -5.528669
      19A     -1.464500    20A     -1.449466    21A     -1.410959
      22A     -1.395326    23A     -1.379643    24A     -1.373182
      25A     -1.368336    26A     -1.297471    27A     -1.082925
      28A     -1.046509    29A     -0.947260    30A     -0.859619
      31A     -0.840516    32A     -0.827624    33A     -0.772301
      34A     -0.760251    35A     -0.748540    36A     -0.732736
      37A     -0.717595    38A     -0.698804    39A     -0.683788
      40A     -0.666244    41A     -0.655816    42A     -0.647627
      43A     -0.633488    44A     -0.614660    45A     -0.600031
      46A     -0.596956    47A     -0.583783    48A     -0.575811
      49A     -0.569000    50A     -0.559707    51A     -0.543761
      52A     -0.530438    53A     -0.525166    54A     -0.508134
      55A     -0.490796    56A     -0.486800    57A     -0.475205
      58A     -0.469594    59A     -0.464779    60A     -0.450749

  @DF-RHF Final Energy: -1135.82035311763320

   => Energetics <=

    Nuclear Repulsion Energy =           1215.7371388745027616
    One-Electron Energy =               -3984.7430154649277938
    Two-Electron Energy =                1633.1855234727918287
    Total Energy =                      -1135.8203531176332035
  Basis Set: (AUG-CC-PVTZ AUX)
    Blend: AUG-CC-PVTZ-RI
    Molecular point group: c1

    Geometry (in Angstrom), charge = 0, multiplicity = 1:

       Center              X                  Y                   Z               Mass
    ------------   -----------------  -----------------  -----------------  -----------------
         P            2.558614349822     0.048641451792    -0.168358538157    30.973761998420
         O           -0.794409650178    -0.511366548208    -0.854492538157    15.994914619570
         O           -3.199956650178     1.757808451792     0.207179461843    15.994914619570
         O           -3.610265650178    -0.547178548208    -0.934600538157    15.994914619570
         O           -0.979062650178    -1.692260548208     1.172222461843    15.994914619570
         O            1.448449349822     1.228601451792    -0.298955538157    15.994914619570
         O            1.688643349822    -1.294156548208    -0.335278538157    15.994914619570
         O            2.906177349822    -0.060011548208     1.412436461843    15.994914619570
         O            3.722529349822     0.289670451792    -1.043986538157    15.994914619570
         C           -2.231504650178     0.774551451792     0.563785461843    12.000000000000
         C           -0.947759650178     0.818761451792    -0.295132538157    12.000000000000
         C           -2.835629650178    -0.600688548208     0.244568461843    12.000000000000
         C           -1.589768650178    -1.403677548208    -0.062158538157    12.000000000000
         C            0.278713949822     1.237800751792     0.495902161843    12.000000000000
         H           -1.990501650178     0.833902451792     1.633153461843     1.007825032230
         H           -1.069781650178     1.500792451792    -1.141555538157     1.007825032230
         H           -3.394165650178    -1.017459548208     1.092126461843     1.007825032230
         H           -1.760631650178    -2.289474548208    -0.681363538157     1.007825032230
         H            0.388798349822     0.502157451792     1.364518461843     1.007825032230
         H            0.144716349822     2.209753451792     0.930722461843     1.007825032230
         H           -2.943830650178     2.610170451792     0.597020461843     1.007825032230
         H           -4.095157650178     0.299355451792    -0.904652538157     1.007825032230
         H           -0.094757650178    -2.068704548208     0.994471461843     1.007825032230
         H            0.854458349822    -1.076479548208    -0.831729538157     1.007825032230
         H            3.794214349822     0.312273451792     1.566430461843     1.007825032230

  Basis Set: AUG-CC-PVTZ
    Blend: AUG-CC-PVTZ
  Basis Set: (AUG-CC-PVTZ AUX)
    Blend: AUG-CC-PVTZ-JKFIT
	 Reference Energy          =   -1135.8203531176332035 [Eh]
	 Singles Energy            =      -0.0000000000000000 [Eh]
	 Same-Spin Energy          =      -0.8162764256456261 [Eh]
	 Opposite-Spin Energy      =      -2.4215477911796444 [Eh]
	 Correlation Energy        =      -3.2378242168252704 [Eh]
	 Total Energy              =   -1139.0581773344583780 [Eh]

	 ================> DF-SCS-MP2 Energies <==================
	-----------------------------------------------------------
	 SCS Same-Spin Scale       =       0.3333333333333333 [-]
	 SCS Opposite-Spin Scale   =       1.2000000000000000 [-]
	 SCS Same-Spin Energy      =      -0.2720921418818754 [Eh]
	 SCS Opposite-Spin Energy  =      -2.9058573494155731 [Eh]
	 SCS Correlation Energy    =      -3.1779494912974484 [Eh]
	 SCS Total Energy          =   -1138.9983026089305440 [Eh]
	-----------------------------------------------------------

  Dipole Moment: [D]
     X:    -3.3838      Y:     2.3193      Z:     3.9852     Total:     5.7193

*** Psi4 exiting successfully. Buy a developer a beer!
