                               Psi4 1.3.2 release

  ==> Input File <==

--------------------------------------------------------------------------
#psi4
#
memory 32 gb

molecule  {
0 1
  P        2.6114510     0.0433530    -0.1897960
  O       -0.7415730    -0.5166550    -0.8759300
  O       -3.1471200     1.7525200     0.1857420
  O       -3.5574290    -0.5524670    -0.9560380
  O       -0.9262260    -1.6975490     1.1507850
  O        1.5012860     1.2233130    -0.3203930
  O        1.7414800    -1.2994450    -0.3567160
  O        2.9590140    -0.0653000     1.3909990
  O        3.7753660     0.2843820    -1.0654240
  C       -2.1786680     0.7692630     0.5423480
  C       -0.8949230     0.8134730    -0.3165700
  C       -2.7827930    -0.6059770     0.2231310
  C       -1.5169539    -1.4173109    -0.0951868
  C        0.3225300     1.1924080     0.5079200
  H       -1.9376650     0.8286140     1.6117160
  H       -1.0169450     1.4955040    -1.1629930
  H       -3.3413290    -1.0227480     1.0706890
  H       -1.7077950    -2.2947630    -0.7028010
  H        0.4416350     0.4968690     1.3430810
  H        0.1975530     2.2044650     0.9092850
  H       -2.8909940     2.6048820     0.5755830
  H       -4.0423210     0.2940670    -0.9260900
  H       -0.0419210    -2.0739930     0.9730340
  H        0.9072950    -1.0817680    -0.8531670
  H        3.8470510     0.3069850     1.5449930
units angstrom
no_reorient  #important for SAPT in psi4, default
symmetry c1  #important for SAPT in psi4, default
}

set PROPERTIES_ORIGIN ["COM"]
properties('MP2/aug-cc-pvtz', properties = ['dipole'])
--------------------------------------------------------------------------

    Molecular point group: c1
  Charge       = 0
  Multiplicity = 1
  Basis Set: AUG-CC-PVTZ
    Blend: AUG-CC-PVTZ
  Basis Set: (AUG-CC-PVTZ AUX)
    Blend: AUG-CC-PVTZ-JKFIT

    Orbital Energies [Eh]
    ---------------------

    Doubly Occupied:

       1A    -80.115294     2A    -20.611452     3A    -20.605890
       4A    -20.605439     5A    -20.604780     6A    -20.598984
       7A    -20.594927     8A    -20.573759     9A    -20.514897
      10A    -11.361394    11A    -11.322726    12A    -11.321679
      13A    -11.319004    14A    -11.306834    15A     -7.630245
      16A     -5.528664    17A     -5.528584    18A     -5.527082
      19A     -1.464682    20A     -1.449172    21A     -1.411177
      22A     -1.390984    23A     -1.378644    24A     -1.373499
      25A     -1.369258    26A     -1.296239    27A     -1.084392
      28A     -1.043265    29A     -0.946511    30A     -0.857869
      31A     -0.842083    32A     -0.829818    33A     -0.771976
      34A     -0.758601    35A     -0.748120    36A     -0.733712
      37A     -0.717094    38A     -0.693267    39A     -0.684727
      40A     -0.668524    41A     -0.653763    42A     -0.648051
      43A     -0.633004    44A     -0.615077    45A     -0.601281
      46A     -0.595744    47A     -0.582252    48A     -0.577211
      49A     -0.569911    50A     -0.559004    51A     -0.543768
      52A     -0.532809    53A     -0.527304    54A     -0.511287
      55A     -0.491397    56A     -0.487096    57A     -0.475028
      58A     -0.468516    59A     -0.464597    60A     -0.450224

  @DF-RHF Final Energy: -1135.82243487697792

   => Energetics <=

    Nuclear Repulsion Energy =           1215.8694557602848363
    One-Electron Energy =               -3985.0386317940001391
    Two-Electron Energy =                1633.3467411567373802
    Total Energy =                      -1135.8224348769779226
  Basis Set: (AUG-CC-PVTZ AUX)
    Blend: AUG-CC-PVTZ-RI
    Molecular point group: c1

    Geometry (in Angstrom), charge = 0, multiplicity = 1:

       Center              X                  Y                   Z               Mass
    ------------   -----------------  -----------------  -----------------  -----------------
         P            2.558042701776     0.051169025645    -0.169499199685    30.973761998420
         O           -0.794981298224    -0.508838974355    -0.855633199685    15.994914619570
         O           -3.200528298224     1.760336025645     0.206038800315    15.994914619570
         O           -3.610837298224    -0.544650974355    -0.935741199685    15.994914619570
         O           -0.979634298224    -1.689732974355     1.171081800315    15.994914619570
         O            1.447877701776     1.231129025645    -0.300096199685    15.994914619570
         O            1.688071701776    -1.291628974355    -0.336419199685    15.994914619570
         O            2.905605701776    -0.057483974355     1.411295800315    15.994914619570
         O            3.721957701776     0.292198025645    -1.045127199685    15.994914619570
         C           -2.232076298224     0.777079025645     0.562644800315    12.000000000000
         C           -0.948331298224     0.821289025645    -0.296273199685    12.000000000000
         C           -2.836201298224    -0.598160974355     0.243427800315    12.000000000000
         C           -1.570362198224    -1.409494874355    -0.074889999685    12.000000000000
         C            0.269121701776     1.200224025645     0.528216800315    12.000000000000
         H           -1.991073298224     0.836430025645     1.632012800315     1.007825032230
         H           -1.070353298224     1.503320025645    -1.142696199685     1.007825032230
         H           -3.394737298224    -1.014931974355     1.090985800315     1.007825032230
         H           -1.761203298224    -2.286946974355    -0.682504199685     1.007825032230
         H            0.388226701776     0.504685025645     1.363377800315     1.007825032230
         H            0.144144701776     2.212281025645     0.929581800315     1.007825032230
         H           -2.944402298224     2.612698025645     0.595879800315     1.007825032230
         H           -4.095729298224     0.301883025645    -0.905793199685     1.007825032230
         H           -0.095329298224    -2.066176974355     0.993330800315     1.007825032230
         H            0.853886701776    -1.073951974355    -0.832870199685     1.007825032230
         H            3.793642701776     0.314801025645     1.565289800315     1.007825032230

  Basis Set: AUG-CC-PVTZ
    Blend: AUG-CC-PVTZ
  Basis Set: (AUG-CC-PVTZ AUX)
    Blend: AUG-CC-PVTZ-JKFIT
	 Reference Energy          =   -1135.8224348769779226 [Eh]
	 Singles Energy            =      -0.0000000000000000 [Eh]
	 Same-Spin Energy          =      -0.8161672925418583 [Eh]
	 Opposite-Spin Energy      =      -2.4216843598349005 [Eh]
	 Correlation Energy        =      -3.2378516523767589 [Eh]
	 Total Energy              =   -1139.0602865293546984 [Eh]

	 ================> DF-SCS-MP2 Energies <==================
	-----------------------------------------------------------
	 SCS Same-Spin Scale       =       0.3333333333333333 [-]
	 SCS Opposite-Spin Scale   =       1.2000000000000000 [-]
	 SCS Same-Spin Energy      =      -0.2720557641806194 [Eh]
	 SCS Opposite-Spin Energy  =      -2.9060212318018803 [Eh]
	 SCS Correlation Energy    =      -3.1780769959824999 [Eh]
	 SCS Total Energy          =   -1139.0005118729604874 [Eh]
	-----------------------------------------------------------

  Dipole Moment: [D]
     X:    -3.4201      Y:     2.2998      Z:     4.0058     Total:     5.7474

*** Psi4 exiting successfully. Buy a developer a beer!
