                               Psi4 1.3.2 release

  ==> Input File <==

--------------------------------------------------------------------------
#psi4
#
memory 32 gb

molecule  {
0 1
  P        2.6114510     0.0433530    -0.1897960
  O       -0.7415730    -0.5166550    -0.8759300
  O       -3.1471200     1.7525200     0.1857420
  O       -3.5574290    -0.5524670    -0.9560380
  O       -0.9262260    -1.6975490     1.1507850
  O        1.5012860     1.2233130    -0.3203930
  O        1.7414800    -1.2994450    -0.3567160
  O        2.9590140    -0.0653000     1.3909990
  O        3.7753660     0.2843820    -1.0654240
  C       -2.1786680     0.7692630     0.5423480
  C       -0.8949230     0.8134730    -0.3165700
  C       -2.7827930    -0.6059770     0.2231310
  C       -1.5369320    -1.4089660    -0.0835960
  C        0.2866216     1.0695233     0.6021018
  H       -1.9376650     0.8286140     1.6117160
  H       -1.0169450     1.4955040    -1.1629930
  H       -3.3413290    -1.0227480     1.0706890
  H       -1.7077950    -2.2947630    -0.7028010
  H        0.4416350     0.4968690     1.3430810
  H        0.1975530     2.2044650     0.9092850
  H       -2.8909940     2.6048820     0.5755830
  H       -4.0423210     0.2940670    -0.9260900
  H       -0.0419210    -2.0739930     0.9730340
  H        0.9072950    -1.0817680    -0.8531670
  H        3.8470510     0.3069850     1.5449930
units angstrom
no_reorient  #important for SAPT in psi4, default
symmetry c1  #important for SAPT in psi4, default
}

set PROPERTIES_ORIGIN ["COM"]
properties('MP2/aug-cc-pvtz', properties = ['dipole'])
--------------------------------------------------------------------------

    Molecular point group: c1
  Charge       = 0
  Multiplicity = 1
  Basis Set: AUG-CC-PVTZ
    Blend: AUG-CC-PVTZ
  Basis Set: (AUG-CC-PVTZ AUX)
    Blend: AUG-CC-PVTZ-JKFIT

    Orbital Energies [Eh]
    ---------------------

    Doubly Occupied:

       1A    -80.108893     2A    -20.609168     3A    -20.607993
       4A    -20.603317     5A    -20.600646     6A    -20.597019
       7A    -20.596606     8A    -20.576400     9A    -20.510092
      10A    -11.363461    11A    -11.325091    12A    -11.324811
      13A    -11.324071    14A    -11.308704    15A     -7.624192
      16A     -5.522572    17A     -5.522424    18A     -5.521094
      19A     -1.462246    20A     -1.443945    21A     -1.413215
      22A     -1.382678    23A     -1.375520    24A     -1.371333
      25A     -1.364672    26A     -1.291050    27A     -1.090016
      28A     -1.049617    29A     -0.951492    30A     -0.857885
      31A     -0.847241    32A     -0.834391    33A     -0.770857
      34A     -0.758461    35A     -0.745081    36A     -0.740229
      37A     -0.714860    38A     -0.693552    39A     -0.677708
      40A     -0.668989    41A     -0.648330    42A     -0.646036
      43A     -0.628017    44A     -0.610940    45A     -0.603570
      46A     -0.593209    47A     -0.590160    48A     -0.576290
      49A     -0.568609    50A     -0.561767    51A     -0.544612
      52A     -0.534801    53A     -0.524149    54A     -0.516199
      55A     -0.492157    56A     -0.487789    57A     -0.476504
      58A     -0.467174    59A     -0.462282    60A     -0.448441

  @DF-RHF Final Energy: -1135.78832445953640

   => Energetics <=

    Nuclear Repulsion Energy =           1216.4370571483859749
    One-Electron Energy =               -3986.1855181956166234
    Two-Electron Energy =                1633.9601365876942509
    Total Energy =                      -1135.7883244595363976
  Basis Set: (AUG-CC-PVTZ AUX)
    Blend: AUG-CC-PVTZ-RI
    Molecular point group: c1

    Geometry (in Angstrom), charge = 0, multiplicity = 1:

       Center              X                  Y                   Z               Mass
    ------------   -----------------  -----------------  -----------------  -----------------
         P            2.560958276360     0.057144517573    -0.175017310574    30.973761998420
         O           -0.792065723640    -0.502863482427    -0.861151310574    15.994914619570
         O           -3.197612723640     1.766311517573     0.200520689426    15.994914619570
         O           -3.607921723640    -0.538675482427    -0.941259310574    15.994914619570
         O           -0.976718723640    -1.683757482427     1.165563689426    15.994914619570
         O            1.450793276360     1.237104517573    -0.305614310574    15.994914619570
         O            1.690987276360    -1.285653482427    -0.341937310574    15.994914619570
         O            2.908521276360    -0.051508482427     1.405777689426    15.994914619570
         O            3.724873276360     0.298173517573    -1.050645310574    15.994914619570
         C           -2.229160723640     0.783054517573     0.557126689426    12.000000000000
         C           -0.945415723640     0.827264517573    -0.301791310574    12.000000000000
         C           -2.833285723640    -0.592185482427     0.237909689426    12.000000000000
         C           -1.587424723640    -1.395174482427    -0.068817310574    12.000000000000
         C            0.236128876360     1.083314817573     0.616880489426    12.000000000000
         H           -1.988157723640     0.842405517573     1.626494689426     1.007825032230
         H           -1.067437723640     1.509295517573    -1.148214310574     1.007825032230
         H           -3.391821723640    -1.008956482427     1.085467689426     1.007825032230
         H           -1.758287723640    -2.280971482427    -0.688022310574     1.007825032230
         H            0.391142276360     0.510660517573     1.357859689426     1.007825032230
         H            0.147060276360     2.218256517573     0.924063689426     1.007825032230
         H           -2.941486723640     2.618673517573     0.590361689426     1.007825032230
         H           -4.092813723640     0.307858517573    -0.911311310574     1.007825032230
         H           -0.092413723640    -2.060201482427     0.987812689426     1.007825032230
         H            0.856802276360    -1.067976482427    -0.838388310574     1.007825032230
         H            3.796558276360     0.320776517573     1.559771689426     1.007825032230

  Basis Set: AUG-CC-PVTZ
    Blend: AUG-CC-PVTZ
  Basis Set: (AUG-CC-PVTZ AUX)
    Blend: AUG-CC-PVTZ-JKFIT
	 Reference Energy          =   -1135.7883244595363976 [Eh]
	 Singles Energy            =      -0.0000000000000000 [Eh]
	 Same-Spin Energy          =      -0.8170909395440028 [Eh]
	 Opposite-Spin Energy      =      -2.4248866014974291 [Eh]
	 Correlation Energy        =      -3.2419775410414320 [Eh]
	 Total Energy              =   -1139.0303020005778762 [Eh]

	 ================> DF-SCS-MP2 Energies <==================
	-----------------------------------------------------------
	 SCS Same-Spin Scale       =       0.3333333333333333 [-]
	 SCS Opposite-Spin Scale   =       1.2000000000000000 [-]
	 SCS Same-Spin Energy      =      -0.2723636465146676 [Eh]
	 SCS Opposite-Spin Energy  =      -2.9098639217969149 [Eh]
	 SCS Correlation Energy    =      -3.1822275683115824 [Eh]
	 SCS Total Energy          =   -1138.9705520278480435 [Eh]
	-----------------------------------------------------------

  Dipole Moment: [D]
     X:    -3.7907      Y:     2.2360      Z:     4.1113     Total:     6.0226

*** Psi4 exiting successfully. Buy a developer a beer!
