                               Psi4 1.3.2 release

  ==> Input File <==

--------------------------------------------------------------------------
#psi4
#
memory 32 gb

molecule  {
0 1
  P        2.6114510     0.0433530    -0.1897960
  O       -0.6511505    -0.5214570    -0.8305518
  O       -3.1471200     1.7525200     0.1857420
  O       -3.5574290    -0.5524670    -0.9560380
  O       -0.9262260    -1.6975490     1.1507850
  O        1.5012860     1.2233130    -0.3203930
  O        1.7414800    -1.2994450    -0.3567160
  O        2.9590140    -0.0653000     1.3909990
  O        3.7753660     0.2843820    -1.0654240
  C       -2.1786680     0.7692630     0.5423480
  C       -0.8949230     0.8134730    -0.3165700
  C       -2.7827930    -0.6059770     0.2231310
  C       -1.5369320    -1.4089660    -0.0835960
  C        0.3225300     1.1924080     0.5079200
  H       -1.9376650     0.8286140     1.6117160
  H       -1.0169450     1.4955040    -1.1629930
  H       -3.3413290    -1.0227480     1.0706890
  H       -1.7077950    -2.2947630    -0.7028010
  H        0.4416350     0.4968690     1.3430810
  H        0.1975530     2.2044650     0.9092850
  H       -2.8909940     2.6048820     0.5755830
  H       -4.0423210     0.2940670    -0.9260900
  H       -0.0419210    -2.0739930     0.9730340
  H        0.9072950    -1.0817680    -0.8531670
  H        3.8470510     0.3069850     1.5449930
units angstrom
no_reorient  #important for SAPT in psi4, default
symmetry c1  #important for SAPT in psi4, default
}

set PROPERTIES_ORIGIN ["COM"]
properties('MP2/aug-cc-pvtz', properties = ['dipole'])
--------------------------------------------------------------------------

    Molecular point group: c1
  Charge       = 0
  Multiplicity = 1
  Basis Set: AUG-CC-PVTZ
    Blend: AUG-CC-PVTZ
  Basis Set: (AUG-CC-PVTZ AUX)
    Blend: AUG-CC-PVTZ-JKFIT

    Orbital Energies [Eh]
    ---------------------

    Doubly Occupied:

       1A    -80.111885     2A    -20.608829     3A    -20.608453
       4A    -20.603865     5A    -20.602856     6A    -20.593493
       7A    -20.591405     8A    -20.578189     9A    -20.512100
      10A    -11.366647    11A    -11.326044    12A    -11.319098
      13A    -11.318400    14A    -11.311643    15A     -7.626820
      16A     -5.525262    17A     -5.525140    18A     -5.523668
      19A     -1.461507    20A     -1.444775    21A     -1.413732
      22A     -1.388694    23A     -1.375846    24A     -1.373988
      25A     -1.365949    26A     -1.293405    27A     -1.085219
      28A     -1.048162    29A     -0.944441    30A     -0.860115
      31A     -0.840820    32A     -0.830501    33A     -0.772086
      34A     -0.759870    35A     -0.747789    36A     -0.733350
      37A     -0.714058    38A     -0.690422    39A     -0.684196
      40A     -0.668291    41A     -0.652078    42A     -0.647046
      43A     -0.635292    44A     -0.610467    45A     -0.602327
      46A     -0.594260    47A     -0.579395    48A     -0.576991
      49A     -0.570644    50A     -0.560849    51A     -0.540513
      52A     -0.531010    53A     -0.525151    54A     -0.513343
      55A     -0.490796    56A     -0.489708    57A     -0.473331
      58A     -0.468569    59A     -0.464315    60A     -0.451262

  @DF-RHF Final Energy: -1135.81895098571272

   => Energetics <=

    Nuclear Repulsion Energy =           1216.8844209722228698
    One-Electron Energy =               -3987.1500305113772811
    Two-Electron Energy =                1634.4466585534416936
    Total Energy =                      -1135.8189509857127177
  Basis Set: (AUG-CC-PVTZ AUX)
    Blend: AUG-CC-PVTZ-RI
    Molecular point group: c1

    Geometry (in Angstrom), charge = 0, multiplicity = 1:

       Center              X                  Y                   Z               Mass
    ------------   -----------------  -----------------  -----------------  -----------------
         P            2.552797212674     0.051067594005    -0.173259364951    30.973761998420
         O           -0.709804287326    -0.513742405995    -0.814015164951    15.994914619570
         O           -3.205773787326     1.760234594005     0.202278635049    15.994914619570
         O           -3.616082787326    -0.544752405995    -0.939501364951    15.994914619570
         O           -0.984879787326    -1.689834405995     1.167321635049    15.994914619570
         O            1.442632212674     1.231027594005    -0.303856364951    15.994914619570
         O            1.682826212674    -1.291730405995    -0.340179364951    15.994914619570
         O            2.900360212674    -0.057585405995     1.407535635049    15.994914619570
         O            3.716712212674     0.292096594005    -1.048887364951    15.994914619570
         C           -2.237321787326     0.776977594005     0.558884635049    12.000000000000
         C           -0.953576787326     0.821187594005    -0.300033364951    12.000000000000
         C           -2.841446787326    -0.598262405995     0.239667635049    12.000000000000
         C           -1.595585787326    -1.401251405995    -0.067059364951    12.000000000000
         C            0.263876212674     1.200122594005     0.524456635049    12.000000000000
         H           -1.996318787326     0.836328594005     1.628252635049     1.007825032230
         H           -1.075598787326     1.503218594005    -1.146456364951     1.007825032230
         H           -3.399982787326    -1.015033405995     1.087225635049     1.007825032230
         H           -1.766448787326    -2.287048405995    -0.686264364951     1.007825032230
         H            0.382981212674     0.504583594005     1.359617635049     1.007825032230
         H            0.138899212674     2.212179594005     0.925821635049     1.007825032230
         H           -2.949647787326     2.612596594005     0.592119635049     1.007825032230
         H           -4.100974787326     0.301781594005    -0.909553364951     1.007825032230
         H           -0.100574787326    -2.066278405995     0.989570635049     1.007825032230
         H            0.848641212674    -1.074053405995    -0.836630364951     1.007825032230
         H            3.788397212674     0.314699594005     1.561529635049     1.007825032230

  Basis Set: AUG-CC-PVTZ
    Blend: AUG-CC-PVTZ
  Basis Set: (AUG-CC-PVTZ AUX)
    Blend: AUG-CC-PVTZ-JKFIT
	 Reference Energy          =   -1135.8189509857127177 [Eh]
	 Singles Energy            =      -0.0000000000000000 [Eh]
	 Same-Spin Energy          =      -0.8165590464785932 [Eh]
	 Opposite-Spin Energy      =      -2.4224925896246208 [Eh]
	 Correlation Energy        =      -3.2390516361032140 [Eh]
	 Total Energy              =   -1139.0580026218158309 [Eh]

	 ================> DF-SCS-MP2 Energies <==================
	-----------------------------------------------------------
	 SCS Same-Spin Scale       =       0.3333333333333333 [-]
	 SCS Opposite-Spin Scale   =       1.2000000000000000 [-]
	 SCS Same-Spin Energy      =      -0.2721863488261977 [Eh]
	 SCS Opposite-Spin Energy  =      -2.9069911075495449 [Eh]
	 SCS Correlation Energy    =      -3.1791774563757427 [Eh]
	 SCS Total Energy          =   -1138.9981284420885004 [Eh]
	-----------------------------------------------------------

  Dipole Moment: [D]
     X:    -3.8697      Y:     2.2804      Z:     3.9917     Total:     6.0090

*** Psi4 exiting successfully. Buy a developer a beer!
