                               Psi4 1.3.2 release

  ==> Input File <==

--------------------------------------------------------------------------
#psi4
#
memory 32 gb

molecule  {
0 1
  P        2.5956380     0.0310383    -0.1697206
  O       -0.7415730    -0.5166550    -0.8759300
  O       -3.1471200     1.7525200     0.1857420
  O       -3.5574290    -0.5524670    -0.9560380
  O       -0.9262260    -1.6975490     1.1507850
  O        1.5012860     1.2233130    -0.3203930
  O        1.7414800    -1.2994450    -0.3567160
  O        2.9590140    -0.0653000     1.3909990
  O        3.7753660     0.2843820    -1.0654240
  C       -2.1786680     0.7692630     0.5423480
  C       -0.8949230     0.8134730    -0.3165700
  C       -2.7827930    -0.6059770     0.2231310
  C       -1.5369320    -1.4089660    -0.0835960
  C        0.3225300     1.1924080     0.5079200
  H       -1.9376650     0.8286140     1.6117160
  H       -1.0169450     1.4955040    -1.1629930
  H       -3.3413290    -1.0227480     1.0706890
  H       -1.7077950    -2.2947630    -0.7028010
  H        0.4416350     0.4968690     1.3430810
  H        0.1975530     2.2044650     0.9092850
  H       -2.8909940     2.6048820     0.5755830
  H       -4.0423210     0.2940670    -0.9260900
  H       -0.0419210    -2.0739930     0.9730340
  H        0.9072950    -1.0817680    -0.8531670
  H        3.8470510     0.3069850     1.5449930
units angstrom
no_reorient  #important for SAPT in psi4, default
symmetry c1  #important for SAPT in psi4, default
}

set PROPERTIES_ORIGIN ["COM"]
properties('MP2/aug-cc-pvtz', properties = ['dipole'])
--------------------------------------------------------------------------

    Molecular point group: c1
  Charge       = 0
  Multiplicity = 1
  Basis Set: AUG-CC-PVTZ
    Blend: AUG-CC-PVTZ
  Basis Set: (AUG-CC-PVTZ AUX)
    Blend: AUG-CC-PVTZ-JKFIT

    Orbital Energies [Eh]
    ---------------------

    Doubly Occupied:

       1A    -80.115606     2A    -20.614447     3A    -20.606801
       4A    -20.605701     5A    -20.604812     6A    -20.602253
       7A    -20.596226     8A    -20.575484     9A    -20.508651
      10A    -11.363288    11A    -11.324006    12A    -11.321806
      13A    -11.318991    14A    -11.308030    15A     -7.630278
      16A     -5.528780    17A     -5.528726    18A     -5.526906
      19A     -1.466098    20A     -1.451390    21A     -1.412136
      22A     -1.394926    23A     -1.384857    24A     -1.374527
      25A     -1.369873    26A     -1.279520    27A     -1.084948
      28A     -1.047742    29A     -0.947234    30A     -0.861204
      31A     -0.844218    32A     -0.831383    33A     -0.773759
      34A     -0.760867    35A     -0.749795    36A     -0.735907
      37A     -0.722820    38A     -0.693888    39A     -0.685379
      40A     -0.668590    41A     -0.654719    42A     -0.650168
      43A     -0.634113    44A     -0.614964    45A     -0.602666
      46A     -0.597297    47A     -0.585189    48A     -0.578443
      49A     -0.570413    50A     -0.562138    51A     -0.539371
      52A     -0.534097    53A     -0.527811    54A     -0.512950
      55A     -0.491414    56A     -0.488624    57A     -0.472132
      58A     -0.463828    59A     -0.457459    60A     -0.448349

  @DF-RHF Final Energy: -1135.82116831362237

   => Energetics <=

    Nuclear Repulsion Energy =           1216.5436257470159944
    One-Electron Energy =               -3986.3135918044181381
    Two-Electron Energy =                1633.9487977437797781
    Total Energy =                      -1135.8211683136223655
  Basis Set: (AUG-CC-PVTZ AUX)
    Blend: AUG-CC-PVTZ-RI
    Molecular point group: c1

    Geometry (in Angstrom), charge = 0, multiplicity = 1:

       Center              X                  Y                   Z               Mass
    ------------   -----------------  -----------------  -----------------  -----------------
         P            2.545401286772     0.040077240266    -0.152731786204    30.973761998420
         O           -0.791809713228    -0.507616059734    -0.858941186204    15.994914619570
         O           -3.197356713228     1.761558940266     0.202730813796    15.994914619570
         O           -3.607665713228    -0.543428059734    -0.939049186204    15.994914619570
         O           -0.976462713228    -1.688510059734     1.167773813796    15.994914619570
         O            1.451049286772     1.232351940266    -0.303404186204    15.994914619570
         O            1.691243286772    -1.290406059734    -0.339727186204    15.994914619570
         O            2.908777286772    -0.056261059734     1.407987813796    15.994914619570
         O            3.725129286772     0.293420940266    -1.048435186204    15.994914619570
         C           -2.228904713228     0.778301940266     0.559336813796    12.000000000000
         C           -0.945159713228     0.822511940266    -0.299581186204    12.000000000000
         C           -2.833029713228    -0.596938059734     0.240119813796    12.000000000000
         C           -1.587168713228    -1.399927059734    -0.066607186204    12.000000000000
         C            0.272293286772     1.201446940266     0.524908813796    12.000000000000
         H           -1.987901713228     0.837652940266     1.628704813796     1.007825032230
         H           -1.067181713228     1.504542940266    -1.146004186204     1.007825032230
         H           -3.391565713228    -1.013709059734     1.087677813796     1.007825032230
         H           -1.758031713228    -2.285724059734    -0.685812186204     1.007825032230
         H            0.391398286772     0.505907940266     1.360069813796     1.007825032230
         H            0.147316286772     2.213503940266     0.926273813796     1.007825032230
         H           -2.941230713228     2.613920940266     0.592571813796     1.007825032230
         H           -4.092557713228     0.303105940266    -0.909101186204     1.007825032230
         H           -0.092157713228    -2.064954059734     0.990022813796     1.007825032230
         H            0.857058286772    -1.072729059734    -0.836178186204     1.007825032230
         H            3.796814286772     0.316023940266     1.561981813796     1.007825032230

  Basis Set: AUG-CC-PVTZ
    Blend: AUG-CC-PVTZ
  Basis Set: (AUG-CC-PVTZ AUX)
    Blend: AUG-CC-PVTZ-JKFIT
	 Reference Energy          =   -1135.8211683136223655 [Eh]
	 Singles Energy            =      -0.0000000000000000 [Eh]
	 Same-Spin Energy          =      -0.8165436576612568 [Eh]
	 Opposite-Spin Energy      =      -2.4221104187192886 [Eh]
	 Correlation Energy        =      -3.2386540763805454 [Eh]
	 Total Energy              =   -1139.0598223900028643 [Eh]

	 ================> DF-SCS-MP2 Energies <==================
	-----------------------------------------------------------
	 SCS Same-Spin Scale       =       0.3333333333333333 [-]
	 SCS Opposite-Spin Scale   =       1.2000000000000000 [-]
	 SCS Same-Spin Energy      =      -0.2721812192204189 [Eh]
	 SCS Opposite-Spin Energy  =      -2.9065325024631461 [Eh]
	 SCS Correlation Energy    =      -3.1787137216835650 [Eh]
	 SCS Total Energy          =   -1138.9998820353059727 [Eh]
	-----------------------------------------------------------

  Dipole Moment: [D]
     X:    -3.6809      Y:     2.1856      Z:     4.2280     Total:     6.0168

*** Psi4 exiting successfully. Buy a developer a beer!
