                               Psi4 1.3.2 release

  ==> Input File <==

--------------------------------------------------------------------------
#psi4
#
memory 32 gb

molecule  {
0 1
  P        2.5116726    -0.0250166    -0.0701537
  O       -0.7415730    -0.5166550    -0.8759300
  O       -3.1471200     1.7525200     0.1857420
  O       -3.5574290    -0.5524670    -0.9560380
  O       -0.9262260    -1.6975490     1.1507850
  O        1.5012860     1.2233130    -0.3203930
  O        1.7414800    -1.2994450    -0.3567160
  O        2.9590140    -0.0653000     1.3909990
  O        3.7753660     0.2843820    -1.0654240
  C       -2.1786680     0.7692630     0.5423480
  C       -0.8949230     0.8134730    -0.3165700
  C       -2.7827930    -0.6059770     0.2231310
  C       -1.5369320    -1.4089660    -0.0835960
  C        0.3225300     1.1924080     0.5079200
  H       -1.9376650     0.8286140     1.6117160
  H       -1.0169450     1.4955040    -1.1629930
  H       -3.3413290    -1.0227480     1.0706890
  H       -1.7077950    -2.2947630    -0.7028010
  H        0.4416350     0.4968690     1.3430810
  H        0.1975530     2.2044650     0.9092850
  H       -2.8909940     2.6048820     0.5755830
  H       -4.0423210     0.2940670    -0.9260900
  H       -0.0419210    -2.0739930     0.9730340
  H        0.9072950    -1.0817680    -0.8531670
  H        3.8470510     0.3069850     1.5449930
units angstrom
no_reorient  #important for SAPT in psi4, default
symmetry c1  #important for SAPT in psi4, default
}

set PROPERTIES_ORIGIN ["COM"]
properties('MP2/aug-cc-pvtz', properties = ['dipole'])
--------------------------------------------------------------------------

    Molecular point group: c1
  Charge       = 0
  Multiplicity = 1
  Basis Set: AUG-CC-PVTZ
    Blend: AUG-CC-PVTZ
  Basis Set: (AUG-CC-PVTZ AUX)
    Blend: AUG-CC-PVTZ-JKFIT

    Orbital Energies [Eh]
    ---------------------

    Doubly Occupied:

       1A    -80.115272     2A    -20.628832     3A    -20.620264
       4A    -20.611629     5A    -20.609920     6A    -20.609676
       7A    -20.603511     8A    -20.578904     9A    -20.477117
      10A    -11.368882    11A    -11.327803    12A    -11.325467
      13A    -11.323334    14A    -11.312187    15A     -7.631503
      16A     -5.530343    17A     -5.529806    18A     -5.527347
      19A     -1.491082    20A     -1.463146    21A     -1.426785
      22A     -1.415456    23A     -1.403696    24A     -1.379913
      25A     -1.374875    26A     -1.200102    27A     -1.088999
      28A     -1.051966    29A     -0.950223    30A     -0.885162
      31A     -0.853134    32A     -0.838342    33A     -0.786499
      34A     -0.773043    35A     -0.762182    36A     -0.745757
      37A     -0.742634    38A     -0.701255    39A     -0.691708
      40A     -0.676870    41A     -0.664764    42A     -0.662439
      43A     -0.640831    44A     -0.622521    45A     -0.613664
      46A     -0.607850    47A     -0.603809    48A     -0.589835
      49A     -0.575385    50A     -0.569355    51A     -0.543678
      52A     -0.536747    53A     -0.518341    54A     -0.497318
      55A     -0.493446    56A     -0.488551    57A     -0.475924
      58A     -0.459389    59A     -0.406479    60A     -0.405463

  @DF-RHF Final Energy: -1135.78094378889182

   => Energetics <=

    Nuclear Repulsion Energy =           1219.9560159930592818
    One-Electron Energy =               -3992.6530827543952000
    Two-Electron Energy =                1636.9161229724441000
    Total Energy =                      -1135.7809437888918183
  Basis Set: (AUG-CC-PVTZ AUX)
    Blend: AUG-CC-PVTZ-RI
    Molecular point group: c1

    Geometry (in Angstrom), charge = 0, multiplicity = 1:

       Center              X                  Y                   Z               Mass
    ------------   -----------------  -----------------  -----------------  -----------------
         P            2.472742442191    -0.008429457339    -0.066572297743    30.973761998420
         O           -0.780503157809    -0.500067857339    -0.872348597743    15.994914619570
         O           -3.186050157809     1.769107142661     0.189323402257    15.994914619570
         O           -3.596359157809    -0.535879857339    -0.952456597743    15.994914619570
         O           -0.965156157809    -1.680961857339     1.154366402257    15.994914619570
         O            1.462355842191     1.239900142661    -0.316811597743    15.994914619570
         O            1.702549842191    -1.282857857339    -0.353134597743    15.994914619570
         O            2.920083842191    -0.048712857339     1.394580402257    15.994914619570
         O            3.736435842191     0.300969142661    -1.061842597743    15.994914619570
         C           -2.217598157809     0.785850142661     0.545929402257    12.000000000000
         C           -0.933853157809     0.830060142661    -0.312988597743    12.000000000000
         C           -2.821723157809    -0.589389857339     0.226712402257    12.000000000000
         C           -1.575862157809    -1.392378857339    -0.080014597743    12.000000000000
         C            0.283599842191     1.208995142661     0.511501402257    12.000000000000
         H           -1.976595157809     0.845201142661     1.615297402257     1.007825032230
         H           -1.055875157809     1.512091142661    -1.159411597743     1.007825032230
         H           -3.380259157809    -1.006160857339     1.074270402257     1.007825032230
         H           -1.746725157809    -2.278175857339    -0.699219597743     1.007825032230
         H            0.402704842191     0.513456142661     1.346662402257     1.007825032230
         H            0.158622842191     2.221052142661     0.912866402257     1.007825032230
         H           -2.929924157809     2.621469142661     0.579164402257     1.007825032230
         H           -4.081251157809     0.310654142661    -0.922508597743     1.007825032230
         H           -0.080851157809    -2.057405857339     0.976615402257     1.007825032230
         H            0.868364842191    -1.065180857339    -0.849585597743     1.007825032230
         H            3.808120842191     0.323572142661     1.548574402257     1.007825032230

  Basis Set: AUG-CC-PVTZ
    Blend: AUG-CC-PVTZ
  Basis Set: (AUG-CC-PVTZ AUX)
    Blend: AUG-CC-PVTZ-JKFIT
	 Reference Energy          =   -1135.7809437888918183 [Eh]
	 Singles Energy            =      -0.0000000000000000 [Eh]
	 Same-Spin Energy          =      -0.8178828866983867 [Eh]
	 Opposite-Spin Energy      =      -2.4238522331574286 [Eh]
	 Correlation Energy        =      -3.2417351198558153 [Eh]
	 Total Energy              =   -1139.0226789087475936 [Eh]

	 ================> DF-SCS-MP2 Energies <==================
	-----------------------------------------------------------
	 SCS Same-Spin Scale       =       0.3333333333333333 [-]
	 SCS Opposite-Spin Scale   =       1.2000000000000000 [-]
	 SCS Same-Spin Energy      =      -0.2726276288994622 [Eh]
	 SCS Opposite-Spin Energy  =      -2.9086226797889143 [Eh]
	 SCS Correlation Energy    =      -3.1812503086883765 [Eh]
	 SCS Total Energy          =   -1138.9621940975800953 [Eh]
	-----------------------------------------------------------

  Dipole Moment: [D]
     X:    -4.7928      Y:     1.6783      Z:     5.2150     Total:     7.2790

*** Psi4 exiting successfully. Buy a developer a beer!
