                               Psi4 1.4a3.dev225

  ==> Input File <==

--------------------------------------------------------------------------
#psi4
#
memory 32 gb

molecule  {
0 1
  P        2.6113660     0.0433910    -0.1897900
  O       -0.7416560    -0.5164190    -0.8762010
  O       -3.1473860     1.7523070     0.1855430
  O       -3.5574330    -0.5529450    -0.9556820
  O       -0.9255690    -1.6972900     1.1506350
  O        1.5012550     1.2233910    -0.3202530
  O        1.7411940    -1.2993510    -0.3564950
  O        2.9591660    -0.0655390     1.3909200
  O        3.7751240     0.2843830    -1.0656400
  C       -2.1787050     0.7693270     0.5422590
  C       -0.8949630     0.8136090    -0.3166340
  C       -2.7825860    -0.6061320     0.2233240
  C       -1.5255546    -1.3964698    -0.0946157
  C        0.3224410     1.1924200     0.5080110
  H       -1.9377070     0.8289040     1.6116220
  H       -1.0168440     1.4957790    -1.1629650
  H       -3.3408870    -1.0228010     1.0710960
  H       -1.7074320    -2.2947510    -0.7027390
  H        0.4414920     0.4968360     1.3431340
  H        0.1974400     2.2044510     0.9094280
  H       -2.8916000     2.6047160     0.5754970
  H       -4.0429610     0.2932130    -0.9254450
  H       -0.0410590    -2.0731950     0.9726900
  H        0.9073710    -1.0816890    -0.8535130
  H        3.8468470     0.3075270     1.5450430
units angstrom
no_reorient  #important for SAPT in psi4, default
symmetry c1  #important for SAPT in psi4, default
}

set PROPERTIES_ORIGIN ["COM"]
properties('MP2/aug-cc-pvtz', properties = ['dipole'])
--------------------------------------------------------------------------

    Molecular point group: c1
  Charge       = 0
  Multiplicity = 1
  Basis Set: AUG-CC-PVTZ
    Blend: AUG-CC-PVTZ
  Basis Set: (AUG-CC-PVTZ AUX)
    Blend: AUG-CC-PVTZ-JKFIT

    Orbital Energies [Eh]
    ---------------------

    Doubly Occupied:

       1A    -80.115426     2A    -20.611533     3A    -20.606446
       4A    -20.606320     5A    -20.605728     6A    -20.599131
       7A    -20.592716     8A    -20.574498     9A    -20.515016
      10A    -11.361396    11A    -11.323352    12A    -11.322034
      13A    -11.319544    14A    -11.306679    15A     -7.630379
      16A     -5.528799    17A     -5.528717    18A     -5.527215
      19A     -1.465951    20A     -1.449753    21A     -1.411426
      22A     -1.390970    23A     -1.378752    24A     -1.372844
      25A     -1.369456    26A     -1.296365    27A     -1.085774
      28A     -1.046346    29A     -0.946547    30A     -0.858141
      31A     -0.843345    32A     -0.828916    33A     -0.772241
      34A     -0.758031    35A     -0.748561    36A     -0.734824
      37A     -0.717215    38A     -0.693381    39A     -0.685062
      40A     -0.667209    41A     -0.653491    42A     -0.648180
      43A     -0.633335    44A     -0.613623    45A     -0.601459
      46A     -0.596334    47A     -0.582677    48A     -0.577664
      49A     -0.570242    50A     -0.560632    51A     -0.543651
      52A     -0.531997    53A     -0.527336    54A     -0.512039
      55A     -0.490132    56A     -0.488071    57A     -0.475445
      58A     -0.469205    59A     -0.465944    60A     -0.451007

  @DF-RHF Final Energy: -1135.82265194528645

   => Energetics <=

    Nuclear Repulsion Energy =           1216.2739909280753636
    One-Electron Energy =               -3985.8162757130257887
    Two-Electron Energy =                1633.7196328396639728
    Total Energy =                      -1135.8226519452864522
  Basis Set: (AUG-CC-PVTZ AUX)
    Blend: AUG-CC-PVTZ-RI
    Molecular point group: c1

    Geometry (in Angstrom), charge = 0, multiplicity = 1:

       Center              X                  Y                   Z               Mass
    ------------   -----------------  -----------------  -----------------  -----------------
         P            2.558422445224     0.050126044407    -0.169519137103    30.973761998420
         O           -0.794599554776    -0.509683955593    -0.855930137103    15.994914619570
         O           -3.200329554776     1.759042044407     0.205813862897    15.994914619570
         O           -3.610376554776    -0.546209955593    -0.935411137103    15.994914619570
         O           -0.978512554776    -1.690554955593     1.170905862897    15.994914619570
         O            1.448311445224     1.230126044407    -0.299982137103    15.994914619570
         O            1.688250445224    -1.292615955593    -0.336224137103    15.994914619570
         O            2.906222445224    -0.058803955593     1.411190862897    15.994914619570
         O            3.722180445224     0.291118044407    -1.045369137103    15.994914619570
         C           -2.231648554776     0.776062044407     0.562529862897    12.000000000000
         C           -0.947906554776     0.820344044407    -0.296363137103    12.000000000000
         C           -2.835529554776    -0.599396955593     0.243594862897    12.000000000000
         C           -1.578498154776    -1.389734755593    -0.074344837103    12.000000000000
         C            0.269497445224     1.199155044407     0.528281862897    12.000000000000
         H           -1.990650554776     0.835639044407     1.631892862897     1.007825032230
         H           -1.069787554776     1.502514044407    -1.142694137103     1.007825032230
         H           -3.393830554776    -1.016065955593     1.091366862897     1.007825032230
         H           -1.760375554776    -2.288015955593    -0.682468137103     1.007825032230
         H            0.388548445224     0.503571044407     1.363404862897     1.007825032230
         H            0.144496445224     2.211186044407     0.929698862897     1.007825032230
         H           -2.944543554776     2.611451044407     0.595767862897     1.007825032230
         H           -4.095904554776     0.299948044407    -0.905174137103     1.007825032230
         H           -0.094002554776    -2.066459955593     0.992960862897     1.007825032230
         H            0.854427445224    -1.074953955593    -0.833242137103     1.007825032230
         H            3.793903445224     0.314262044407     1.565313862897     1.007825032230

  Basis Set: AUG-CC-PVTZ
    Blend: AUG-CC-PVTZ
  Basis Set: (AUG-CC-PVTZ AUX)
    Blend: AUG-CC-PVTZ-JKFIT
	 Reference Energy          =   -1135.8226519452864522 [Eh]
	 Singles Energy            =      -0.0000000000000000 [Eh]
	 Same-Spin Energy          =      -0.8162591181897217 [Eh]
	 Opposite-Spin Energy      =      -2.4217336826520448 [Eh]
	 Correlation Energy        =      -3.2379928008417664 [Eh]
	 Total Energy              =   -1139.0606447461282187 [Eh]

	 ================> DF-SCS-MP2 Energies <==================
	-----------------------------------------------------------
	 SCS Same-Spin Scale       =       0.3333333333333333 [-]
	 SCS Opposite-Spin Scale   =       1.2000000000000000 [-]
	 SCS Same-Spin Energy      =      -0.2720863727299072 [Eh]
	 SCS Opposite-Spin Energy  =      -2.9060804191824539 [Eh]
	 SCS Correlation Energy    =      -3.1781667919123611 [Eh]
	 SCS Total Energy          =   -1139.0008187371988697 [Eh]
	-----------------------------------------------------------

  Dipole Moment: [D]
     X:    -3.4351      Y:     2.3729      Z:     3.9836     Total:     5.7706

*** Psi4 exiting successfully. Buy a developer a beer!
