                               Psi4 1.3.2 release

  ==> Input File <==

--------------------------------------------------------------------------
#psi4
#
memory 32 gb

molecule  {
0 1
  P        2.6114510     0.0433530    -0.1897960
  O       -0.7415730    -0.5166550    -0.8759300
  O       -3.1471200     1.7525200     0.1857420
  O       -3.5229859    -0.5793315    -0.9788541
  O       -0.9262260    -1.6975490     1.1507850
  O        1.5012860     1.2233130    -0.3203930
  O        1.7414800    -1.2994450    -0.3567160
  O        2.9590140    -0.0653000     1.3909990
  O        3.7753660     0.2843820    -1.0654240
  C       -2.1786680     0.7692630     0.5423480
  C       -0.8949230     0.8134730    -0.3165700
  C       -2.7827930    -0.6059770     0.2231310
  C       -1.5369320    -1.4089660    -0.0835960
  C        0.3225300     1.1924080     0.5079200
  H       -1.9376650     0.8286140     1.6117160
  H       -1.0169450     1.4955040    -1.1629930
  H       -3.3413290    -1.0227480     1.0706890
  H       -1.7077950    -2.2947630    -0.7028010
  H        0.4416350     0.4968690     1.3430810
  H        0.1975530     2.2044650     0.9092850
  H       -2.8909940     2.6048820     0.5755830
  H       -4.0423210     0.2940670    -0.9260900
  H       -0.0419210    -2.0739930     0.9730340
  H        0.9072950    -1.0817680    -0.8531670
  H        3.8470510     0.3069850     1.5449930
units angstrom
no_reorient  #important for SAPT in psi4, default
symmetry c1  #important for SAPT in psi4, default
}

set PROPERTIES_ORIGIN ["COM"]
properties('MP2/aug-cc-pvtz', properties = ['dipole'])
--------------------------------------------------------------------------

    Molecular point group: c1
  Charge       = 0
  Multiplicity = 1
  Basis Set: AUG-CC-PVTZ
    Blend: AUG-CC-PVTZ
  Basis Set: (AUG-CC-PVTZ AUX)
    Blend: AUG-CC-PVTZ-JKFIT

    Orbital Energies [Eh]
    ---------------------

    Doubly Occupied:

       1A    -80.114727     2A    -20.611000     3A    -20.606987
       4A    -20.604911     5A    -20.602754     6A    -20.598116
       7A    -20.593629     8A    -20.579301     9A    -20.514406
      10A    -11.360761    11A    -11.323603    12A    -11.321102
      13A    -11.318025    14A    -11.306479    15A     -7.629677
      16A     -5.528099    17A     -5.528014    18A     -5.526515
      19A     -1.462654    20A     -1.447791    21A     -1.410722
      22A     -1.390419    23A     -1.377880    24A     -1.371426
      25A     -1.365214    26A     -1.295740    27A     -1.083775
      28A     -1.044744    29A     -0.946332    30A     -0.857803
      31A     -0.840570    32A     -0.827765    33A     -0.771409
      34A     -0.756060    35A     -0.747560    36A     -0.734132
      37A     -0.716554    38A     -0.692340    39A     -0.683576
      40A     -0.662857    41A     -0.652390    42A     -0.646728
      43A     -0.632965    44A     -0.612647    45A     -0.600992
      46A     -0.595552    47A     -0.581765    48A     -0.576724
      49A     -0.569348    50A     -0.559251    51A     -0.543149
      52A     -0.531592    53A     -0.526219    54A     -0.512361
      55A     -0.490057    56A     -0.487406    57A     -0.474913
      58A     -0.469335    59A     -0.465835    60A     -0.450001

  @DF-RHF Final Energy: -1135.81778111146991

   => Energetics <=

    Nuclear Repulsion Energy =           1216.1205226488002609
    One-Electron Energy =               -3985.6072839251396545
    Two-Electron Energy =                1633.6689801648692537
    Total Energy =                      -1135.8177811114699125
  Basis Set: (AUG-CC-PVTZ AUX)
    Blend: AUG-CC-PVTZ-RI
    Molecular point group: c1

    Geometry (in Angstrom), charge = 0, multiplicity = 1:

       Center              X                  Y                   Z               Mass
    ------------   -----------------  -----------------  -----------------  -----------------
         P            2.556689869902     0.052601761039    -0.168517316363    30.973761998420
         O           -0.796334130098    -0.507406238961    -0.854651316363    15.994914619570
         O           -3.201881130098     1.761768761039     0.207020683637    15.994914619570
         O           -3.577747030098    -0.570082738961    -0.957575416363    15.994914619570
         O           -0.980987130098    -1.688300238961     1.172063683637    15.994914619570
         O            1.446524869902     1.232561761039    -0.299114316363    15.994914619570
         O            1.686718869902    -1.290196238961    -0.335437316363    15.994914619570
         O            2.904252869902    -0.056051238961     1.412277683637    15.994914619570
         O            3.720604869902     0.293630761039    -1.044145316363    15.994914619570
         C           -2.233429130098     0.778511761039     0.563626683637    12.000000000000
         C           -0.949684130098     0.822721761039    -0.295291316363    12.000000000000
         C           -2.837554130098    -0.596728238961     0.244409683637    12.000000000000
         C           -1.591693130098    -1.399717238961    -0.062317316363    12.000000000000
         C            0.267768869902     1.201656761039     0.529198683637    12.000000000000
         H           -1.992426130098     0.837862761039     1.632994683637     1.007825032230
         H           -1.071706130098     1.504752761039    -1.141714316363     1.007825032230
         H           -3.396090130098    -1.013499238961     1.091967683637     1.007825032230
         H           -1.762556130098    -2.285514238961    -0.681522316363     1.007825032230
         H            0.386873869902     0.506117761039     1.364359683637     1.007825032230
         H            0.142791869902     2.213713761039     0.930563683637     1.007825032230
         H           -2.945755130098     2.614130761039     0.596861683637     1.007825032230
         H           -4.097082130098     0.303315761039    -0.904811316363     1.007825032230
         H           -0.096682130098    -2.064744238961     0.994312683637     1.007825032230
         H            0.852533869902    -1.072519238961    -0.831888316363     1.007825032230
         H            3.792289869902     0.316233761039     1.566271683637     1.007825032230

  Basis Set: AUG-CC-PVTZ
    Blend: AUG-CC-PVTZ
  Basis Set: (AUG-CC-PVTZ AUX)
    Blend: AUG-CC-PVTZ-JKFIT
	 Reference Energy          =   -1135.8177811114699125 [Eh]
	 Singles Energy            =      -0.0000000000000000 [Eh]
	 Same-Spin Energy          =      -0.8169926610167386 [Eh]
	 Opposite-Spin Energy      =      -2.4235022360562879 [Eh]
	 Correlation Energy        =      -3.2404948970730265 [Eh]
	 Total Energy              =   -1139.0582760085428617 [Eh]

	 ================> DF-SCS-MP2 Energies <==================
	-----------------------------------------------------------
	 SCS Same-Spin Scale       =       0.3333333333333333 [-]
	 SCS Opposite-Spin Scale   =       1.2000000000000000 [-]
	 SCS Same-Spin Energy      =      -0.2723308870055795 [Eh]
	 SCS Opposite-Spin Energy  =      -2.9082026832675454 [Eh]
	 SCS Correlation Energy    =      -3.1805335702731248 [Eh]
	 SCS Total Energy          =   -1138.9983146817430679 [Eh]
	-----------------------------------------------------------

  Dipole Moment: [D]
     X:    -3.5643      Y:     2.3372      Z:     4.0538     Total:     5.8822

*** Psi4 exiting successfully. Buy a developer a beer!
