                               Psi4 1.3.2 release

  ==> Input File <==

--------------------------------------------------------------------------
#psi4
#
memory 32 gb

molecule  {
0 1
  P        2.6114510     0.0433530    -0.1897960
  O       -0.7415730    -0.5166550    -0.8759300
  O       -3.1471200     1.7525200     0.1857420
  O       -3.5574290    -0.5524670    -0.9560380
  O       -0.9262260    -1.6975490     1.1507850
  O        1.5012860     1.2233130    -0.3203930
  O        1.7414800    -1.2994450    -0.3567160
  O        2.9590140    -0.0653000     1.3909990
  O        3.7753660     0.2843820    -1.0654240
  C       -2.1786680     0.7692630     0.5423480
  C       -0.8949230     0.8134730    -0.3165700
  C       -2.7917213    -0.5839806     0.2297370
  C       -1.5369320    -1.4089660    -0.0835960
  C        0.3225300     1.1924080     0.5079200
  H       -1.9376650     0.8286140     1.6117160
  H       -1.0169450     1.4955040    -1.1629930
  H       -3.3413290    -1.0227480     1.0706890
  H       -1.7077950    -2.2947630    -0.7028010
  H        0.4416350     0.4968690     1.3430810
  H        0.1975530     2.2044650     0.9092850
  H       -2.8909940     2.6048820     0.5755830
  H       -4.0423210     0.2940670    -0.9260900
  H       -0.0419210    -2.0739930     0.9730340
  H        0.9072950    -1.0817680    -0.8531670
  H        3.8470510     0.3069850     1.5449930
units angstrom
no_reorient  #important for SAPT in psi4, default
symmetry c1  #important for SAPT in psi4, default
}

set PROPERTIES_ORIGIN ["COM"]
properties('MP2/aug-cc-pvtz', properties = ['dipole'])
--------------------------------------------------------------------------

    Molecular point group: c1
  Charge       = 0
  Multiplicity = 1
  Basis Set: AUG-CC-PVTZ
    Blend: AUG-CC-PVTZ
  Basis Set: (AUG-CC-PVTZ AUX)
    Blend: AUG-CC-PVTZ-JKFIT

    Orbital Energies [Eh]
    ---------------------

    Doubly Occupied:

       1A    -80.114987     2A    -20.611221     3A    -20.606257
       4A    -20.605229     5A    -20.603270     6A    -20.598423
       7A    -20.594282     8A    -20.575358     9A    -20.514636
      10A    -11.362397    11A    -11.323001    12A    -11.321453
      13A    -11.318536    14A    -11.306878    15A     -7.629937
      16A     -5.528358    17A     -5.528274    18A     -5.526774
      19A     -1.462835    20A     -1.448008    21A     -1.412100
      22A     -1.390707    23A     -1.378180    24A     -1.373720
      25A     -1.368524    26A     -1.295970    27A     -1.085564
      28A     -1.045411    29A     -0.945821    30A     -0.858436
      31A     -0.841344    32A     -0.829724    33A     -0.772076
      34A     -0.758476    35A     -0.747522    36A     -0.734568
      37A     -0.716862    38A     -0.692694    39A     -0.684290
      40A     -0.666948    41A     -0.653190    42A     -0.647561
      43A     -0.632343    44A     -0.614074    45A     -0.600988
      46A     -0.596312    47A     -0.582026    48A     -0.577073
      49A     -0.570302    50A     -0.559943    51A     -0.543395
      52A     -0.532079    53A     -0.526812    54A     -0.512487
      55A     -0.491285    56A     -0.487159    57A     -0.474875
      58A     -0.468535    59A     -0.465319    60A     -0.451707

  @DF-RHF Final Energy: -1135.82191603227238

   => Energetics <=

    Nuclear Repulsion Energy =           1215.8800167905476428
    One-Electron Energy =               -3985.0708276259069862
    Two-Electron Energy =                1633.3688948030867323
    Total Energy =                      -1135.8219160322723837
  Basis Set: (AUG-CC-PVTZ AUX)
    Blend: AUG-CC-PVTZ-RI
    Molecular point group: c1

    Geometry (in Angstrom), charge = 0, multiplicity = 1:

       Center              X                  Y                   Z               Mass
    ------------   -----------------  -----------------  -----------------  -----------------
         P            2.559550736188     0.049586133120    -0.170448518887    30.973761998420
         O           -0.793473263812    -0.510421866880    -0.856582518887    15.994914619570
         O           -3.199020263812     1.758753133120     0.205089481113    15.994914619570
         O           -3.609329263812    -0.546233866880    -0.936690518887    15.994914619570
         O           -0.978126263812    -1.691315866880     1.170132481113    15.994914619570
         O            1.449385736188     1.229546133120    -0.301045518887    15.994914619570
         O            1.689579736188    -1.293211866880    -0.337368518887    15.994914619570
         O            2.907113736188    -0.059066866880     1.410346481113    15.994914619570
         O            3.723465736188     0.290615133120    -1.046076518887    15.994914619570
         C           -2.230568263812     0.775496133120     0.561695481113    12.000000000000
         C           -0.946823263812     0.819706133120    -0.297222518887    12.000000000000
         C           -2.843621563812    -0.577747466880     0.249084481113    12.000000000000
         C           -1.588832263812    -1.402732866880    -0.064248518887    12.000000000000
         C            0.270629736188     1.198641133120     0.527267481113    12.000000000000
         H           -1.989565263812     0.834847133120     1.631063481113     1.007825032230
         H           -1.068845263812     1.501737133120    -1.143645518887     1.007825032230
         H           -3.393229263812    -1.016514866880     1.090036481113     1.007825032230
         H           -1.759695263812    -2.288529866880    -0.683453518887     1.007825032230
         H            0.389734736188     0.503102133120     1.362428481113     1.007825032230
         H            0.145652736188     2.210698133120     0.928632481113     1.007825032230
         H           -2.942894263812     2.611115133120     0.594930481113     1.007825032230
         H           -4.094221263812     0.300300133120    -0.906742518887     1.007825032230
         H           -0.093821263812    -2.067759866880     0.992381481113     1.007825032230
         H            0.855394736188    -1.075534866880    -0.833819518887     1.007825032230
         H            3.795150736188     0.313218133120     1.564340481113     1.007825032230

  Basis Set: AUG-CC-PVTZ
    Blend: AUG-CC-PVTZ
  Basis Set: (AUG-CC-PVTZ AUX)
    Blend: AUG-CC-PVTZ-JKFIT
	 Reference Energy          =   -1135.8219160322723837 [Eh]
	 Singles Energy            =      -0.0000000000000000 [Eh]
	 Same-Spin Energy          =      -0.8163229651774147 [Eh]
	 Opposite-Spin Energy      =      -2.4220117576743605 [Eh]
	 Correlation Energy        =      -3.2383347228517749 [Eh]
	 Total Energy              =   -1139.0602507551241160 [Eh]

	 ================> DF-SCS-MP2 Energies <==================
	-----------------------------------------------------------
	 SCS Same-Spin Scale       =       0.3333333333333333 [-]
	 SCS Opposite-Spin Scale   =       1.2000000000000000 [-]
	 SCS Same-Spin Energy      =      -0.2721076550591382 [Eh]
	 SCS Opposite-Spin Energy  =      -2.9064141092092326 [Eh]
	 SCS Correlation Energy    =      -3.1785217642683707 [Eh]
	 SCS Total Energy          =   -1139.0004377965408366 [Eh]
	-----------------------------------------------------------

  Dipole Moment: [D]
     X:    -3.4780      Y:     2.3121      Z:     4.0297     Total:     5.8036

*** Psi4 exiting successfully. Buy a developer a beer!
