                               Psi4 1.4a3.dev225

  ==> Input File <==

--------------------------------------------------------------------------
#psi4
#
memory 32 gb

molecule  {
0 1
  P        2.6113660     0.0433910    -0.1897900
  O       -0.7416560    -0.5164190    -0.8762010
  O       -3.1473860     1.7523070     0.1855430
  O       -3.5574330    -0.5529450    -0.9556820
  O       -0.9255690    -1.6972900     1.1506350
  O        1.5012550     1.2233910    -0.3202530
  O        1.7411940    -1.2993510    -0.3564950
  O        2.9591660    -0.0655390     1.3909200
  O        3.7751240     0.2843830    -1.0656400
  C       -2.1787050     0.7693270     0.5422590
  C       -0.8949630     0.8136090    -0.3166340
  C       -2.7825860    -0.6061320     0.2233240
  C       -1.5366410    -1.4089160    -0.0835620
  C        0.3224410     1.1924200     0.5080110
  H       -1.9377070     0.8289040     1.6116220
  H       -1.0168440     1.4957790    -1.1629650
  H       -3.3408870    -1.0228010     1.0710960
  H       -1.7105538    -2.3109426    -0.7140565
  H        0.4414920     0.4968360     1.3431340
  H        0.1974400     2.2044510     0.9094280
  H       -2.8916000     2.6047160     0.5754970
  H       -4.0429610     0.2932130    -0.9254450
  H       -0.0410590    -2.0731950     0.9726900
  H        0.9073710    -1.0816890    -0.8535130
  H        3.8468470     0.3075270     1.5450430
units angstrom
no_reorient  #important for SAPT in psi4, default
symmetry c1  #important for SAPT in psi4, default
}

set PROPERTIES_ORIGIN ["COM"]
properties('MP2/aug-cc-pvtz', properties = ['dipole'])
--------------------------------------------------------------------------

    Molecular point group: c1
  Charge       = 0
  Multiplicity = 1
  Basis Set: AUG-CC-PVTZ
    Blend: AUG-CC-PVTZ
  Basis Set: (AUG-CC-PVTZ AUX)
    Blend: AUG-CC-PVTZ-JKFIT

    Orbital Energies [Eh]
    ---------------------

    Doubly Occupied:

       1A    -80.114999     2A    -20.611251     3A    -20.606285
       4A    -20.605156     5A    -20.603663     6A    -20.598514
       7A    -20.595079     8A    -20.574808     9A    -20.514647
      10A    -11.364393    11A    -11.323404    12A    -11.321339
      13A    -11.318302    14A    -11.307380    15A     -7.629950
      16A     -5.528370    17A     -5.528288    18A     -5.526787
      19A     -1.463207    20A     -1.448307    21A     -1.411479
      22A     -1.390738    23A     -1.378239    24A     -1.373686
      25A     -1.368756    26A     -1.295982    27A     -1.084262
      28A     -1.046647    29A     -0.945937    30A     -0.857729
      31A     -0.841816    32A     -0.828312    33A     -0.771677
      34A     -0.759282    35A     -0.746842    36A     -0.734132
      37A     -0.716783    38A     -0.692815    39A     -0.684412
      40A     -0.666383    41A     -0.652911    42A     -0.647634
      43A     -0.632818    44A     -0.613722    45A     -0.600926
      46A     -0.596192    47A     -0.582047    48A     -0.577535
      49A     -0.569847    50A     -0.560118    51A     -0.543388
      52A     -0.531889    53A     -0.527024    54A     -0.511961
      55A     -0.489415    56A     -0.487917    57A     -0.475128
      58A     -0.469227    59A     -0.465814    60A     -0.450532

  @DF-RHF Final Energy: -1135.82202592789258

   => Energetics <=

    Nuclear Repulsion Energy =           1215.8081038051050200
    One-Electron Energy =               -3984.9280898043880370
    Two-Electron Energy =                1633.2979600713904347
    Total Energy =                      -1135.8220259278925823
  Basis Set: (AUG-CC-PVTZ AUX)
    Blend: AUG-CC-PVTZ-RI
    Molecular point group: c1

    Geometry (in Angstrom), charge = 0, multiplicity = 1:

       Center              X                  Y                   Z               Mass
    ------------   -----------------  -----------------  -----------------  -----------------
         P            2.559014496040     0.050846300511    -0.170046216426    30.973761998420
         O           -0.794007503960    -0.508963699489    -0.856457216426    15.994914619570
         O           -3.199737503960     1.759762300511     0.205286783574    15.994914619570
         O           -3.609784503960    -0.545489699489    -0.935938216426    15.994914619570
         O           -0.977920503960    -1.689834699489     1.170378783574    15.994914619570
         O            1.448903496040     1.230846300511    -0.300509216426    15.994914619570
         O            1.688842496040    -1.291895699489    -0.336751216426    15.994914619570
         O            2.906814496040    -0.058083699489     1.410663783574    15.994914619570
         O            3.722772496040     0.291838300511    -1.045896216426    15.994914619570
         C           -2.231056503960     0.776782300511     0.562002783574    12.000000000000
         C           -0.947314503960     0.821064300511    -0.296890216426    12.000000000000
         C           -2.834937503960    -0.598676699489     0.243067783574    12.000000000000
         C           -1.588992503960    -1.401460699489    -0.063818216426    12.000000000000
         C            0.270089496040     1.199875300511     0.527754783574    12.000000000000
         H           -1.990058503960     0.836359300511     1.631365783574     1.007825032230
         H           -1.069195503960     1.503234300511    -1.143221216426     1.007825032230
         H           -3.393238503960    -1.015345699489     1.090839783574     1.007825032230
         H           -1.762905303960    -2.303487299489    -0.694312716426     1.007825032230
         H            0.389140496040     0.504291300511     1.362877783574     1.007825032230
         H            0.145088496040     2.211906300511     0.929171783574     1.007825032230
         H           -2.943951503960     2.612171300511     0.595240783574     1.007825032230
         H           -4.095312503960     0.300668300511    -0.905701216426     1.007825032230
         H           -0.093410503960    -2.065739699489     0.992433783574     1.007825032230
         H            0.855019496040    -1.074233699489    -0.833769216426     1.007825032230
         H            3.794495496040     0.314982300511     1.564786783574     1.007825032230

  Basis Set: AUG-CC-PVTZ
    Blend: AUG-CC-PVTZ
  Basis Set: (AUG-CC-PVTZ AUX)
    Blend: AUG-CC-PVTZ-JKFIT
	 Reference Energy          =   -1135.8220259278925823 [Eh]
	 Singles Energy            =      -0.0000000000000000 [Eh]
	 Same-Spin Energy          =      -0.8163265331231638 [Eh]
	 Opposite-Spin Energy      =      -2.4220247815203226 [Eh]
	 Correlation Energy        =      -3.2383513146434866 [Eh]
	 Total Energy              =   -1139.0603772425361058 [Eh]

	 ================> DF-SCS-MP2 Energies <==================
	-----------------------------------------------------------
	 SCS Same-Spin Scale       =       0.3333333333333333 [-]
	 SCS Opposite-Spin Scale   =       1.2000000000000000 [-]
	 SCS Same-Spin Energy      =      -0.2721088443743879 [Eh]
	 SCS Opposite-Spin Energy  =      -2.9064297378243871 [Eh]
	 SCS Correlation Energy    =      -3.1785385821987751 [Eh]
	 SCS Total Energy          =   -1139.0005645100914080 [Eh]
	-----------------------------------------------------------

  Dipole Moment: [D]
     X:    -3.4787      Y:     2.3049      Z:     4.0381     Total:     5.8069

*** Psi4 exiting successfully. Buy a developer a beer!
