                               Psi4 1.3.2 release

  ==> Input File <==

--------------------------------------------------------------------------
#psi4
#
memory 32 gb

molecule  {
0 1
  P        2.6114510     0.0433530    -0.1897960
  O       -0.7415730    -0.5166550    -0.8759300
  O       -3.1471200     1.7525200     0.1857420
  O       -3.5574290    -0.5524670    -0.9560380
  O       -0.9262260    -1.6975490     1.1507850
  O        1.5012860     1.2233130    -0.3203930
  O        1.7414800    -1.2994450    -0.3567160
  O        2.9590140    -0.0653000     1.3909990
  O        3.7753660     0.2843820    -1.0654240
  C       -2.1786680     0.7692630     0.5423480
  C       -0.8949230     0.8134730    -0.3165700
  C       -2.7827930    -0.6059770     0.2231310
  C       -1.5369320    -1.4089660    -0.0835960
  C        0.4828890     1.2423201     0.6165192
  H       -1.9376650     0.8286140     1.6117160
  H       -1.0169450     1.4955040    -1.1629930
  H       -3.3413290    -1.0227480     1.0706890
  H       -1.7077950    -2.2947630    -0.7028010
  H        0.4416350     0.4968690     1.3430810
  H        0.1975530     2.2044650     0.9092850
  H       -2.8909940     2.6048820     0.5755830
  H       -4.0423210     0.2940670    -0.9260900
  H       -0.0419210    -2.0739930     0.9730340
  H        0.9072950    -1.0817680    -0.8531670
  H        3.8470510     0.3069850     1.5449930
units angstrom
no_reorient  #important for SAPT in psi4, default
symmetry c1  #important for SAPT in psi4, default
}

set PROPERTIES_ORIGIN ["COM"]
properties('MP2/aug-cc-pvtz', properties = ['dipole'])
--------------------------------------------------------------------------

    Molecular point group: c1
  Charge       = 0
  Multiplicity = 1
  Basis Set: AUG-CC-PVTZ
    Blend: AUG-CC-PVTZ
  Basis Set: (AUG-CC-PVTZ AUX)
    Blend: AUG-CC-PVTZ-JKFIT

    Orbital Energies [Eh]
    ---------------------

    Doubly Occupied:

       1A    -80.119528     2A    -20.615146     3A    -20.614925
       4A    -20.602309     5A    -20.601584     6A    -20.601331
       7A    -20.593984     8A    -20.571947     9A    -20.517882
      10A    -11.359785    11A    -11.319902    12A    -11.317389
      13A    -11.316503    14A    -11.303657    15A     -7.634677
      16A     -5.533127    17A     -5.532915    18A     -5.531503
      19A     -1.469784    20A     -1.450136    21A     -1.407841
      22A     -1.404475    23A     -1.383139    24A     -1.370960
      25A     -1.365772    26A     -1.299860    27A     -1.067736
      28A     -1.030290    29A     -0.952424    30A     -0.857774
      31A     -0.841231    32A     -0.827786    33A     -0.774250
      34A     -0.758726    35A     -0.744566    36A     -0.733742
      37A     -0.722399    38A     -0.703789    39A     -0.679232
      40A     -0.667151    41A     -0.661936    42A     -0.648440
      43A     -0.631541    44A     -0.614166    45A     -0.599442
      46A     -0.593521    47A     -0.586981    48A     -0.577142
      49A     -0.567629    50A     -0.557938    51A     -0.549992
      52A     -0.539976    53A     -0.527153    54A     -0.511975
      55A     -0.488623    56A     -0.482587    57A     -0.476472
      58A     -0.471085    59A     -0.461679    60A     -0.416401

  @DF-RHF Final Energy: -1135.79403486631600

   => Energetics <=

    Nuclear Repulsion Energy =           1213.9058885188901513
    One-Electron Energy =               -3981.0681748514180072
    Two-Electron Energy =                1631.3682514662118592
    Total Energy =                      -1135.7940348663159966
  Basis Set: (AUG-CC-PVTZ AUX)
    Blend: AUG-CC-PVTZ-RI
    Molecular point group: c1

    Geometry (in Angstrom), charge = 0, multiplicity = 1:

       Center              X                  Y                   Z               Mass
    ------------   -----------------  -----------------  -----------------  -----------------
         P            2.550719090814     0.048129783099    -0.175769460109    30.973761998420
         O           -0.802304909186    -0.511878216901    -0.861903460109    15.994914619570
         O           -3.207851909186     1.757296783099     0.199768539891    15.994914619570
         O           -3.618160909186    -0.547690216901    -0.942011460109    15.994914619570
         O           -0.986957909186    -1.692772216901     1.164811539891    15.994914619570
         O            1.440554090814     1.228089783099    -0.306366460109    15.994914619570
         O            1.680748090814    -1.294668216901    -0.342689460109    15.994914619570
         O            2.898282090814    -0.060523216901     1.405025539891    15.994914619570
         O            3.714634090814     0.289158783099    -1.051397460109    15.994914619570
         C           -2.239399909186     0.774039783099     0.556374539891    12.000000000000
         C           -0.955654909186     0.818249783099    -0.302543460109    12.000000000000
         C           -2.843524909186    -0.601200216901     0.237157539891    12.000000000000
         C           -1.597663909186    -1.404189216901    -0.069569460109    12.000000000000
         C            0.422157090814     1.247096883099     0.630545739891    12.000000000000
         H           -1.998396909186     0.833390783099     1.625742539891     1.007825032230
         H           -1.077676909186     1.500280783099    -1.148966460109     1.007825032230
         H           -3.402060909186    -1.017971216901     1.084715539891     1.007825032230
         H           -1.768526909186    -2.289986216901    -0.688774460109     1.007825032230
         H            0.380903090814     0.501645783099     1.357107539891     1.007825032230
         H            0.136821090814     2.209241783099     0.923311539891     1.007825032230
         H           -2.951725909186     2.609658783099     0.589609539891     1.007825032230
         H           -4.103052909186     0.298843783099    -0.912063460109     1.007825032230
         H           -0.102652909186    -2.069216216901     0.987060539891     1.007825032230
         H            0.846563090814    -1.076991216901    -0.839140460109     1.007825032230
         H            3.786319090814     0.311761783099     1.559019539891     1.007825032230

  Basis Set: AUG-CC-PVTZ
    Blend: AUG-CC-PVTZ
  Basis Set: (AUG-CC-PVTZ AUX)
    Blend: AUG-CC-PVTZ-JKFIT
	 Reference Energy          =   -1135.7940348663159966 [Eh]
	 Singles Energy            =      -0.0000000000000000 [Eh]
	 Same-Spin Energy          =      -0.8167466752178015 [Eh]
	 Opposite-Spin Energy      =      -2.4234269212490198 [Eh]
	 Correlation Energy        =      -3.2401735964668212 [Eh]
	 Total Energy              =   -1139.0342084627827717 [Eh]

	 ================> DF-SCS-MP2 Energies <==================
	-----------------------------------------------------------
	 SCS Same-Spin Scale       =       0.3333333333333333 [-]
	 SCS Opposite-Spin Scale   =       1.2000000000000000 [-]
	 SCS Same-Spin Energy      =      -0.2722488917392671 [Eh]
	 SCS Opposite-Spin Energy  =      -2.9081123054988236 [Eh]
	 SCS Correlation Energy    =      -3.1803611972380907 [Eh]
	 SCS Total Energy          =   -1138.9743960635541953 [Eh]
	-----------------------------------------------------------

  Dipole Moment: [D]
     X:    -3.0313      Y:     2.2990      Z:     3.9959     Total:     5.5174

*** Psi4 exiting successfully. Buy a developer a beer!
