                               Psi4 1.3.2 release

  ==> Input File <==

--------------------------------------------------------------------------
#psi4
#
memory 32 gb

molecule  {
0 1
  P        2.6114510     0.0433530    -0.1897960
  O       -0.7415730    -0.5166550    -0.8759300
  O       -3.1471200     1.7525200     0.1857420
  O       -3.5574290    -0.5524670    -0.9560380
  O       -0.9262260    -1.6975490     1.1507850
  O        1.5282724     1.2362856    -0.2799780
  O        1.7414800    -1.2994450    -0.3567160
  O        2.9590140    -0.0653000     1.3909990
  O        3.7753660     0.2843820    -1.0654240
  C       -2.1786680     0.7692630     0.5423480
  C       -0.8949230     0.8134730    -0.3165700
  C       -2.7827930    -0.6059770     0.2231310
  C       -1.5369320    -1.4089660    -0.0835960
  C        0.3225300     1.1924080     0.5079200
  H       -1.9376650     0.8286140     1.6117160
  H       -1.0169450     1.4955040    -1.1629930
  H       -3.3413290    -1.0227480     1.0706890
  H       -1.7077950    -2.2947630    -0.7028010
  H        0.4416350     0.4968690     1.3430810
  H        0.1975530     2.2044650     0.9092850
  H       -2.8909940     2.6048820     0.5755830
  H       -4.0423210     0.2940670    -0.9260900
  H       -0.0419210    -2.0739930     0.9730340
  H        0.9072950    -1.0817680    -0.8531670
  H        3.8470510     0.3069850     1.5449930
units angstrom
no_reorient  #important for SAPT in psi4, default
symmetry c1  #important for SAPT in psi4, default
}

set PROPERTIES_ORIGIN ["COM"]
properties('MP2/aug-cc-pvtz', properties = ['dipole'])
--------------------------------------------------------------------------

    Molecular point group: c1
  Charge       = 0
  Multiplicity = 1
  Basis Set: AUG-CC-PVTZ
    Blend: AUG-CC-PVTZ
  Basis Set: (AUG-CC-PVTZ AUX)
    Blend: AUG-CC-PVTZ-JKFIT

    Orbital Energies [Eh]
    ---------------------

    Doubly Occupied:

       1A    -80.113310     2A    -20.607769     3A    -20.606966
       4A    -20.604929     5A    -20.604350     6A    -20.599507
       7A    -20.595237     8A    -20.575439     9A    -20.513765
      10A    -11.362860    11A    -11.324439    12A    -11.321984
      13A    -11.319693    14A    -11.307988    15A     -7.628482
      16A     -5.526957    17A     -5.526799    18A     -5.525306
      19A     -1.463893    20A     -1.449132    21A     -1.412134
      22A     -1.389667    23A     -1.379055    24A     -1.374254
      25A     -1.369296    26A     -1.295176    27A     -1.085328
      28A     -1.047933    29A     -0.948209    30A     -0.859028
      31A     -0.841527    32A     -0.829235    33A     -0.772986
      34A     -0.760368    35A     -0.748866    36A     -0.734543
      37A     -0.716162    38A     -0.691991    39A     -0.685293
      40A     -0.667553    41A     -0.651209    42A     -0.649153
      43A     -0.634084    44A     -0.614349    45A     -0.601415
      46A     -0.597275    47A     -0.581898    48A     -0.577500
      49A     -0.570391    50A     -0.559856    51A     -0.542541
      52A     -0.533689    53A     -0.526954    54A     -0.512494
      55A     -0.491233    56A     -0.488621    57A     -0.474032
      58A     -0.469118    59A     -0.465432    60A     -0.451934

  @DF-RHF Final Energy: -1135.82335409204393

   => Energetics <=

    Nuclear Repulsion Energy =           1215.8709918903120979
    One-Electron Energy =               -3985.0275034724754732
    Two-Electron Energy =                1633.3331574901192198
    Total Energy =                      -1135.8233540920439282
  Basis Set: (AUG-CC-PVTZ AUX)
    Blend: AUG-CC-PVTZ-RI
    Molecular point group: c1

    Geometry (in Angstrom), charge = 0, multiplicity = 1:

       Center              X                  Y                   Z               Mass
    ------------   -----------------  -----------------  -----------------  -----------------
         P            2.557208388806     0.049831596028    -0.172914237344    30.973761998420
         O           -0.795815611194    -0.510176403972    -0.859048237344    15.994914619570
         O           -3.201362611194     1.758998596028     0.202623762656    15.994914619570
         O           -3.611671611194    -0.545988403972    -0.939156237344    15.994914619570
         O           -0.980468611194    -1.691070403972     1.167666762656    15.994914619570
         O            1.474029788806     1.242764196028    -0.263096237344    15.994914619570
         O            1.687237388806    -1.292966403972    -0.339834237344    15.994914619570
         O            2.904771388806    -0.058821403972     1.407880762656    15.994914619570
         O            3.721123388806     0.290860596028    -1.048542237344    15.994914619570
         C           -2.232910611194     0.775741596028     0.559229762656    12.000000000000
         C           -0.949165611194     0.819951596028    -0.299688237344    12.000000000000
         C           -2.837035611194    -0.599498403972     0.240012762656    12.000000000000
         C           -1.591174611194    -1.402487403972    -0.066714237344    12.000000000000
         C            0.268287388806     1.198886596028     0.524801762656    12.000000000000
         H           -1.991907611194     0.835092596028     1.628597762656     1.007825032230
         H           -1.071187611194     1.501982596028    -1.146111237344     1.007825032230
         H           -3.395571611194    -1.016269403972     1.087570762656     1.007825032230
         H           -1.762037611194    -2.288284403972    -0.685919237344     1.007825032230
         H            0.387392388806     0.503347596028     1.359962762656     1.007825032230
         H            0.143310388806     2.210943596028     0.926166762656     1.007825032230
         H           -2.945236611194     2.611360596028     0.592464762656     1.007825032230
         H           -4.096563611194     0.300545596028    -0.909208237344     1.007825032230
         H           -0.096163611194    -2.067514403972     0.989915762656     1.007825032230
         H            0.853052388806    -1.075289403972    -0.836285237344     1.007825032230
         H            3.792808388806     0.313463596028     1.561874762656     1.007825032230

  Basis Set: AUG-CC-PVTZ
    Blend: AUG-CC-PVTZ
  Basis Set: (AUG-CC-PVTZ AUX)
    Blend: AUG-CC-PVTZ-JKFIT
	 Reference Energy          =   -1135.8233540920439282 [Eh]
	 Singles Energy            =      -0.0000000000000000 [Eh]
	 Same-Spin Energy          =      -0.8160812401829630 [Eh]
	 Opposite-Spin Energy      =      -2.4213187382128902 [Eh]
	 Correlation Energy        =      -3.2373999783958531 [Eh]
	 Total Energy              =   -1139.0607540704397707 [Eh]

	 ================> DF-SCS-MP2 Energies <==================
	-----------------------------------------------------------
	 SCS Same-Spin Scale       =       0.3333333333333333 [-]
	 SCS Opposite-Spin Scale   =       1.2000000000000000 [-]
	 SCS Same-Spin Energy      =      -0.2720270800609876 [Eh]
	 SCS Opposite-Spin Energy  =      -2.9055824858554682 [Eh]
	 SCS Correlation Energy    =      -3.1776095659164558 [Eh]
	 SCS Total Energy          =   -1139.0009636579604830 [Eh]
	-----------------------------------------------------------

  Dipole Moment: [D]
     X:    -3.6132      Y:     2.2863      Z:     3.9521     Total:     5.8225

*** Psi4 exiting successfully. Buy a developer a beer!
