                               Psi4 1.3.2 release

  ==> Input File <==

--------------------------------------------------------------------------
#psi4
#
memory 32 gb

molecule  {
0 1
  P        2.6114510     0.0433530    -0.1897960
  O       -0.7415730    -0.5166550    -0.8759300
  O       -3.1471200     1.7525200     0.1857420
  O       -3.5187252    -0.5330323    -0.9795521
  O       -0.9262260    -1.6975490     1.1507850
  O        1.5012860     1.2233130    -0.3203930
  O        1.7414800    -1.2994450    -0.3567160
  O        2.9590140    -0.0653000     1.3909990
  O        3.7753660     0.2843820    -1.0654240
  C       -2.1786680     0.7692630     0.5423480
  C       -0.8949230     0.8134730    -0.3165700
  C       -2.7827930    -0.6059770     0.2231310
  C       -1.5369320    -1.4089660    -0.0835960
  C        0.3225300     1.1924080     0.5079200
  H       -1.9376650     0.8286140     1.6117160
  H       -1.0169450     1.4955040    -1.1629930
  H       -3.3413290    -1.0227480     1.0706890
  H       -1.7077950    -2.2947630    -0.7028010
  H        0.4416350     0.4968690     1.3430810
  H        0.1975530     2.2044650     0.9092850
  H       -2.8909940     2.6048820     0.5755830
  H       -4.0423210     0.2940670    -0.9260900
  H       -0.0419210    -2.0739930     0.9730340
  H        0.9072950    -1.0817680    -0.8531670
  H        3.8470510     0.3069850     1.5449930
units angstrom
no_reorient  #important for SAPT in psi4, default
symmetry c1  #important for SAPT in psi4, default
}

set PROPERTIES_ORIGIN ["COM"]
properties('MP2/aug-cc-pvtz', properties = ['dipole'])
--------------------------------------------------------------------------

    Molecular point group: c1
  Charge       = 0
  Multiplicity = 1
  Basis Set: AUG-CC-PVTZ
    Blend: AUG-CC-PVTZ
  Basis Set: (AUG-CC-PVTZ AUX)
    Blend: AUG-CC-PVTZ-JKFIT

    Orbital Energies [Eh]
    ---------------------

    Doubly Occupied:

       1A    -80.114648     2A    -20.610935     3A    -20.605573
       4A    -20.604707     5A    -20.602722     6A    -20.598118
       7A    -20.594434     8A    -20.575548     9A    -20.514333
      10A    -11.361826    11A    -11.322415    12A    -11.320786
      13A    -11.317552    14A    -11.307443    15A     -7.629598
      16A     -5.528019    17A     -5.527936    18A     -5.526437
      19A     -1.462819    20A     -1.447995    21A     -1.411038
      22A     -1.390341    23A     -1.377857    24A     -1.373362
      25A     -1.367833    26A     -1.295668    27A     -1.083528
      28A     -1.046429    29A     -0.946322    30A     -0.857518
      31A     -0.841185    32A     -0.828714    33A     -0.771561
      34A     -0.759083    35A     -0.747458    36A     -0.733686
      37A     -0.716468    38A     -0.692363    39A     -0.684880
      40A     -0.666377    41A     -0.652521    42A     -0.646768
      43A     -0.632343    44A     -0.614014    45A     -0.600571
      46A     -0.596208    47A     -0.581686    48A     -0.576690
      49A     -0.569340    50A     -0.559257    51A     -0.543152
      52A     -0.531698    53A     -0.526110    54A     -0.511705
      55A     -0.489643    56A     -0.487949    57A     -0.474944
      58A     -0.469835    59A     -0.466014    60A     -0.449621

  @DF-RHF Final Energy: -1135.82176480658700

   => Energetics <=

    Nuclear Repulsion Energy =           1216.6757718150713572
    One-Electron Energy =               -3986.7039007598382341
    Two-Electron Energy =                1634.2063641381796515
    Total Energy =                      -1135.8217648065869980
  Basis Set: (AUG-CC-PVTZ AUX)
    Blend: AUG-CC-PVTZ-RI
    Molecular point group: c1

    Geometry (in Angstrom), charge = 0, multiplicity = 1:

       Center              X                  Y                   Z               Mass
    ------------   -----------------  -----------------  -----------------  -----------------
         P            2.556393592259     0.049382238938    -0.168468779316    30.973761998420
         O           -0.796630407741    -0.510625761062    -0.854602779316    15.994914619570
         O           -3.202177407741     1.758549238938     0.207069220684    15.994914619570
         O           -3.573782607741    -0.527003061062    -0.958224879316    15.994914619570
         O           -0.981283407741    -1.691519761062     1.172112220684    15.994914619570
         O            1.446228592259     1.229342238938    -0.299065779316    15.994914619570
         O            1.686422592259    -1.293415761062    -0.335388779316    15.994914619570
         O            2.903956592259    -0.059270761062     1.412326220684    15.994914619570
         O            3.720308592259     0.290411238938    -1.044096779316    15.994914619570
         C           -2.233725407741     0.775292238938     0.563675220684    12.000000000000
         C           -0.949980407741     0.819502238938    -0.295242779316    12.000000000000
         C           -2.837850407741    -0.599947761062     0.244458220684    12.000000000000
         C           -1.591989407741    -1.402936761062    -0.062268779316    12.000000000000
         C            0.267472592259     1.198437238938     0.529247220684    12.000000000000
         H           -1.992722407741     0.834643238938     1.633043220684     1.007825032230
         H           -1.072002407741     1.501533238938    -1.141665779316     1.007825032230
         H           -3.396386407741    -1.016718761062     1.092016220684     1.007825032230
         H           -1.762852407741    -2.288733761062    -0.681473779316     1.007825032230
         H            0.386577592259     0.502898238938     1.364408220684     1.007825032230
         H            0.142495592259     2.210494238938     0.930612220684     1.007825032230
         H           -2.946051407741     2.610911238938     0.596910220684     1.007825032230
         H           -4.097378407741     0.300096238938    -0.904762779316     1.007825032230
         H           -0.096978407741    -2.067963761062     0.994361220684     1.007825032230
         H            0.852237592259    -1.075738761062    -0.831839779316     1.007825032230
         H            3.791993592259     0.313014238938     1.566320220684     1.007825032230

  Basis Set: AUG-CC-PVTZ
    Blend: AUG-CC-PVTZ
  Basis Set: (AUG-CC-PVTZ AUX)
    Blend: AUG-CC-PVTZ-JKFIT
	 Reference Energy          =   -1135.8217648065869980 [Eh]
	 Singles Energy            =      -0.0000000000000000 [Eh]
	 Same-Spin Energy          =      -0.8164616489872365 [Eh]
	 Opposite-Spin Energy      =      -2.4221485232640863 [Eh]
	 Correlation Energy        =      -3.2386101722513230 [Eh]
	 Total Energy              =   -1139.0603749788383539 [Eh]

	 ================> DF-SCS-MP2 Energies <==================
	-----------------------------------------------------------
	 SCS Same-Spin Scale       =       0.3333333333333333 [-]
	 SCS Opposite-Spin Scale   =       1.2000000000000000 [-]
	 SCS Same-Spin Energy      =      -0.2721538829957455 [Eh]
	 SCS Opposite-Spin Energy  =      -2.9065782279169032 [Eh]
	 SCS Correlation Energy    =      -3.1787321109126490 [Eh]
	 SCS Total Energy          =   -1139.0004969174997314 [Eh]
	-----------------------------------------------------------

  Dipole Moment: [D]
     X:    -3.5870      Y:     2.2436      Z:     4.0631     Total:     5.8660

*** Psi4 exiting successfully. Buy a developer a beer!
