                               Psi4 1.3.2 release

  ==> Input File <==

--------------------------------------------------------------------------
#psi4
#
memory 32 gb

molecule  {
0 1
  P        2.6114510     0.0433530    -0.1897960
  O       -0.7415730    -0.5166550    -0.8759300
  O       -3.1471200     1.7525200     0.1857420
  O       -3.5574290    -0.5524670    -0.9560380
  O       -0.9262260    -1.6975490     1.1507850
  O        1.5012860     1.2233130    -0.3203930
  O        1.7414800    -1.2994450    -0.3567160
  O        2.9590140    -0.0653000     1.3909990
  O        3.7753660     0.2843820    -1.0654240
  C       -2.1786680     0.7692630     0.5423480
  C       -0.8949230     0.8134730    -0.3165700
  C       -2.7279269    -0.6097670     0.3066495
  C       -1.5369320    -1.4089660    -0.0835960
  C        0.3225300     1.1924080     0.5079200
  H       -1.9376650     0.8286140     1.6117160
  H       -1.0169450     1.4955040    -1.1629930
  H       -3.3413290    -1.0227480     1.0706890
  H       -1.7077950    -2.2947630    -0.7028010
  H        0.4416350     0.4968690     1.3430810
  H        0.1975530     2.2044650     0.9092850
  H       -2.8909940     2.6048820     0.5755830
  H       -4.0423210     0.2940670    -0.9260900
  H       -0.0419210    -2.0739930     0.9730340
  H        0.9072950    -1.0817680    -0.8531670
  H        3.8470510     0.3069850     1.5449930
units angstrom
no_reorient  #important for SAPT in psi4, default
symmetry c1  #important for SAPT in psi4, default
}

set PROPERTIES_ORIGIN ["COM"]
properties('MP2/aug-cc-pvtz', properties = ['dipole'])
--------------------------------------------------------------------------

    Molecular point group: c1
  Charge       = 0
  Multiplicity = 1
  Basis Set: AUG-CC-PVTZ
    Blend: AUG-CC-PVTZ
  Basis Set: (AUG-CC-PVTZ AUX)
    Blend: AUG-CC-PVTZ-JKFIT

    Orbital Energies [Eh]
    ---------------------

    Doubly Occupied:

       1A    -80.115801     2A    -20.611955     3A    -20.607605
       4A    -20.606160     5A    -20.605706     6A    -20.599481
       7A    -20.595671     8A    -20.564543     9A    -20.515323
      10A    -11.365074    11A    -11.325970    12A    -11.322590
      13A    -11.320402    14A    -11.307497    15A     -7.630752
      16A     -5.529172    17A     -5.529090    18A     -5.527587
      19A     -1.464901    20A     -1.449553    21A     -1.409660
      22A     -1.391666    23A     -1.379190    24A     -1.372850
      25A     -1.338898    26A     -1.296654    27A     -1.091548
      28A     -1.055122    29A     -0.949931    30A     -0.861479
      31A     -0.843573    32A     -0.832205    33A     -0.773116
      34A     -0.754897    35A     -0.750070    36A     -0.736182
      37A     -0.717820    38A     -0.694470    39A     -0.682294
      40A     -0.659341    41A     -0.653236    42A     -0.647411
      43A     -0.633720    44A     -0.613633    45A     -0.602299
      46A     -0.589974    47A     -0.580687    48A     -0.576842
      49A     -0.566287    50A     -0.553280    51A     -0.543270
      52A     -0.532283    53A     -0.526965    54A     -0.510014
      55A     -0.497687    56A     -0.488471    57A     -0.477398
      58A     -0.472699    59A     -0.468087    60A     -0.454730

  @DF-RHF Final Energy: -1135.81168774880689

   => Energetics <=

    Nuclear Repulsion Energy =           1216.0700453550975908
    One-Electron Energy =               -3985.4139240447561860
    Two-Electron Energy =                1633.5321909408517058
    Total Energy =                      -1135.8116877488068894
  Basis Set: (AUG-CC-PVTZ AUX)
    Blend: AUG-CC-PVTZ-RI
    Molecular point group: c1

    Geometry (in Angstrom), charge = 0, multiplicity = 1:

       Center              X                  Y                   Z               Mass
    ------------   -----------------  -----------------  -----------------  -----------------
         P            2.556222609874     0.050931398478    -0.174461010815    30.973761998420
         O           -0.796801390126    -0.509076601522    -0.860595010815    15.994914619570
         O           -3.202348390126     1.760098398478     0.201076989185    15.994914619570
         O           -3.612657390126    -0.544888601522    -0.940703010815    15.994914619570
         O           -0.981454390126    -1.689970601522     1.166119989185    15.994914619570
         O            1.446057609874     1.230891398478    -0.305058010815    15.994914619570
         O            1.686251609874    -1.291866601522    -0.341381010815    15.994914619570
         O            2.903785609874    -0.057721601522     1.406333989185    15.994914619570
         O            3.720137609874     0.291960398478    -1.050089010815    15.994914619570
         C           -2.233896390126     0.776841398478     0.557682989185    12.000000000000
         C           -0.950151390126     0.821051398478    -0.301235010815    12.000000000000
         C           -2.783155290126    -0.602188601522     0.321984489185    12.000000000000
         C           -1.592160390126    -1.401387601522    -0.068261010815    12.000000000000
         C            0.267301609874     1.199986398478     0.523254989185    12.000000000000
         H           -1.992893390126     0.836192398478     1.627050989185     1.007825032230
         H           -1.072173390126     1.503082398478    -1.147658010815     1.007825032230
         H           -3.396557390126    -1.015169601522     1.086023989185     1.007825032230
         H           -1.763023390126    -2.287184601522    -0.687466010815     1.007825032230
         H            0.386406609874     0.504447398478     1.358415989185     1.007825032230
         H            0.142324609874     2.212043398478     0.924619989185     1.007825032230
         H           -2.946222390126     2.612460398478     0.590917989185     1.007825032230
         H           -4.097549390126     0.301645398478    -0.910755010815     1.007825032230
         H           -0.097149390126    -2.066414601522     0.988368989185     1.007825032230
         H            0.852066609874    -1.074189601522    -0.837832010815     1.007825032230
         H            3.791822609874     0.314563398478     1.560327989185     1.007825032230

  Basis Set: AUG-CC-PVTZ
    Blend: AUG-CC-PVTZ
  Basis Set: (AUG-CC-PVTZ AUX)
    Blend: AUG-CC-PVTZ-JKFIT
	 Reference Energy          =   -1135.8116877488068894 [Eh]
	 Singles Energy            =      -0.0000000000000000 [Eh]
	 Same-Spin Energy          =      -0.8168169991106928 [Eh]
	 Opposite-Spin Energy      =      -2.4239830260604918 [Eh]
	 Correlation Energy        =      -3.2408000251711844 [Eh]
	 Total Energy              =   -1139.0524877739781004 [Eh]

	 ================> DF-SCS-MP2 Energies <==================
	-----------------------------------------------------------
	 SCS Same-Spin Scale       =       0.3333333333333333 [-]
	 SCS Opposite-Spin Scale   =       1.2000000000000000 [-]
	 SCS Same-Spin Energy      =      -0.2722723330368976 [Eh]
	 SCS Opposite-Spin Energy  =      -2.9087796312725902 [Eh]
	 SCS Correlation Energy    =      -3.1810519643094879 [Eh]
	 SCS Total Energy          =   -1138.9927397131164071 [Eh]
	-----------------------------------------------------------

  Dipole Moment: [D]
     X:    -3.2590      Y:     2.2706      Z:     4.2540     Total:     5.8201

*** Psi4 exiting successfully. Buy a developer a beer!
