                               Psi4 1.3.2 release

  ==> Input File <==

--------------------------------------------------------------------------
#psi4
#
memory 32 gb

molecule  {
0 1
  P        2.6114510     0.0433530    -0.1897960
  O       -0.7415730    -0.5166550    -0.8759300
  O       -3.1471200     1.7525200     0.1857420
  O       -3.5574290    -0.5524670    -0.9560380
  O       -0.9623937    -1.6731984     1.1733946
  O        1.5012860     1.2233130    -0.3203930
  O        1.7414800    -1.2994450    -0.3567160
  O        2.9590140    -0.0653000     1.3909990
  O        3.7753660     0.2843820    -1.0654240
  C       -2.1786680     0.7692630     0.5423480
  C       -0.8949230     0.8134730    -0.3165700
  C       -2.7827930    -0.6059770     0.2231310
  C       -1.5369320    -1.4089660    -0.0835960
  C        0.3225300     1.1924080     0.5079200
  H       -1.9376650     0.8286140     1.6117160
  H       -1.0169450     1.4955040    -1.1629930
  H       -3.3413290    -1.0227480     1.0706890
  H       -1.7077950    -2.2947630    -0.7028010
  H        0.4416350     0.4968690     1.3430810
  H        0.1975530     2.2044650     0.9092850
  H       -2.8909940     2.6048820     0.5755830
  H       -4.0423210     0.2940670    -0.9260900
  H       -0.0419210    -2.0739930     0.9730340
  H        0.9072950    -1.0817680    -0.8531670
  H        3.8470510     0.3069850     1.5449930
units angstrom
no_reorient  #important for SAPT in psi4, default
symmetry c1  #important for SAPT in psi4, default
}

set PROPERTIES_ORIGIN ["COM"]
properties('MP2/aug-cc-pvtz', properties = ['dipole'])
--------------------------------------------------------------------------

    Molecular point group: c1
  Charge       = 0
  Multiplicity = 1
  Basis Set: AUG-CC-PVTZ
    Blend: AUG-CC-PVTZ
  Basis Set: (AUG-CC-PVTZ AUX)
    Blend: AUG-CC-PVTZ-JKFIT

    Orbital Energies [Eh]
    ---------------------

    Doubly Occupied:

       1A    -80.115343     2A    -20.611504     3A    -20.605609
       4A    -20.605273     5A    -20.604165     6A    -20.600332
       7A    -20.599248     8A    -20.573405     9A    -20.514941
      10A    -11.361356    11A    -11.322549    12A    -11.321269
      13A    -11.318118    14A    -11.305340    15A     -7.630295
      16A     -5.528711    17A     -5.528636    18A     -5.527132
      19A     -1.462655    20A     -1.447784    21A     -1.410182
      22A     -1.390635    23A     -1.378785    24A     -1.371277
      25A     -1.365988    26A     -1.296268    27A     -1.083836
      28A     -1.044712    29A     -0.945304    30A     -0.857248
      31A     -0.841883    32A     -0.828019    33A     -0.770575
      34A     -0.754713    35A     -0.746287    36A     -0.733592
      37A     -0.717091    38A     -0.692714    39A     -0.682635
      40A     -0.665640    41A     -0.652833    42A     -0.648311
      43A     -0.632280    44A     -0.614081    45A     -0.600623
      46A     -0.594211    47A     -0.582270    48A     -0.577380
      49A     -0.569480    50A     -0.559117    51A     -0.543779
      52A     -0.532362    53A     -0.527077    54A     -0.511193
      55A     -0.491168    56A     -0.487706    57A     -0.475290
      58A     -0.469012    59A     -0.465108    60A     -0.450062

  @DF-RHF Final Energy: -1135.81688649090324

   => Energetics <=

    Nuclear Repulsion Energy =           1215.7537479599625385
    One-Electron Energy =               -3984.8524885743995583
    Two-Electron Energy =                1633.2818541235335488
    Total Energy =                      -1135.8168864909032436
  Basis Set: (AUG-CC-PVTZ AUX)
    Blend: AUG-CC-PVTZ-RI
    Molecular point group: c1

    Geometry (in Angstrom), charge = 0, multiplicity = 1:

       Center              X                  Y                   Z               Mass
    ------------   -----------------  -----------------  -----------------  -----------------
         P            2.561599955414     0.049040400446    -0.171676097618    30.973761998420
         O           -0.791424044586    -0.510967599554    -0.857810097618    15.994914619570
         O           -3.196971044586     1.758207400446     0.203861902382    15.994914619570
         O           -3.607280044586    -0.546779599554    -0.937918097618    15.994914619570
         O           -1.012244744586    -1.667510999554     1.191514502382    15.994914619570
         O            1.451434955414     1.229000400446    -0.302273097618    15.994914619570
         O            1.691628955414    -1.293757599554    -0.338596097618    15.994914619570
         O            2.909162955414    -0.059612599554     1.409118902382    15.994914619570
         O            3.725514955414     0.290069400446    -1.047304097618    15.994914619570
         C           -2.228519044586     0.774950400446     0.560467902382    12.000000000000
         C           -0.944774044586     0.819160400446    -0.298450097618    12.000000000000
         C           -2.832644044586    -0.600289599554     0.241250902382    12.000000000000
         C           -1.586783044586    -1.403278599554    -0.065476097618    12.000000000000
         C            0.272678955414     1.198095400446     0.526039902382    12.000000000000
         H           -1.987516044586     0.834301400446     1.629835902382     1.007825032230
         H           -1.066796044586     1.501191400446    -1.144873097618     1.007825032230
         H           -3.391180044586    -1.017060599554     1.088808902382     1.007825032230
         H           -1.757646044586    -2.289075599554    -0.684681097618     1.007825032230
         H            0.391783955414     0.502556400446     1.361200902382     1.007825032230
         H            0.147701955414     2.210152400446     0.927404902382     1.007825032230
         H           -2.940845044586     2.610569400446     0.593702902382     1.007825032230
         H           -4.092172044586     0.299754400446    -0.907970097618     1.007825032230
         H           -0.091772044586    -2.068305599554     0.991153902382     1.007825032230
         H            0.857443955414    -1.076080599554    -0.835047097618     1.007825032230
         H            3.797199955414     0.312672400446     1.563112902382     1.007825032230

  Basis Set: AUG-CC-PVTZ
    Blend: AUG-CC-PVTZ
  Basis Set: (AUG-CC-PVTZ AUX)
    Blend: AUG-CC-PVTZ-JKFIT
	 Reference Energy          =   -1135.8168864909032436 [Eh]
	 Singles Energy            =      -0.0000000000000000 [Eh]
	 Same-Spin Energy          =      -0.8171354625707554 [Eh]
	 Opposite-Spin Energy      =      -2.4238060490801709 [Eh]
	 Correlation Energy        =      -3.2409415116509264 [Eh]
	 Total Energy              =   -1139.0578280025540607 [Eh]

	 ================> DF-SCS-MP2 Energies <==================
	-----------------------------------------------------------
	 SCS Same-Spin Scale       =       0.3333333333333333 [-]
	 SCS Opposite-Spin Scale   =       1.2000000000000000 [-]
	 SCS Same-Spin Energy      =      -0.2723784875235851 [Eh]
	 SCS Opposite-Spin Energy  =      -2.9085672588962050 [Eh]
	 SCS Correlation Energy    =      -3.1809457464197903 [Eh]
	 SCS Total Energy          =   -1138.9978322373231094 [Eh]
	-----------------------------------------------------------

  Dipole Moment: [D]
     X:    -3.3973      Y:     2.2478      Z:     4.0224     Total:     5.7248

*** Psi4 exiting successfully. Buy a developer a beer!
