                               Psi4 1.3.2 release

  ==> Input File <==

--------------------------------------------------------------------------
#psi4
#
memory 32 gb

molecule  {
0 1
  P        2.6114510     0.0433530    -0.1897960
  O       -0.7416377    -0.5002009    -0.8570694
  O       -3.1471200     1.7525200     0.1857420
  O       -3.5574290    -0.5524670    -0.9560380
  O       -0.9262260    -1.6975490     1.1507850
  O        1.5012860     1.2233130    -0.3203930
  O        1.7414800    -1.2994450    -0.3567160
  O        2.9590140    -0.0653000     1.3909990
  O        3.7753660     0.2843820    -1.0654240
  C       -2.1786680     0.7692630     0.5423480
  C       -0.8949230     0.8134730    -0.3165700
  C       -2.7827930    -0.6059770     0.2231310
  C       -1.5369320    -1.4089660    -0.0835960
  C        0.3225300     1.1924080     0.5079200
  H       -1.9376650     0.8286140     1.6117160
  H       -1.0169450     1.4955040    -1.1629930
  H       -3.3413290    -1.0227480     1.0706890
  H       -1.7077950    -2.2947630    -0.7028010
  H        0.4416350     0.4968690     1.3430810
  H        0.1975530     2.2044650     0.9092850
  H       -2.8909940     2.6048820     0.5755830
  H       -4.0423210     0.2940670    -0.9260900
  H       -0.0419210    -2.0739930     0.9730340
  H        0.9072950    -1.0817680    -0.8531670
  H        3.8470510     0.3069850     1.5449930
units angstrom
no_reorient  #important for SAPT in psi4, default
symmetry c1  #important for SAPT in psi4, default
}

set PROPERTIES_ORIGIN ["COM"]
properties('MP2/aug-cc-pvtz', properties = ['dipole'])
--------------------------------------------------------------------------

    Molecular point group: c1
  Charge       = 0
  Multiplicity = 1
  Basis Set: AUG-CC-PVTZ
    Blend: AUG-CC-PVTZ
  Basis Set: (AUG-CC-PVTZ AUX)
    Blend: AUG-CC-PVTZ-JKFIT

    Orbital Energies [Eh]
    ---------------------

    Doubly Occupied:

       1A    -80.114934     2A    -20.611135     3A    -20.605521
       4A    -20.604723     5A    -20.602496     6A    -20.598884
       7A    -20.594820     8A    -20.574925     9A    -20.514587
      10A    -11.363237    11A    -11.322279    12A    -11.319842
      13A    -11.316100    14A    -11.307127    15A     -7.629885
      16A     -5.528301    17A     -5.528226    18A     -5.526723
      19A     -1.465699    20A     -1.449364    21A     -1.411037
      22A     -1.390581    23A     -1.378353    24A     -1.374181
      25A     -1.370563    26A     -1.295924    27A     -1.082439
      28A     -1.048234    29A     -0.947351    30A     -0.857619
      31A     -0.842859    32A     -0.829369    33A     -0.772270
      34A     -0.759753    35A     -0.748863    36A     -0.733958
      37A     -0.716728    38A     -0.692612    39A     -0.684511
      40A     -0.668208    41A     -0.653557    42A     -0.649311
      43A     -0.633064    44A     -0.614164    45A     -0.600158
      46A     -0.597243    47A     -0.581973    48A     -0.577320
      49A     -0.569934    50A     -0.560541    51A     -0.543472
      52A     -0.532447    53A     -0.527386    54A     -0.511644
      55A     -0.491232    56A     -0.486125    57A     -0.474441
      58A     -0.469178    59A     -0.465538    60A     -0.449432

  @DF-RHF Final Energy: -1135.82350673068277

   => Energetics <=

    Nuclear Repulsion Energy =           1216.6524439929753498
    One-Electron Energy =               -3986.6071460518578533
    Two-Electron Energy =                1634.1311953281997376
    Total Energy =                      -1135.8235067306827659
  Basis Set: (AUG-CC-PVTZ AUX)
    Blend: AUG-CC-PVTZ-RI
    Molecular point group: c1

    Geometry (in Angstrom), charge = 0, multiplicity = 1:

       Center              X                  Y                   Z               Mass
    ------------   -----------------  -----------------  -----------------  -----------------
         P            2.559089449695     0.049589501862    -0.171415402220    30.973761998420
         O           -0.793999250305    -0.493964398138    -0.838688802220    15.994914619570
         O           -3.199481550305     1.758756501862     0.204122597780    15.994914619570
         O           -3.609790550305    -0.546230498138    -0.937657402220    15.994914619570
         O           -0.978587550305    -1.691312498138     1.169165597780    15.994914619570
         O            1.448924449695     1.229549501862    -0.302012402220    15.994914619570
         O            1.689118449695    -1.293208498138    -0.338335402220    15.994914619570
         O            2.906652449695    -0.059063498138     1.409379597780    15.994914619570
         O            3.723004449695     0.290618501862    -1.047043402220    15.994914619570
         C           -2.231029550305     0.775499501862     0.560728597780    12.000000000000
         C           -0.947284550305     0.819709501862    -0.298189402220    12.000000000000
         C           -2.835154550305    -0.599740498138     0.241511597780    12.000000000000
         C           -1.589293550305    -1.402729498138    -0.065215402220    12.000000000000
         C            0.270168449695     1.198644501862     0.526300597780    12.000000000000
         H           -1.990026550305     0.834850501862     1.630096597780     1.007825032230
         H           -1.069306550305     1.501740501862    -1.144612402220     1.007825032230
         H           -3.393690550305    -1.016511498138     1.089069597780     1.007825032230
         H           -1.760156550305    -2.288526498138    -0.684420402220     1.007825032230
         H            0.389273449695     0.503105501862     1.361461597780     1.007825032230
         H            0.145191449695     2.210701501862     0.927665597780     1.007825032230
         H           -2.943355550305     2.611118501862     0.593963597780     1.007825032230
         H           -4.094682550305     0.300303501862    -0.907709402220     1.007825032230
         H           -0.094282550305    -2.067756498138     0.991414597780     1.007825032230
         H            0.854933449695    -1.075531498138    -0.834786402220     1.007825032230
         H            3.794689449695     0.313221501862     1.563373597780     1.007825032230

  Basis Set: AUG-CC-PVTZ
    Blend: AUG-CC-PVTZ
  Basis Set: (AUG-CC-PVTZ AUX)
    Blend: AUG-CC-PVTZ-JKFIT
	 Reference Energy          =   -1135.8235067306827659 [Eh]
	 Singles Energy            =      -0.0000000000000000 [Eh]
	 Same-Spin Energy          =      -0.8160868954829967 [Eh]
	 Opposite-Spin Energy      =      -2.4211190912242149 [Eh]
	 Correlation Energy        =      -3.2372059867072114 [Eh]
	 Total Energy              =   -1139.0607127173900608 [Eh]

	 ================> DF-SCS-MP2 Energies <==================
	-----------------------------------------------------------
	 SCS Same-Spin Scale       =       0.3333333333333333 [-]
	 SCS Opposite-Spin Scale   =       1.2000000000000000 [-]
	 SCS Same-Spin Energy      =      -0.2720289651609989 [Eh]
	 SCS Opposite-Spin Energy  =      -2.9053429094690579 [Eh]
	 SCS Correlation Energy    =      -3.1773718746300568 [Eh]
	 SCS Total Energy          =   -1139.0008786053128915 [Eh]
	-----------------------------------------------------------

  Dipole Moment: [D]
     X:    -3.4830      Y:     2.2282      Z:     3.9925     Total:     5.7477

*** Psi4 exiting successfully. Buy a developer a beer!
