                               Psi4 1.3.2 release

  ==> Input File <==

--------------------------------------------------------------------------
#psi4
#
memory 32 gb

molecule  {
0 1
  P        2.6114510     0.0433530    -0.1897960
  O       -0.7415730    -0.5166550    -0.8759300
  O       -3.1471200     1.7525200     0.1857420
  O       -3.4876410    -0.6062285    -1.0002058
  O       -0.9262260    -1.6975490     1.1507850
  O        1.5012860     1.2233130    -0.3203930
  O        1.7414800    -1.2994450    -0.3567160
  O        2.9590140    -0.0653000     1.3909990
  O        3.7753660     0.2843820    -1.0654240
  C       -2.1786680     0.7692630     0.5423480
  C       -0.8949230     0.8134730    -0.3165700
  C       -2.7827930    -0.6059770     0.2231310
  C       -1.5369320    -1.4089660    -0.0835960
  C        0.3225300     1.1924080     0.5079200
  H       -1.9376650     0.8286140     1.6117160
  H       -1.0169450     1.4955040    -1.1629930
  H       -3.3413290    -1.0227480     1.0706890
  H       -1.7077950    -2.2947630    -0.7028010
  H        0.4416350     0.4968690     1.3430810
  H        0.1975530     2.2044650     0.9092850
  H       -2.8909940     2.6048820     0.5755830
  H       -4.0423210     0.2940670    -0.9260900
  H       -0.0419210    -2.0739930     0.9730340
  H        0.9072950    -1.0817680    -0.8531670
  H        3.8470510     0.3069850     1.5449930
units angstrom
no_reorient  #important for SAPT in psi4, default
symmetry c1  #important for SAPT in psi4, default
}

set PROPERTIES_ORIGIN ["COM"]
properties('MP2/aug-cc-pvtz', properties = ['dipole'])
--------------------------------------------------------------------------

    Molecular point group: c1
  Charge       = 0
  Multiplicity = 1
  Basis Set: AUG-CC-PVTZ
    Blend: AUG-CC-PVTZ
  Basis Set: (AUG-CC-PVTZ AUX)
    Blend: AUG-CC-PVTZ-JKFIT

    Orbital Energies [Eh]
    ---------------------

    Doubly Occupied:

       1A    -80.114500     2A    -20.610801     3A    -20.607742
       4A    -20.604725     5A    -20.602014     6A    -20.597766
       7A    -20.592427     8A    -20.583432     9A    -20.514205
      10A    -11.359357    11A    -11.323919    12A    -11.320939
      13A    -11.317851    14A    -11.305882    15A     -7.629450
      16A     -5.527872    17A     -5.527786    18A     -5.526288
      19A     -1.462183    20A     -1.447345    21A     -1.410373
      22A     -1.390172    23A     -1.377570    24A     -1.370171
      25A     -1.361187    26A     -1.295537    27A     -1.083435
      28A     -1.042642    29A     -0.945923    30A     -0.857758
      31A     -0.839636    32A     -0.826630    33A     -0.771065
      34A     -0.752744    35A     -0.747451    36A     -0.734102
      37A     -0.716306    38A     -0.691940    39A     -0.682959
      40A     -0.659259    41A     -0.651332    42A     -0.645364
      43A     -0.632981    44A     -0.611549    45A     -0.600982
      46A     -0.595021    47A     -0.581497    48A     -0.575993
      49A     -0.568326    50A     -0.558436    51A     -0.542924
      52A     -0.530932    53A     -0.525355    54A     -0.512423
      55A     -0.489665    56A     -0.486694    57A     -0.474701
      58A     -0.469410    59A     -0.465855    60A     -0.449498

  @DF-RHF Final Energy: -1135.80961686358069

   => Energetics <=

    Nuclear Repulsion Energy =           1216.3628224315309581
    One-Electron Energy =               -3986.1403199695096191
    Two-Electron Energy =                1633.9678806743982022
    Total Energy =                      -1135.8096168635806862
  Basis Set: (AUG-CC-PVTZ AUX)
    Blend: AUG-CC-PVTZ-RI
    Molecular point group: c1

    Geometry (in Angstrom), charge = 0, multiplicity = 1:

       Center              X                  Y                   Z               Mass
    ------------   -----------------  -----------------  -----------------  -----------------
         P            2.554232080421     0.054472106228    -0.167032576453    30.973761998420
         O           -0.798791919579    -0.505535893772    -0.853166576453    15.994914619570
         O           -3.204338919579     1.763639106228     0.208505423547    15.994914619570
         O           -3.544859919579    -0.595109393772    -0.977442376453    15.994914619570
         O           -0.983444919579    -1.686429893772     1.173548423547    15.994914619570
         O            1.444067080421     1.234432106228    -0.297629576453    15.994914619570
         O            1.684261080421    -1.288325893772    -0.333952576453    15.994914619570
         O            2.901795080421    -0.054180893772     1.413762423547    15.994914619570
         O            3.718147080421     0.295501106228    -1.042660576453    15.994914619570
         C           -2.235886919579     0.780382106228     0.565111423547    12.000000000000
         C           -0.952141919579     0.824592106228    -0.293806576453    12.000000000000
         C           -2.840011919579    -0.594857893772     0.245894423547    12.000000000000
         C           -1.594150919579    -1.397846893772    -0.060832576453    12.000000000000
         C            0.265311080421     1.203527106228     0.530683423547    12.000000000000
         H           -1.994883919579     0.839733106228     1.634479423547     1.007825032230
         H           -1.074163919579     1.506623106228    -1.140229576453     1.007825032230
         H           -3.398547919579    -1.011628893772     1.093452423547     1.007825032230
         H           -1.765013919579    -2.283643893772    -0.680037576453     1.007825032230
         H            0.384416080421     0.507988106228     1.365844423547     1.007825032230
         H            0.140334080421     2.215584106228     0.932048423547     1.007825032230
         H           -2.948212919579     2.616001106228     0.598346423547     1.007825032230
         H           -4.099539919579     0.305186106228    -0.903326576453     1.007825032230
         H           -0.099139919579    -2.062873893772     0.995797423547     1.007825032230
         H            0.850076080421    -1.070648893772    -0.830403576453     1.007825032230
         H            3.789832080421     0.318104106228     1.567756423547     1.007825032230

  Basis Set: AUG-CC-PVTZ
    Blend: AUG-CC-PVTZ
  Basis Set: (AUG-CC-PVTZ AUX)
    Blend: AUG-CC-PVTZ-JKFIT
	 Reference Energy          =   -1135.8096168635806862 [Eh]
	 Singles Energy            =      -0.0000000000000000 [Eh]
	 Same-Spin Energy          =      -0.8177798301043743 [Eh]
	 Opposite-Spin Energy      =      -2.4253493080428150 [Eh]
	 Correlation Energy        =      -3.2431291381471894 [Eh]
	 Total Energy              =   -1139.0527460017278827 [Eh]

	 ================> DF-SCS-MP2 Energies <==================
	-----------------------------------------------------------
	 SCS Same-Spin Scale       =       0.3333333333333333 [-]
	 SCS Opposite-Spin Scale   =       1.2000000000000000 [-]
	 SCS Same-Spin Energy      =      -0.2725932767014581 [Eh]
	 SCS Opposite-Spin Energy  =      -2.9104191696513779 [Eh]
	 SCS Correlation Energy    =      -3.1830124463528362 [Eh]
	 SCS Total Energy          =   -1138.9926293099335908 [Eh]
	-----------------------------------------------------------

  Dipole Moment: [D]
     X:    -3.6415      Y:     2.3756      Z:     4.0727     Total:     5.9574

*** Psi4 exiting successfully. Buy a developer a beer!
