                               Psi4 1.3.2 release

  ==> Input File <==

--------------------------------------------------------------------------
#psi4
#
memory 32 gb

molecule  {
0 1
  P        2.6114510     0.0433530    -0.1897960
  O       -0.7415730    -0.5166550    -0.8759300
  O       -3.1471200     1.7525200     0.1857420
  O       -3.5574290    -0.5524670    -0.9560380
  O       -0.9262260    -1.6975490     1.1507850
  O        1.5012860     1.2233130    -0.3203930
  O        1.7414800    -1.2994450    -0.3567160
  O        2.9590140    -0.0653000     1.3909990
  O        3.7753660     0.2843820    -1.0654240
  C       -2.1786680     0.7692630     0.5423480
  C       -0.8949230     0.8134730    -0.3165700
  C       -2.7827930    -0.6059770     0.2231310
  C       -1.4559645    -1.4428475    -0.1276683
  C        0.3225300     1.1924080     0.5079200
  H       -1.9376650     0.8286140     1.6117160
  H       -1.0169450     1.4955040    -1.1629930
  H       -3.3413290    -1.0227480     1.0706890
  H       -1.7077950    -2.2947630    -0.7028010
  H        0.4416350     0.4968690     1.3430810
  H        0.1975530     2.2044650     0.9092850
  H       -2.8909940     2.6048820     0.5755830
  H       -4.0423210     0.2940670    -0.9260900
  H       -0.0419210    -2.0739930     0.9730340
  H        0.9072950    -1.0817680    -0.8531670
  H        3.8470510     0.3069850     1.5449930
units angstrom
no_reorient  #important for SAPT in psi4, default
symmetry c1  #important for SAPT in psi4, default
}

set PROPERTIES_ORIGIN ["COM"]
properties('MP2/aug-cc-pvtz', properties = ['dipole'])
--------------------------------------------------------------------------

    Molecular point group: c1
  Charge       = 0
  Multiplicity = 1
  Basis Set: AUG-CC-PVTZ
    Blend: AUG-CC-PVTZ
  Basis Set: (AUG-CC-PVTZ AUX)
    Blend: AUG-CC-PVTZ-JKFIT

    Orbital Energies [Eh]
    ---------------------

    Doubly Occupied:

       1A    -80.116333     2A    -20.612232     3A    -20.608321
       4A    -20.606443     5A    -20.604885     6A    -20.600603
       7A    -20.595743     8A    -20.570609     9A    -20.515777
      10A    -11.360074    11A    -11.322913    12A    -11.321534
      13A    -11.320869    14A    -11.304953    15A     -7.631283
      16A     -5.529698    17A     -5.529625    18A     -5.528118
      19A     -1.470021    20A     -1.451638    21A     -1.410305
      22A     -1.391935    23A     -1.380051    24A     -1.376369
      25A     -1.367487    26A     -1.297135    27A     -1.086146
      28A     -1.032825    29A     -0.946369    30A     -0.857982
      31A     -0.842148    32A     -0.831449    33A     -0.772317
      34A     -0.756879    35A     -0.748809    36A     -0.732271
      37A     -0.717969    38A     -0.695082    39A     -0.686707
      40A     -0.671781    41A     -0.656084    42A     -0.649319
      43A     -0.633379    44A     -0.619755    45A     -0.601895
      46A     -0.594816    47A     -0.582800    48A     -0.576864
      49A     -0.569955    50A     -0.555340    51A     -0.544904
      52A     -0.534779    53A     -0.528383    54A     -0.510578
      55A     -0.493100    56A     -0.486232    57A     -0.474523
      58A     -0.468184    59A     -0.453274    60A     -0.448461

  @DF-RHF Final Energy: -1135.81411133442157

   => Energetics <=

    Nuclear Repulsion Energy =           1215.7093228085791452
    One-Electron Energy =               -3984.6742424797280364
    Two-Electron Energy =                1633.1508083367273230
    Total Energy =                      -1135.8141113344215682
  Basis Set: (AUG-CC-PVTZ AUX)
    Blend: AUG-CC-PVTZ-RI
    Molecular point group: c1

    Geometry (in Angstrom), charge = 0, multiplicity = 1:

       Center              X                  Y                   Z               Mass
    ------------   -----------------  -----------------  -----------------  -----------------
         P            2.554860911102     0.052501259045    -0.167804653850    30.973761998420
         O           -0.798163088898    -0.507506740955    -0.853938653850    15.994914619570
         O           -3.203710088898     1.761668259045     0.207733346150    15.994914619570
         O           -3.614019088898    -0.543318740955    -0.934046653850    15.994914619570
         O           -0.982816088898    -1.688400740955     1.172776346150    15.994914619570
         O            1.444695911102     1.232461259045    -0.298401653850    15.994914619570
         O            1.684889911102    -1.290296740955    -0.334724653850    15.994914619570
         O            2.902423911102    -0.056151740955     1.412990346150    15.994914619570
         O            3.718775911102     0.293530259045    -1.043432653850    15.994914619570
         C           -2.235258088898     0.778411259045     0.564339346150    12.000000000000
         C           -0.951513088898     0.822621259045    -0.294578653850    12.000000000000
         C           -2.839383088898    -0.596828740955     0.245122346150    12.000000000000
         C           -1.512554588898    -1.433699240955    -0.105676953850    12.000000000000
         C            0.265939911102     1.201556259045     0.529911346150    12.000000000000
         H           -1.994255088898     0.837762259045     1.633707346150     1.007825032230
         H           -1.073535088898     1.504652259045    -1.141001653850     1.007825032230
         H           -3.397919088898    -1.013599740955     1.092680346150     1.007825032230
         H           -1.764385088898    -2.285614740955    -0.680809653850     1.007825032230
         H            0.385044911102     0.506017259045     1.365072346150     1.007825032230
         H            0.140962911102     2.213613259045     0.931276346150     1.007825032230
         H           -2.947584088898     2.614030259045     0.597574346150     1.007825032230
         H           -4.098911088898     0.303215259045    -0.904098653850     1.007825032230
         H           -0.098511088898    -2.064844740955     0.995025346150     1.007825032230
         H            0.850704911102    -1.072619740955    -0.831175653850     1.007825032230
         H            3.790460911102     0.316133259045     1.566984346150     1.007825032230

  Basis Set: AUG-CC-PVTZ
    Blend: AUG-CC-PVTZ
  Basis Set: (AUG-CC-PVTZ AUX)
    Blend: AUG-CC-PVTZ-JKFIT
	 Reference Energy          =   -1135.8141113344215682 [Eh]
	 Singles Energy            =      -0.0000000000000000 [Eh]
	 Same-Spin Energy          =      -0.8162880053207349 [Eh]
	 Opposite-Spin Energy      =      -2.4219608555240741 [Eh]
	 Correlation Energy        =      -3.2382488608448092 [Eh]
	 Total Energy              =   -1139.0523601952663739 [Eh]

	 ================> DF-SCS-MP2 Energies <==================
	-----------------------------------------------------------
	 SCS Same-Spin Scale       =       0.3333333333333333 [-]
	 SCS Opposite-Spin Scale   =       1.2000000000000000 [-]
	 SCS Same-Spin Energy      =      -0.2720960017735783 [Eh]
	 SCS Opposite-Spin Energy  =      -2.9063530266288891 [Eh]
	 SCS Correlation Energy    =      -3.1784490284024676 [Eh]
	 SCS Total Energy          =   -1138.9925603628239514 [Eh]
	-----------------------------------------------------------

  Dipole Moment: [D]
     X:    -3.2292      Y:     2.3100      Z:     3.9336     Total:     5.5890

*** Psi4 exiting successfully. Buy a developer a beer!
