                               Psi4 1.4a3.dev225

  ==> Input File <==

--------------------------------------------------------------------------
#psi4
#
memory 32 gb

molecule  {
0 1
  P        2.6113660     0.0433910    -0.1897900
  O       -0.7416560    -0.5164190    -0.8762010
  O       -3.1473860     1.7523070     0.1855430
  O       -3.5574330    -0.5529450    -0.9556820
  O       -0.9255690    -1.6972900     1.1506350
  O        1.5012550     1.2233910    -0.3202530
  O        1.7411940    -1.2993510    -0.3564950
  O        2.9591660    -0.0655390     1.3909200
  O        3.7751240     0.2843830    -1.0656400
  C       -2.1787050     0.7693270     0.5422590
  C       -0.8949630     0.8136090    -0.3166340
  C       -2.7825860    -0.6061320     0.2233240
  C       -1.5366410    -1.4089160    -0.0835620
  C        0.3224410     1.1924200     0.5080110
  H       -1.9377070     0.8289040     1.6116220
  H       -1.0168440     1.4957790    -1.1629650
  H       -3.3408870    -1.0228010     1.0710960
  H       -1.7043102    -2.2785594    -0.6914215
  H        0.4414920     0.4968360     1.3431340
  H        0.1974400     2.2044510     0.9094280
  H       -2.8916000     2.6047160     0.5754970
  H       -4.0429610     0.2932130    -0.9254450
  H       -0.0410590    -2.0731950     0.9726900
  H        0.9073710    -1.0816890    -0.8535130
  H        3.8468470     0.3075270     1.5450430
units angstrom
no_reorient  #important for SAPT in psi4, default
symmetry c1  #important for SAPT in psi4, default
}

set PROPERTIES_ORIGIN ["COM"]
properties('MP2/aug-cc-pvtz', properties = ['dipole'])
--------------------------------------------------------------------------

    Molecular point group: c1
  Charge       = 0
  Multiplicity = 1
  Basis Set: AUG-CC-PVTZ
    Blend: AUG-CC-PVTZ
  Basis Set: (AUG-CC-PVTZ AUX)
    Blend: AUG-CC-PVTZ-JKFIT

    Orbital Energies [Eh]
    ---------------------

    Doubly Occupied:

       1A    -80.114949     2A    -20.611197     3A    -20.606154
       4A    -20.605066     5A    -20.603289     6A    -20.598476
       7A    -20.594542     8A    -20.574860     9A    -20.514604
      10A    -11.359971    11A    -11.323196    12A    -11.321199
      13A    -11.318103    14A    -11.307099    15A     -7.629899
      16A     -5.528319    17A     -5.528238    18A     -5.526737
      19A     -1.463131    20A     -1.448248    21A     -1.411364
      22A     -1.390653    23A     -1.378194    24A     -1.373578
      25A     -1.368560    26A     -1.295938    27A     -1.084144
      28A     -1.047280    29A     -0.947594    30A     -0.858032
      31A     -0.841950    32A     -0.830248    33A     -0.772229
      34A     -0.759815    35A     -0.748370    36A     -0.734242
      37A     -0.716817    38A     -0.692761    39A     -0.684303
      40A     -0.668017    41A     -0.653328    42A     -0.647737
      43A     -0.633014    44A     -0.613712    45A     -0.601032
      46A     -0.596134    47A     -0.582006    48A     -0.577506
      49A     -0.569825    50A     -0.560094    51A     -0.543424
      52A     -0.532583    53A     -0.527052    54A     -0.511861
      55A     -0.491482    56A     -0.487877    57A     -0.475083
      58A     -0.469258    59A     -0.465749    60A     -0.450432

  @DF-RHF Final Energy: -1135.82288600914262

   => Energetics <=

    Nuclear Repulsion Energy =           1216.0756810894902173
    One-Electron Energy =               -3985.4560224793067391
    Two-Electron Energy =                1633.5574553806741278
    Total Energy =                      -1135.8228860091426213
  Basis Set: (AUG-CC-PVTZ AUX)
    Blend: AUG-CC-PVTZ-RI
    Molecular point group: c1

    Geometry (in Angstrom), charge = 0, multiplicity = 1:

       Center              X                  Y                   Z               Mass
    ------------   -----------------  -----------------  -----------------  -----------------
         P            2.558987139813     0.050704414068    -0.170145391295    30.973761998420
         O           -0.794034860187    -0.509105585932    -0.856556391295    15.994914619570
         O           -3.199764860187     1.759620414068     0.205187608705    15.994914619570
         O           -3.609811860187    -0.545631585932    -0.936037391295    15.994914619570
         O           -0.977947860187    -1.689976585932     1.170279608705    15.994914619570
         O            1.448876139813     1.230704414068    -0.300608391295    15.994914619570
         O            1.688815139813    -1.292037585932    -0.336850391295    15.994914619570
         O            2.906787139813    -0.058225585932     1.410564608705    15.994914619570
         O            3.722745139813     0.291696414068    -1.045995391295    15.994914619570
         C           -2.231083860187     0.776640414068     0.561903608705    12.000000000000
         C           -0.947341860187     0.820922414068    -0.296989391295    12.000000000000
         C           -2.834964860187    -0.598818585932     0.242968608705    12.000000000000
         C           -1.589019860187    -1.401602585932    -0.063917391295    12.000000000000
         C            0.270062139813     1.199733414068     0.527655608705    12.000000000000
         H           -1.990085860187     0.836217414068     1.631266608705     1.007825032230
         H           -1.069222860187     1.503092414068    -1.143320391295     1.007825032230
         H           -3.393265860187    -1.015487585932     1.090740608705     1.007825032230
         H           -1.756689060187    -2.271245985932    -0.671776891295     1.007825032230
         H            0.389113139813     0.504149414068     1.362778608705     1.007825032230
         H            0.145061139813     2.211764414068     0.929072608705     1.007825032230
         H           -2.943978860187     2.612029414068     0.595141608705     1.007825032230
         H           -4.095339860187     0.300526414068    -0.905800391295     1.007825032230
         H           -0.093437860187    -2.065881585932     0.992334608705     1.007825032230
         H            0.854992139813    -1.074375585932    -0.833868391295     1.007825032230
         H            3.794468139813     0.314840414068     1.564687608705     1.007825032230

  Basis Set: AUG-CC-PVTZ
    Blend: AUG-CC-PVTZ
  Basis Set: (AUG-CC-PVTZ AUX)
    Blend: AUG-CC-PVTZ-JKFIT
	 Reference Energy          =   -1135.8228860091426213 [Eh]
	 Singles Energy            =      -0.0000000000000000 [Eh]
	 Same-Spin Energy          =      -0.8162112200363482 [Eh]
	 Opposite-Spin Energy      =      -2.4216540680978067 [Eh]
	 Correlation Energy        =      -3.2378652881341550 [Eh]
	 Total Energy              =   -1139.0607512972767381 [Eh]

	 ================> DF-SCS-MP2 Energies <==================
	-----------------------------------------------------------
	 SCS Same-Spin Scale       =       0.3333333333333333 [-]
	 SCS Opposite-Spin Scale   =       1.2000000000000000 [-]
	 SCS Same-Spin Energy      =      -0.2720704066787827 [Eh]
	 SCS Opposite-Spin Energy  =      -2.9059848817173681 [Eh]
	 SCS Correlation Energy    =      -3.1780552883961510 [Eh]
	 SCS Total Energy          =   -1139.0009412975387022 [Eh]
	-----------------------------------------------------------

  Dipole Moment: [D]
     X:    -3.4859      Y:     2.2939      Z:     4.0295     Total:     5.8009

*** Psi4 exiting successfully. Buy a developer a beer!
