                               Psi4 1.3.2 release

  ==> Input File <==

--------------------------------------------------------------------------
#psi4
#
memory 32 gb

molecule  {
0 1
  P        2.6114510     0.0433530    -0.1897960
  O       -0.7415730    -0.5166550    -0.8759300
  O       -3.1471200     1.7525200     0.1857420
  O       -3.5574290    -0.5524670    -0.9560380
  O       -0.9262260    -1.6975490     1.1507850
  O        1.4786302     1.2572159    -0.3498419
  O        1.7414800    -1.2994450    -0.3567160
  O        2.9590140    -0.0653000     1.3909990
  O        3.7753660     0.2843820    -1.0654240
  C       -2.1786680     0.7692630     0.5423480
  C       -0.8949230     0.8134730    -0.3165700
  C       -2.7827930    -0.6059770     0.2231310
  C       -1.5369320    -1.4089660    -0.0835960
  C        0.3225300     1.1924080     0.5079200
  H       -1.9376650     0.8286140     1.6117160
  H       -1.0169450     1.4955040    -1.1629930
  H       -3.3413290    -1.0227480     1.0706890
  H       -1.7077950    -2.2947630    -0.7028010
  H        0.4416350     0.4968690     1.3430810
  H        0.1975530     2.2044650     0.9092850
  H       -2.8909940     2.6048820     0.5755830
  H       -4.0423210     0.2940670    -0.9260900
  H       -0.0419210    -2.0739930     0.9730340
  H        0.9072950    -1.0817680    -0.8531670
  H        3.8470510     0.3069850     1.5449930
units angstrom
no_reorient  #important for SAPT in psi4, default
symmetry c1  #important for SAPT in psi4, default
}

set PROPERTIES_ORIGIN ["COM"]
properties('MP2/aug-cc-pvtz', properties = ['dipole'])
--------------------------------------------------------------------------

    Molecular point group: c1
  Charge       = 0
  Multiplicity = 1
  Basis Set: AUG-CC-PVTZ
    Blend: AUG-CC-PVTZ
  Basis Set: (AUG-CC-PVTZ AUX)
    Blend: AUG-CC-PVTZ-JKFIT

    Orbital Energies [Eh]
    ---------------------

    Doubly Occupied:

       1A    -80.119869     2A    -20.615583     3A    -20.605221
       4A    -20.605133     5A    -20.602753     6A    -20.601965
       7A    -20.594761     8A    -20.574134     9A    -20.517055
      10A    -11.361721    11A    -11.321837    12A    -11.317909
      13A    -11.316103    14A    -11.306399    15A     -7.634217
      16A     -5.532588    17A     -5.532435    18A     -5.531085
      19A     -1.461422    20A     -1.446389    21A     -1.410472
      22A     -1.389549    23A     -1.378850    24A     -1.372882
      25A     -1.367791    26A     -1.298066    27A     -1.081930
      28A     -1.044884    29A     -0.942607    30A     -0.857189
      31A     -0.842028    32A     -0.829261    33A     -0.770522
      34A     -0.757998    35A     -0.747058    36A     -0.733433
      37A     -0.717508    38A     -0.690257    39A     -0.682414
      40A     -0.666915    41A     -0.653295    42A     -0.647063
      43A     -0.630601    44A     -0.613385    45A     -0.600503
      46A     -0.595712    47A     -0.583551    48A     -0.577891
      49A     -0.568984    50A     -0.560543    51A     -0.545746
      52A     -0.530892    53A     -0.525214    54A     -0.511018
      55A     -0.489339    56A     -0.487073    57A     -0.476340
      58A     -0.469923    59A     -0.466290    60A     -0.448705

  @DF-RHF Final Energy: -1135.81796412338235

   => Energetics <=

    Nuclear Repulsion Energy =           1214.4430776518115636
    One-Electron Energy =               -3982.1975680462633136
    Two-Electron Energy =                1631.9365262710693969
    Total Energy =                      -1135.8179641233823531
  Basis Set: (AUG-CC-PVTZ AUX)
    Blend: AUG-CC-PVTZ-RI
    Molecular point group: c1

    Geometry (in Angstrom), charge = 0, multiplicity = 1:

       Center              X                  Y                   Z               Mass
    ------------   -----------------  -----------------  -----------------  -----------------
         P            2.560660374154     0.048376159143    -0.168056089253    30.973761998420
         O           -0.792363625846    -0.511631840857    -0.854190089253    15.994914619570
         O           -3.197910625846     1.757543159143     0.207481910747    15.994914619570
         O           -3.608219625846    -0.547443840857    -0.934298089253    15.994914619570
         O           -0.977016625846    -1.692525840857     1.172524910747    15.994914619570
         O            1.427839574154     1.262239059143    -0.328101989253    15.994914619570
         O            1.690689374154    -1.294421840857    -0.334976089253    15.994914619570
         O            2.908223374154    -0.060276840857     1.412738910747    15.994914619570
         O            3.724575374154     0.289405159143    -1.043684089253    15.994914619570
         C           -2.229458625846     0.774286159143     0.564087910747    12.000000000000
         C           -0.945713625846     0.818496159143    -0.294830089253    12.000000000000
         C           -2.833583625846    -0.600953840857     0.244870910747    12.000000000000
         C           -1.587722625846    -1.403942840857    -0.061856089253    12.000000000000
         C            0.271739374154     1.197431159143     0.529659910747    12.000000000000
         H           -1.988455625846     0.833637159143     1.633455910747     1.007825032230
         H           -1.067735625846     1.500527159143    -1.141253089253     1.007825032230
         H           -3.392119625846    -1.017724840857     1.092428910747     1.007825032230
         H           -1.758585625846    -2.289739840857    -0.681061089253     1.007825032230
         H            0.390844374154     0.501892159143     1.364820910747     1.007825032230
         H            0.146762374154     2.209488159143     0.931024910747     1.007825032230
         H           -2.941784625846     2.609905159143     0.597322910747     1.007825032230
         H           -4.093111625846     0.299090159143    -0.904350089253     1.007825032230
         H           -0.092711625846    -2.068969840857     0.994773910747     1.007825032230
         H            0.856504374154    -1.076744840857    -0.831427089253     1.007825032230
         H            3.796260374154     0.312008159143     1.566732910747     1.007825032230

  Basis Set: AUG-CC-PVTZ
    Blend: AUG-CC-PVTZ
  Basis Set: (AUG-CC-PVTZ AUX)
    Blend: AUG-CC-PVTZ-JKFIT
	 Reference Energy          =   -1135.8179641233823531 [Eh]
	 Singles Energy            =      -0.0000000000000000 [Eh]
	 Same-Spin Energy          =      -0.8169178112276098 [Eh]
	 Opposite-Spin Energy      =      -2.4236341942161683 [Eh]
	 Correlation Energy        =      -3.2405520054437780 [Eh]
	 Total Energy              =   -1139.0585161288261133 [Eh]

	 ================> DF-SCS-MP2 Energies <==================
	-----------------------------------------------------------
	 SCS Same-Spin Scale       =       0.3333333333333333 [-]
	 SCS Opposite-Spin Scale   =       1.2000000000000000 [-]
	 SCS Same-Spin Energy      =      -0.2723059370758699 [Eh]
	 SCS Opposite-Spin Energy  =      -2.9083610330594021 [Eh]
	 SCS Correlation Energy    =      -3.1806669701352721 [Eh]
	 SCS Total Energy          =   -1138.9986310935175879 [Eh]
	-----------------------------------------------------------

  Dipole Moment: [D]
     X:    -3.2815      Y:     2.1521      Z:     4.0793     Total:     5.6604

*** Psi4 exiting successfully. Buy a developer a beer!
