                               Psi4 1.3.2 release

  ==> Input File <==

--------------------------------------------------------------------------
#psi4
#
memory 32 gb

molecule  {
0 1
  P        2.6114510     0.0433530    -0.1897960
  O       -0.7415730    -0.5166550    -0.8759300
  O       -3.1471200     1.7525200     0.1857420
  O       -3.5574290    -0.5524670    -0.9560380
  O       -0.9262260    -1.6975490     1.1507850
  O        1.5778071     1.2620546    -0.1963187
  O        1.7414800    -1.2994450    -0.3567160
  O        2.9590140    -0.0653000     1.3909990
  O        3.7753660     0.2843820    -1.0654240
  C       -2.1786680     0.7692630     0.5423480
  C       -0.8949230     0.8134730    -0.3165700
  C       -2.7827930    -0.6059770     0.2231310
  C       -1.5369320    -1.4089660    -0.0835960
  C        0.3225300     1.1924080     0.5079200
  H       -1.9376650     0.8286140     1.6117160
  H       -1.0169450     1.4955040    -1.1629930
  H       -3.3413290    -1.0227480     1.0706890
  H       -1.7077950    -2.2947630    -0.7028010
  H        0.4416350     0.4968690     1.3430810
  H        0.1975530     2.2044650     0.9092850
  H       -2.8909940     2.6048820     0.5755830
  H       -4.0423210     0.2940670    -0.9260900
  H       -0.0419210    -2.0739930     0.9730340
  H        0.9072950    -1.0817680    -0.8531670
  H        3.8470510     0.3069850     1.5449930
units angstrom
no_reorient  #important for SAPT in psi4, default
symmetry c1  #important for SAPT in psi4, default
}

set PROPERTIES_ORIGIN ["COM"]
properties('MP2/aug-cc-pvtz', properties = ['dipole'])
--------------------------------------------------------------------------

    Molecular point group: c1
  Charge       = 0
  Multiplicity = 1
  Basis Set: AUG-CC-PVTZ
    Blend: AUG-CC-PVTZ
  Basis Set: (AUG-CC-PVTZ AUX)
    Blend: AUG-CC-PVTZ-JKFIT

    Orbital Energies [Eh]
    ---------------------

    Doubly Occupied:

       1A    -80.110828     2A    -20.608227     3A    -20.605878
       4A    -20.604205     5A    -20.602073     6A    -20.601020
       7A    -20.595966     8A    -20.576491     9A    -20.512889
      10A    -11.364017    11A    -11.326399    12A    -11.322944
      13A    -11.322256    14A    -11.309297    15A     -7.626379
      16A     -5.524926    17A     -5.524666    18A     -5.523162
      19A     -1.465074    20A     -1.450652    21A     -1.413357
      22A     -1.388590    23A     -1.379330    24A     -1.375262
      25A     -1.370117    26A     -1.294293    27A     -1.087114
      28A     -1.049465    29A     -0.950511    30A     -0.861439
      31A     -0.841078    32A     -0.828714    33A     -0.774821
      34A     -0.761782    35A     -0.751056    36A     -0.735098
      37A     -0.714896    38A     -0.689372    39A     -0.686863
      40A     -0.668410    41A     -0.651901    42A     -0.646917
      43A     -0.635882    44A     -0.615367    45A     -0.602284
      46A     -0.599181    47A     -0.582230    48A     -0.577830
      49A     -0.571173    50A     -0.559179    51A     -0.541562
      52A     -0.537222    53A     -0.524664    54A     -0.512944
      55A     -0.492535    56A     -0.489822    57A     -0.472242
      58A     -0.469162    59A     -0.464673    60A     -0.454314

  @DF-RHF Final Energy: -1135.82130061368434

   => Energetics <=

    Nuclear Repulsion Energy =           1215.6279633027086220
    One-Electron Energy =               -3984.4985197596161015
    Two-Electron Energy =                1633.0492558432229089
    Total Energy =                      -1135.8213006136843433
  Basis Set: (AUG-CC-PVTZ AUX)
    Blend: AUG-CC-PVTZ-RI
    Molecular point group: c1

    Geometry (in Angstrom), charge = 0, multiplicity = 1:

       Center              X                  Y                   Z               Mass
    ------------   -----------------  -----------------  -----------------  -----------------
         P            2.553763878719     0.048039688932    -0.178731680525    30.973761998420
         O           -0.799260121281    -0.511968311068    -0.864865680525    15.994914619570
         O           -3.204807121281     1.757206688932     0.196806319475    15.994914619570
         O           -3.615116121281    -0.547780311068    -0.944973680525    15.994914619570
         O           -0.983913121281    -1.692862311068     1.161849319475    15.994914619570
         O            1.520119978719     1.266741288932    -0.185254380525    15.994914619570
         O            1.683792878719    -1.294758311068    -0.345651680525    15.994914619570
         O            2.901326878719    -0.060613311068     1.402063319475    15.994914619570
         O            3.717678878719     0.289068688932    -1.054359680525    15.994914619570
         C           -2.236355121281     0.773949688932     0.553412319475    12.000000000000
         C           -0.952610121281     0.818159688932    -0.305505680525    12.000000000000
         C           -2.840480121281    -0.601290311068     0.234195319475    12.000000000000
         C           -1.594619121281    -1.404279311068    -0.072531680525    12.000000000000
         C            0.264842878719     1.197094688932     0.518984319475    12.000000000000
         H           -1.995352121281     0.833300688932     1.622780319475     1.007825032230
         H           -1.074632121281     1.500190688932    -1.151928680525     1.007825032230
         H           -3.399016121281    -1.018061311068     1.081753319475     1.007825032230
         H           -1.765482121281    -2.290076311068    -0.691736680525     1.007825032230
         H            0.383947878719     0.501555688932     1.354145319475     1.007825032230
         H            0.139865878719     2.209151688932     0.920349319475     1.007825032230
         H           -2.948681121281     2.609568688932     0.586647319475     1.007825032230
         H           -4.100008121281     0.298753688932    -0.915025680525     1.007825032230
         H           -0.099608121281    -2.069306311068     0.984098319475     1.007825032230
         H            0.849607878719    -1.077081311068    -0.842102680525     1.007825032230
         H            3.789363878719     0.311671688932     1.556057319475     1.007825032230

  Basis Set: AUG-CC-PVTZ
    Blend: AUG-CC-PVTZ
  Basis Set: (AUG-CC-PVTZ AUX)
    Blend: AUG-CC-PVTZ-JKFIT
	 Reference Energy          =   -1135.8213006136843433 [Eh]
	 Singles Energy            =      -0.0000000000000000 [Eh]
	 Same-Spin Energy          =      -0.8159461267379395 [Eh]
	 Opposite-Spin Energy      =      -2.4208069214110002 [Eh]
	 Correlation Energy        =      -3.2367530481489397 [Eh]
	 Total Energy              =   -1139.0580536618333554 [Eh]

	 ================> DF-SCS-MP2 Energies <==================
	-----------------------------------------------------------
	 SCS Same-Spin Scale       =       0.3333333333333333 [-]
	 SCS Opposite-Spin Scale   =       1.2000000000000000 [-]
	 SCS Same-Spin Energy      =      -0.2719820422459798 [Eh]
	 SCS Opposite-Spin Energy  =      -2.9049683056932003 [Eh]
	 SCS Correlation Energy    =      -3.1769503479391803 [Eh]
	 SCS Total Energy          =   -1138.9982509616236257 [Eh]
	-----------------------------------------------------------

  Dipole Moment: [D]
     X:    -3.8327      Y:     2.2506      Z:     3.7764     Total:     5.8323

*** Psi4 exiting successfully. Buy a developer a beer!
