                               Psi4 1.3.2 release

  ==> Input File <==

--------------------------------------------------------------------------
#psi4
#
memory 32 gb

molecule  {
0 1
  P        2.6114510     0.0433530    -0.1897960
  O       -0.7415730    -0.5166550    -0.8759300
  O       -3.1471200     1.7525200     0.1857420
  O       -3.5574290    -0.5524670    -0.9560380
  O       -0.9262260    -1.6975490     1.1507850
  O        1.5012860     1.2233130    -0.3203930
  O        1.7414800    -1.2994450    -0.3567160
  O        2.9590140    -0.0653000     1.3909990
  O        3.7753660     0.2843820    -1.0654240
  C       -2.1891780     0.7679046     0.5669653
  C       -0.8949230     0.8134730    -0.3165700
  C       -2.7827930    -0.6059770     0.2231310
  C       -1.5369320    -1.4089660    -0.0835960
  C        0.3225300     1.1924080     0.5079200
  H       -1.9376650     0.8286140     1.6117160
  H       -1.0169450     1.4955040    -1.1629930
  H       -3.3413290    -1.0227480     1.0706890
  H       -1.7077950    -2.2947630    -0.7028010
  H        0.4416350     0.4968690     1.3430810
  H        0.1975530     2.2044650     0.9092850
  H       -2.8909940     2.6048820     0.5755830
  H       -4.0423210     0.2940670    -0.9260900
  H       -0.0419210    -2.0739930     0.9730340
  H        0.9072950    -1.0817680    -0.8531670
  H        3.8470510     0.3069850     1.5449930
units angstrom
no_reorient  #important for SAPT in psi4, default
symmetry c1  #important for SAPT in psi4, default
}

set PROPERTIES_ORIGIN ["COM"]
properties('MP2/aug-cc-pvtz', properties = ['dipole'])
--------------------------------------------------------------------------

    Molecular point group: c1
  Charge       = 0
  Multiplicity = 1
  Basis Set: AUG-CC-PVTZ
    Blend: AUG-CC-PVTZ
  Basis Set: (AUG-CC-PVTZ AUX)
    Blend: AUG-CC-PVTZ-JKFIT

    Orbital Energies [Eh]
    ---------------------

    Doubly Occupied:

       1A    -80.114723     2A    -20.611033     3A    -20.606530
       4A    -20.604678     5A    -20.603190     6A    -20.598277
       7A    -20.594846     8A    -20.575198     9A    -20.514407
      10A    -11.362214    11A    -11.323017    12A    -11.320685
      13A    -11.318316    14A    -11.307188    15A     -7.629674
      16A     -5.528094    17A     -5.528012    18A     -5.526513
      19A     -1.462672    20A     -1.447891    21A     -1.411519
      22A     -1.390400    23A     -1.377984    24A     -1.373669
      25A     -1.368395    26A     -1.295746    27A     -1.081818
      28A     -1.046825    29A     -0.945830    30A     -0.858067
      31A     -0.842720    32A     -0.827838    33A     -0.772007
      34A     -0.759515    35A     -0.746971    36A     -0.736457
      37A     -0.716483    38A     -0.692362    39A     -0.684587
      40A     -0.667297    41A     -0.652875    42A     -0.647466
      43A     -0.631946    44A     -0.612996    45A     -0.600419
      46A     -0.595786    47A     -0.581867    48A     -0.577132
      49A     -0.570797    50A     -0.560041    51A     -0.543207
      52A     -0.532159    53A     -0.526898    54A     -0.514157
      55A     -0.490928    56A     -0.487829    57A     -0.474984
      58A     -0.469046    59A     -0.465195    60A     -0.447919

  @DF-RHF Final Energy: -1135.82209659337650

   => Energetics <=

    Nuclear Repulsion Energy =           1215.5088093286526600
    One-Electron Energy =               -3984.3472225605210042
    Two-Electron Energy =                1633.0163166384918441
    Total Energy =                      -1135.8220965933765001
  Basis Set: (AUG-CC-PVTZ AUX)
    Blend: AUG-CC-PVTZ-RI
    Molecular point group: c1

    Geometry (in Angstrom), charge = 0, multiplicity = 1:

       Center              X                  Y                   Z               Mass
    ------------   -----------------  -----------------  -----------------  -----------------
         P            2.559633252794     0.050804542955    -0.171388160634    30.973761998420
         O           -0.793390747206    -0.509203457045    -0.857522160634    15.994914619570
         O           -3.198937747206     1.759971542955     0.204149839366    15.994914619570
         O           -3.609246747206    -0.545015457045    -0.937630160634    15.994914619570
         O           -0.978043747206    -1.690097457045     1.169192839366    15.994914619570
         O            1.449468252794     1.230764542955    -0.301985160634    15.994914619570
         O            1.689662252794    -1.291993457045    -0.338308160634    15.994914619570
         O            2.907196252794    -0.057848457045     1.409406839366    15.994914619570
         O            3.723548252794     0.291833542955    -1.047016160634    15.994914619570
         C           -2.240995747206     0.775356142955     0.585373139366    12.000000000000
         C           -0.946740747206     0.820924542955    -0.298162160634    12.000000000000
         C           -2.834610747206    -0.598525457045     0.241538839366    12.000000000000
         C           -1.588749747206    -1.401514457045    -0.065188160634    12.000000000000
         C            0.270712252794     1.199859542955     0.526327839366    12.000000000000
         H           -1.989482747206     0.836065542955     1.630123839366     1.007825032230
         H           -1.068762747206     1.502955542955    -1.144585160634     1.007825032230
         H           -3.393146747206    -1.015296457045     1.089096839366     1.007825032230
         H           -1.759612747206    -2.287311457045    -0.684393160634     1.007825032230
         H            0.389817252794     0.504320542955     1.361488839366     1.007825032230
         H            0.145735252794     2.211916542955     0.927692839366     1.007825032230
         H           -2.942811747206     2.612333542955     0.593990839366     1.007825032230
         H           -4.094138747206     0.301518542955    -0.907682160634     1.007825032230
         H           -0.093738747206    -2.066541457045     0.991441839366     1.007825032230
         H            0.855477252794    -1.074316457045    -0.834759160634     1.007825032230
         H            3.795233252794     0.314436542955     1.563400839366     1.007825032230

  Basis Set: AUG-CC-PVTZ
    Blend: AUG-CC-PVTZ
  Basis Set: (AUG-CC-PVTZ AUX)
    Blend: AUG-CC-PVTZ-JKFIT
	 Reference Energy          =   -1135.8220965933765001 [Eh]
	 Singles Energy            =      -0.0000000000000000 [Eh]
	 Same-Spin Energy          =      -0.8161665846604140 [Eh]
	 Opposite-Spin Energy      =      -2.4217896861941979 [Eh]
	 Correlation Energy        =      -3.2379562708546121 [Eh]
	 Total Energy              =   -1139.0600528642310110 [Eh]

	 ================> DF-SCS-MP2 Energies <==================
	-----------------------------------------------------------
	 SCS Same-Spin Scale       =       0.3333333333333333 [-]
	 SCS Opposite-Spin Scale   =       1.2000000000000000 [-]
	 SCS Same-Spin Energy      =      -0.2720555282201380 [Eh]
	 SCS Opposite-Spin Energy  =      -2.9061476234330375 [Eh]
	 SCS Correlation Energy    =      -3.1782031516531752 [Eh]
	 SCS Total Energy          =   -1139.0002997450296789 [Eh]
	-----------------------------------------------------------

  Dipole Moment: [D]
     X:    -3.5106      Y:     2.3051      Z:     4.0597     Total:     5.8412

*** Psi4 exiting successfully. Buy a developer a beer!
