                               Psi4 1.3.2 release

  ==> Input File <==

--------------------------------------------------------------------------
#psi4
#
memory 32 gb

molecule  {
0 1
  P        2.6114510     0.0433530    -0.1897960
  O       -0.8146772    -0.4489053    -0.8666921
  O       -3.1471200     1.7525200     0.1857420
  O       -3.5574290    -0.5524670    -0.9560380
  O       -0.9262260    -1.6975490     1.1507850
  O        1.5012860     1.2233130    -0.3203930
  O        1.7414800    -1.2994450    -0.3567160
  O        2.9590140    -0.0653000     1.3909990
  O        3.7753660     0.2843820    -1.0654240
  C       -2.1786680     0.7692630     0.5423480
  C       -0.8949230     0.8134730    -0.3165700
  C       -2.7827930    -0.6059770     0.2231310
  C       -1.5369320    -1.4089660    -0.0835960
  C        0.3225300     1.1924080     0.5079200
  H       -1.9376650     0.8286140     1.6117160
  H       -1.0169450     1.4955040    -1.1629930
  H       -3.3413290    -1.0227480     1.0706890
  H       -1.7077950    -2.2947630    -0.7028010
  H        0.4416350     0.4968690     1.3430810
  H        0.1975530     2.2044650     0.9092850
  H       -2.8909940     2.6048820     0.5755830
  H       -4.0423210     0.2940670    -0.9260900
  H       -0.0419210    -2.0739930     0.9730340
  H        0.9072950    -1.0817680    -0.8531670
  H        3.8470510     0.3069850     1.5449930
units angstrom
no_reorient  #important for SAPT in psi4, default
symmetry c1  #important for SAPT in psi4, default
}

set PROPERTIES_ORIGIN ["COM"]
properties('MP2/aug-cc-pvtz', properties = ['dipole'])
--------------------------------------------------------------------------

    Molecular point group: c1
  Charge       = 0
  Multiplicity = 1
  Basis Set: AUG-CC-PVTZ
    Blend: AUG-CC-PVTZ
  Basis Set: (AUG-CC-PVTZ AUX)
    Blend: AUG-CC-PVTZ-JKFIT

    Orbital Energies [Eh]
    ---------------------

    Doubly Occupied:

       1A    -80.117099     2A    -20.612730     3A    -20.605349
       4A    -20.605045     5A    -20.602062     6A    -20.599494
       7A    -20.598417     8A    -20.572437     9A    -20.516334
      10A    -11.364337    11A    -11.318467    12A    -11.317624
      13A    -11.310162    14A    -11.304081    15A     -7.632063
      16A     -5.530454    17A     -5.530426    18A     -5.528893
      19A     -1.471996    20A     -1.453174    21A     -1.408069
      22A     -1.392076    23A     -1.382490    24A     -1.380231
      25A     -1.369469    26A     -1.297668    27A     -1.077031
      28A     -1.050024    29A     -0.951035    30A     -0.856125
      31A     -0.844409    32A     -0.827981    33A     -0.772731
      34A     -0.760438    35A     -0.750966    36A     -0.733803
      37A     -0.718721    38A     -0.695325    39A     -0.684516
      40A     -0.668349    41A     -0.656982    42A     -0.652412
      43A     -0.630375    44A     -0.618185    45A     -0.599907
      46A     -0.596679    47A     -0.584104    48A     -0.578497
      49A     -0.568030    50A     -0.559018    51A     -0.545919
      52A     -0.534427    53A     -0.529493    54A     -0.509772
      55A     -0.493877    56A     -0.479925    57A     -0.474742
      58A     -0.469722    59A     -0.465359    60A     -0.444412

  @DF-RHF Final Energy: -1135.82013871154049

   => Energetics <=

    Nuclear Repulsion Energy =           1217.1213387285029057
    One-Electron Energy =               -3987.4750848237176797
    Two-Electron Energy =                1634.5336073836742798
    Total Energy =                      -1135.8201387115404941
  Basis Set: (AUG-CC-PVTZ AUX)
    Blend: AUG-CC-PVTZ-RI
    Molecular point group: c1

    Geometry (in Angstrom), charge = 0, multiplicity = 1:

       Center              X                  Y                   Z               Mass
    ------------   -----------------  -----------------  -----------------  -----------------
         P            2.564168420487     0.046022543516    -0.170746265490    30.973761998420
         O           -0.861959779513    -0.446235756484    -0.847642365490    15.994914619570
         O           -3.194402579513     1.755189543516     0.204791734510    15.994914619570
         O           -3.604711579513    -0.549797456484    -0.936988265490    15.994914619570
         O           -0.973508579513    -1.694879456484     1.169834734510    15.994914619570
         O            1.454003420487     1.225982543516    -0.301343265490    15.994914619570
         O            1.694197420487    -1.296775456484    -0.337666265490    15.994914619570
         O            2.911731420487    -0.062630456484     1.410048734510    15.994914619570
         O            3.728083420487     0.287051543516    -1.046374265490    15.994914619570
         C           -2.225950579513     0.771932543516     0.561397734510    12.000000000000
         C           -0.942205579513     0.816142543516    -0.297520265490    12.000000000000
         C           -2.830075579513    -0.603307456484     0.242180734510    12.000000000000
         C           -1.584214579513    -1.406296456484    -0.064546265490    12.000000000000
         C            0.275247420487     1.195077543516     0.526969734510    12.000000000000
         H           -1.984947579513     0.831283543516     1.630765734510     1.007825032230
         H           -1.064227579513     1.498173543516    -1.143943265490     1.007825032230
         H           -3.388611579513    -1.020078456484     1.089738734510     1.007825032230
         H           -1.755077579513    -2.292093456484    -0.683751265490     1.007825032230
         H            0.394352420487     0.499538543516     1.362130734510     1.007825032230
         H            0.150270420487     2.207134543516     0.928334734510     1.007825032230
         H           -2.938276579513     2.607551543516     0.594632734510     1.007825032230
         H           -4.089603579513     0.296736543516    -0.907040265490     1.007825032230
         H           -0.089203579513    -2.071323456484     0.992083734510     1.007825032230
         H            0.860012420487    -1.079098456484    -0.834117265490     1.007825032230
         H            3.799768420487     0.309654543516     1.564042734510     1.007825032230

  Basis Set: AUG-CC-PVTZ
    Blend: AUG-CC-PVTZ
  Basis Set: (AUG-CC-PVTZ AUX)
    Blend: AUG-CC-PVTZ-JKFIT
	 Reference Energy          =   -1135.8201387115404941 [Eh]
	 Singles Energy            =      -0.0000000000000000 [Eh]
	 Same-Spin Energy          =      -0.8159179511385972 [Eh]
	 Opposite-Spin Energy      =      -2.4201475184272994 [Eh]
	 Correlation Energy        =      -3.2360654695658964 [Eh]
	 Total Energy              =   -1139.0562041811062954 [Eh]

	 ================> DF-SCS-MP2 Energies <==================
	-----------------------------------------------------------
	 SCS Same-Spin Scale       =       0.3333333333333333 [-]
	 SCS Opposite-Spin Scale   =       1.2000000000000000 [-]
	 SCS Same-Spin Energy      =      -0.2719726503795324 [Eh]
	 SCS Opposite-Spin Energy  =      -2.9041770221127590 [Eh]
	 SCS Correlation Energy    =      -3.1761496724922913 [Eh]
	 SCS Total Energy          =   -1138.9962883840328232 [Eh]
	-----------------------------------------------------------

  Dipole Moment: [D]
     X:    -3.1919      Y:     2.0289      Z:     3.9808     Total:     5.4911

*** Psi4 exiting successfully. Buy a developer a beer!
