                               Psi4 1.3.2 release

  ==> Input File <==

--------------------------------------------------------------------------
#psi4
#
memory 32 gb

molecule  {
0 1
  P        2.6114510     0.0433530    -0.1897960
  O       -0.7415730    -0.5166550    -0.8759300
  O       -3.1471200     1.7525200     0.1857420
  O       -3.5574290    -0.5524670    -0.9560380
  O       -0.9262260    -1.6975490     1.1507850
  O        1.5012860     1.2233130    -0.3203930
  O        1.7414800    -1.2994450    -0.3567160
  O        2.9590140    -0.0653000     1.3909990
  O        3.7753660     0.2843820    -1.0654240
  C       -2.1786680     0.7692630     0.5423480
  C       -0.8731959     0.8958002    -0.3796783
  C       -2.7827930    -0.6059770     0.2231310
  C       -1.5369320    -1.4089660    -0.0835960
  C        0.3225300     1.1924080     0.5079200
  H       -1.9376650     0.8286140     1.6117160
  H       -1.0169450     1.4955040    -1.1629930
  H       -3.3413290    -1.0227480     1.0706890
  H       -1.7077950    -2.2947630    -0.7028010
  H        0.4416350     0.4968690     1.3430810
  H        0.1975530     2.2044650     0.9092850
  H       -2.8909940     2.6048820     0.5755830
  H       -4.0423210     0.2940670    -0.9260900
  H       -0.0419210    -2.0739930     0.9730340
  H        0.9072950    -1.0817680    -0.8531670
  H        3.8470510     0.3069850     1.5449930
units angstrom
no_reorient  #important for SAPT in psi4, default
symmetry c1  #important for SAPT in psi4, default
}

set PROPERTIES_ORIGIN ["COM"]
properties('MP2/aug-cc-pvtz', properties = ['dipole'])
--------------------------------------------------------------------------

    Molecular point group: c1
  Charge       = 0
  Multiplicity = 1
  Basis Set: AUG-CC-PVTZ
    Blend: AUG-CC-PVTZ
  Basis Set: (AUG-CC-PVTZ AUX)
    Blend: AUG-CC-PVTZ-JKFIT

    Orbital Energies [Eh]
    ---------------------

    Doubly Occupied:

       1A    -80.114314     2A    -20.611187     3A    -20.604587
       4A    -20.604204     5A    -20.596736     6A    -20.595938
       7A    -20.592012     8A    -20.573863     9A    -20.514111
      10A    -11.359833    11A    -11.326411    12A    -11.323992
      13A    -11.318665    14A    -11.306460    15A     -7.629271
      16A     -5.527700    17A     -5.527596    18A     -5.526115
      19A     -1.457969    20A     -1.441607    21A     -1.409892
      22A     -1.390726    23A     -1.377070    24A     -1.371916
      25A     -1.358657    26A     -1.295484    27A     -1.079202
      28A     -1.045899    29A     -0.943857    30A     -0.864613
      31A     -0.845177    32A     -0.825059    33A     -0.770662
      34A     -0.756175    35A     -0.743875    36A     -0.731489
      37A     -0.715699    38A     -0.692742    39A     -0.683558
      40A     -0.666940    41A     -0.652709    42A     -0.644325
      43A     -0.637763    44A     -0.611805    45A     -0.608180
      46A     -0.591235    47A     -0.581374    48A     -0.579067
      49A     -0.568398    50A     -0.557125    51A     -0.542402
      52A     -0.533098    53A     -0.523571    54A     -0.510459
      55A     -0.487849    56A     -0.482856    57A     -0.476083
      58A     -0.469229    59A     -0.465920    60A     -0.446470

  @DF-RHF Final Energy: -1135.80874489697248

   => Energetics <=

    Nuclear Repulsion Energy =           1214.0692970576039897
    One-Electron Energy =               -3981.5737177194755532
    Two-Electron Energy =                1631.6956757648988514
    Total Energy =                      -1135.8087448969724846
  Basis Set: (AUG-CC-PVTZ AUX)
    Blend: AUG-CC-PVTZ-RI
    Molecular point group: c1

    Geometry (in Angstrom), charge = 0, multiplicity = 1:

       Center              X                  Y                   Z               Mass
    ------------   -----------------  -----------------  -----------------  -----------------
         P            2.557951457201     0.046438701323    -0.166811553946    30.973761998420
         O           -0.795072542799    -0.513569298677    -0.852945553946    15.994914619570
         O           -3.200619542799     1.755605701323     0.208726446054    15.994914619570
         O           -3.610928542799    -0.549381298677    -0.933053553946    15.994914619570
         O           -0.979725542799    -1.694463298677     1.173769446054    15.994914619570
         O            1.447786457201     1.226398701323    -0.297408553946    15.994914619570
         O            1.687980457201    -1.296359298677    -0.333731553946    15.994914619570
         O            2.905514457201    -0.062214298677     1.413983446054    15.994914619570
         O            3.721866457201     0.287467701323    -1.042439553946    15.994914619570
         C           -2.232167542799     0.772348701323     0.565332446054    12.000000000000
         C           -0.926695442799     0.898885901323    -0.356693853946    12.000000000000
         C           -2.836292542799    -0.602891298677     0.246115446054    12.000000000000
         C           -1.590431542799    -1.405880298677    -0.060611553946    12.000000000000
         C            0.269030457201     1.195493701323     0.530904446054    12.000000000000
         H           -1.991164542799     0.831699701323     1.634700446054     1.007825032230
         H           -1.070444542799     1.498589701323    -1.140008553946     1.007825032230
         H           -3.394828542799    -1.019662298677     1.093673446054     1.007825032230
         H           -1.761294542799    -2.291677298677    -0.679816553946     1.007825032230
         H            0.388135457201     0.499954701323     1.366065446054     1.007825032230
         H            0.144053457201     2.207550701323     0.932269446054     1.007825032230
         H           -2.944493542799     2.607967701323     0.598567446054     1.007825032230
         H           -4.095820542799     0.297152701323    -0.903105553946     1.007825032230
         H           -0.095420542799    -2.070907298677     0.996018446054     1.007825032230
         H            0.853795457201    -1.078682298677    -0.830182553946     1.007825032230
         H            3.793551457201     0.310070701323     1.567977446054     1.007825032230

  Basis Set: AUG-CC-PVTZ
    Blend: AUG-CC-PVTZ
  Basis Set: (AUG-CC-PVTZ AUX)
    Blend: AUG-CC-PVTZ-JKFIT
	 Reference Energy          =   -1135.8087448969724846 [Eh]
	 Singles Energy            =      -0.0000000000000000 [Eh]
	 Same-Spin Energy          =      -0.8159172752457229 [Eh]
	 Opposite-Spin Energy      =      -2.4222604720651448 [Eh]
	 Correlation Energy        =      -3.2381777473108677 [Eh]
	 Total Energy              =   -1139.0469226442833133 [Eh]

	 ================> DF-SCS-MP2 Energies <==================
	-----------------------------------------------------------
	 SCS Same-Spin Scale       =       0.3333333333333333 [-]
	 SCS Opposite-Spin Scale   =       1.2000000000000000 [-]
	 SCS Same-Spin Energy      =      -0.2719724250819076 [Eh]
	 SCS Opposite-Spin Energy  =      -2.9067125664781739 [Eh]
	 SCS Correlation Energy    =      -3.1786849915600817 [Eh]
	 SCS Total Energy          =   -1138.9874298885324606 [Eh]
	-----------------------------------------------------------

  Dipole Moment: [D]
     X:    -3.4914      Y:     2.4893      Z:     4.0253     Total:     5.8813

*** Psi4 exiting successfully. Buy a developer a beer!
