                               Psi4 1.3.2 release

  ==> Input File <==

--------------------------------------------------------------------------
#psi4
#
memory 32 gb

molecule  {
0 1
  P        2.6114510     0.0433530    -0.1897960
  O       -0.7415730    -0.5166550    -0.8759300
  O       -3.1471200     1.7525200     0.1857420
  O       -3.5574290    -0.5524670    -0.9560380
  O       -0.9262260    -1.6975490     1.1507850
  O        1.5012860     1.2233130    -0.3203930
  O        1.7414800    -1.2994450    -0.3567160
  O        2.9590140    -0.0653000     1.3909990
  O        3.7753660     0.2843820    -1.0654240
  C       -2.2328002     0.7416319     0.4532478
  C       -0.8949230     0.8134730    -0.3165700
  C       -2.7827930    -0.6059770     0.2231310
  C       -1.5369320    -1.4089660    -0.0835960
  C        0.3225300     1.1924080     0.5079200
  H       -1.9376650     0.8286140     1.6117160
  H       -1.0169450     1.4955040    -1.1629930
  H       -3.3413290    -1.0227480     1.0706890
  H       -1.7077950    -2.2947630    -0.7028010
  H        0.4416350     0.4968690     1.3430810
  H        0.1975530     2.2044650     0.9092850
  H       -2.8909940     2.6048820     0.5755830
  H       -4.0423210     0.2940670    -0.9260900
  H       -0.0419210    -2.0739930     0.9730340
  H        0.9072950    -1.0817680    -0.8531670
  H        3.8470510     0.3069850     1.5449930
units angstrom
no_reorient  #important for SAPT in psi4, default
symmetry c1  #important for SAPT in psi4, default
}

set PROPERTIES_ORIGIN ["COM"]
properties('MP2/aug-cc-pvtz', properties = ['dipole'])
--------------------------------------------------------------------------

    Molecular point group: c1
  Charge       = 0
  Multiplicity = 1
  Basis Set: AUG-CC-PVTZ
    Blend: AUG-CC-PVTZ
  Basis Set: (AUG-CC-PVTZ AUX)
    Blend: AUG-CC-PVTZ-JKFIT

    Orbital Energies [Eh]
    ---------------------

    Doubly Occupied:

       1A    -80.115222     2A    -20.611215     3A    -20.607811
       4A    -20.606042     5A    -20.602957     6A    -20.598482
       7A    -20.594443     8A    -20.574038     9A    -20.514848
      10A    -11.363619    11A    -11.327464    12A    -11.322111
      13A    -11.317978    14A    -11.304985    15A     -7.630169
      16A     -5.528593    17A     -5.528506    18A     -5.527004
      19A     -1.464271    20A     -1.449498    21A     -1.422432
      22A     -1.390991    23A     -1.378468    24A     -1.376566
      25A     -1.369161    26A     -1.296159    27A     -1.084980
      28A     -1.051887    29A     -0.949018    30A     -0.861685
      31A     -0.839880    32A     -0.831587    33A     -0.772596
      34A     -0.759791    35A     -0.754203    36A     -0.725585
      37A     -0.717722    38A     -0.693167    39A     -0.688826
      40A     -0.668923    41A     -0.653732    42A     -0.649734
      43A     -0.634405    44A     -0.620756    45A     -0.601391
      46A     -0.599588    47A     -0.582275    48A     -0.575676
      49A     -0.569526    50A     -0.561099    51A     -0.543356
      52A     -0.531951    53A     -0.527181    54A     -0.505786
      55A     -0.492345    56A     -0.478330    57A     -0.473903
      58A     -0.468592    59A     -0.462303    60A     -0.454389

  @DF-RHF Final Energy: -1135.81125477598562

   => Energetics <=

    Nuclear Repulsion Energy =           1216.9405896199455128
    One-Electron Energy =               -3987.0852831759934816
    Two-Electron Energy =                1634.3334387800623517
    Total Energy =                      -1135.8112547759856170
  Basis Set: (AUG-CC-PVTZ AUX)
    Blend: AUG-CC-PVTZ-RI
    Molecular point group: c1

    Geometry (in Angstrom), charge = 0, multiplicity = 1:

       Center              X                  Y                   Z               Mass
    ------------   -----------------  -----------------  -----------------  -----------------
         P            2.561909004140     0.052175178374    -0.165455567741    30.973761998420
         O           -0.791114995860    -0.507832821626    -0.851589567741    15.994914619570
         O           -3.196661995860     1.761342178374     0.210082432259    15.994914619570
         O           -3.606970995860    -0.543644821626    -0.931697567741    15.994914619570
         O           -0.975767995860    -1.688726821626     1.175125432259    15.994914619570
         O            1.451744004140     1.232135178374    -0.296052567741    15.994914619570
         O            1.691938004140    -1.290622821626    -0.332375567741    15.994914619570
         O            2.909472004140    -0.056477821626     1.415339432259    15.994914619570
         O            3.725824004140     0.293204178374    -1.041083567741    15.994914619570
         C           -2.282342195860     0.750454078374     0.477588232259    12.000000000000
         C           -0.944464995860     0.822295178374    -0.292229567741    12.000000000000
         C           -2.832334995860    -0.597154821626     0.247471432259    12.000000000000
         C           -1.586473995860    -1.400143821626    -0.059255567741    12.000000000000
         C            0.272988004140     1.201230178374     0.532260432259    12.000000000000
         H           -1.987206995860     0.837436178374     1.636056432259     1.007825032230
         H           -1.066486995860     1.504326178374    -1.138652567741     1.007825032230
         H           -3.390870995860    -1.013925821626     1.095029432259     1.007825032230
         H           -1.757336995860    -2.285940821626    -0.678460567741     1.007825032230
         H            0.392093004140     0.505691178374     1.367421432259     1.007825032230
         H            0.148011004140     2.213287178374     0.933625432259     1.007825032230
         H           -2.940535995860     2.613704178374     0.599923432259     1.007825032230
         H           -4.091862995860     0.302889178374    -0.901749567741     1.007825032230
         H           -0.091462995860    -2.065170821626     0.997374432259     1.007825032230
         H            0.857753004140    -1.072945821626    -0.828826567741     1.007825032230
         H            3.797509004140     0.315807178374     1.569333432259     1.007825032230

  Basis Set: AUG-CC-PVTZ
    Blend: AUG-CC-PVTZ
  Basis Set: (AUG-CC-PVTZ AUX)
    Blend: AUG-CC-PVTZ-JKFIT
	 Reference Energy          =   -1135.8112547759856170 [Eh]
	 Singles Energy            =      -0.0000000000000000 [Eh]
	 Same-Spin Energy          =      -0.8165671922627372 [Eh]
	 Opposite-Spin Energy      =      -2.4217662244352849 [Eh]
	 Correlation Energy        =      -3.2383334166980222 [Eh]
	 Total Energy              =   -1139.0495881926835864 [Eh]

	 ================> DF-SCS-MP2 Energies <==================
	-----------------------------------------------------------
	 SCS Same-Spin Scale       =       0.3333333333333333 [-]
	 SCS Opposite-Spin Scale   =       1.2000000000000000 [-]
	 SCS Same-Spin Energy      =      -0.2721890640875790 [Eh]
	 SCS Opposite-Spin Energy  =      -2.9061194693223418 [Eh]
	 SCS Correlation Energy    =      -3.1783085334099210 [Eh]
	 SCS Total Energy          =   -1138.9895633093956349 [Eh]
	-----------------------------------------------------------

  Dipole Moment: [D]
     X:    -3.5195      Y:     2.3176      Z:     3.9222     Total:     5.7569

*** Psi4 exiting successfully. Buy a developer a beer!
