                               Psi4 1.3.2 release

  ==> Input File <==

--------------------------------------------------------------------------
#psi4
#
memory 32 gb

molecule  {
0 1
  P        2.6114510     0.0433530    -0.1897960
  O       -0.7415730    -0.5166550    -0.8759300
  O       -3.1471200     1.7525200     0.1857420
  O       -3.5574290    -0.5524670    -0.9560380
  O       -0.9262260    -1.6975490     1.1507850
  O        1.5012860     1.2233130    -0.3203930
  O        1.7414800    -1.2994450    -0.3567160
  O        2.9590140    -0.0653000     1.3909990
  O        3.7753660     0.2843820    -1.0654240
  C       -2.1641467     0.7762097     0.5639857
  C       -0.8949230     0.8134730    -0.3165700
  C       -2.7827930    -0.6059770     0.2231310
  C       -1.5369320    -1.4089660    -0.0835960
  C        0.3225300     1.1924080     0.5079200
  H       -1.9376650     0.8286140     1.6117160
  H       -1.0169450     1.4955040    -1.1629930
  H       -3.3413290    -1.0227480     1.0706890
  H       -1.7077950    -2.2947630    -0.7028010
  H        0.4416350     0.4968690     1.3430810
  H        0.1975530     2.2044650     0.9092850
  H       -2.8909940     2.6048820     0.5755830
  H       -4.0423210     0.2940670    -0.9260900
  H       -0.0419210    -2.0739930     0.9730340
  H        0.9072950    -1.0817680    -0.8531670
  H        3.8470510     0.3069850     1.5449930
units angstrom
no_reorient  #important for SAPT in psi4, default
symmetry c1  #important for SAPT in psi4, default
}

set PROPERTIES_ORIGIN ["COM"]
properties('MP2/aug-cc-pvtz', properties = ['dipole'])
--------------------------------------------------------------------------

    Molecular point group: c1
  Charge       = 0
  Multiplicity = 1
  Basis Set: AUG-CC-PVTZ
    Blend: AUG-CC-PVTZ
  Basis Set: (AUG-CC-PVTZ AUX)
    Blend: AUG-CC-PVTZ-JKFIT

    Orbital Energies [Eh]
    ---------------------

    Doubly Occupied:

       1A    -80.114903     2A    -20.611204     3A    -20.605835
       4A    -20.604872     5A    -20.603715     6A    -20.598487
       7A    -20.594927     8A    -20.575182     9A    -20.514561
      10A    -11.361947    11A    -11.322639    12A    -11.321105
      13A    -11.318593    14A    -11.308021    15A     -7.629855
      16A     -5.528274    17A     -5.528192    18A     -5.526693
      19A     -1.462999    20A     -1.448064    21A     -1.408484
      22A     -1.390615    23A     -1.378173    24A     -1.372938
      25A     -1.368573    26A     -1.295904    27A     -1.084495
      28A     -1.045672    29A     -0.946323    30A     -0.857450
      31A     -0.843173    32A     -0.828635    33A     -0.771643
      34A     -0.759580    35A     -0.746058    36A     -0.736386
      37A     -0.716532    38A     -0.692778    39A     -0.683440
      40A     -0.666659    41A     -0.653101    42A     -0.647171
      43A     -0.632668    44A     -0.612398    45A     -0.600994
      46A     -0.595162    47A     -0.581997    48A     -0.577865
      49A     -0.569907    50A     -0.559915    51A     -0.543414
      52A     -0.532339    53A     -0.527093    54A     -0.513697
      55A     -0.491146    56A     -0.488918    57A     -0.475099
      58A     -0.469224    59A     -0.465661    60A     -0.449090

  @DF-RHF Final Energy: -1135.82150905181379

   => Energetics <=

    Nuclear Repulsion Energy =           1215.6665952376606583
    One-Electron Energy =               -3984.6553369062353340
    Two-Electron Energy =                1633.1672326167608844
    Total Energy =                      -1135.8215090518137913
  Basis Set: (AUG-CC-PVTZ AUX)
    Blend: AUG-CC-PVTZ-RI
    Molecular point group: c1

    Geometry (in Angstrom), charge = 0, multiplicity = 1:

       Center              X                  Y                   Z               Mass
    ------------   -----------------  -----------------  -----------------  -----------------
         P            2.558327380677     0.050371269473    -0.171232716188    30.973761998420
         O           -0.794696619323    -0.509636730527    -0.857366716188    15.994914619570
         O           -3.200243619323     1.759538269473     0.204305283812    15.994914619570
         O           -3.610552619323    -0.545448730527    -0.937474716188    15.994914619570
         O           -0.979349619323    -1.690530730527     1.169348283812    15.994914619570
         O            1.448162380677     1.230331269473    -0.301829716188    15.994914619570
         O            1.688356380677    -1.292426730527    -0.338152716188    15.994914619570
         O            2.905890380677    -0.058281730527     1.409562283812    15.994914619570
         O            3.722242380677     0.291400269473    -1.046860716188    15.994914619570
         C           -2.217270319323     0.783227969473     0.582548983812    12.000000000000
         C           -0.948046619323     0.820491269473    -0.298006716188    12.000000000000
         C           -2.835916619323    -0.598958730527     0.241694283812    12.000000000000
         C           -1.590055619323    -1.401947730527    -0.065032716188    12.000000000000
         C            0.269406380677     1.199426269473     0.526483283812    12.000000000000
         H           -1.990788619323     0.835632269473     1.630279283812     1.007825032230
         H           -1.070068619323     1.502522269473    -1.144429716188     1.007825032230
         H           -3.394452619323    -1.015729730527     1.089252283812     1.007825032230
         H           -1.760918619323    -2.287744730527    -0.684237716188     1.007825032230
         H            0.388511380677     0.503887269473     1.361644283812     1.007825032230
         H            0.144429380677     2.211483269473     0.927848283812     1.007825032230
         H           -2.944117619323     2.611900269473     0.594146283812     1.007825032230
         H           -4.095444619323     0.301085269473    -0.907526716188     1.007825032230
         H           -0.095044619323    -2.066974730527     0.991597283812     1.007825032230
         H            0.854171380677    -1.074749730527    -0.834603716188     1.007825032230
         H            3.793927380677     0.314003269473     1.563556283812     1.007825032230

  Basis Set: AUG-CC-PVTZ
    Blend: AUG-CC-PVTZ
  Basis Set: (AUG-CC-PVTZ AUX)
    Blend: AUG-CC-PVTZ-JKFIT
	 Reference Energy          =   -1135.8215090518137913 [Eh]
	 Singles Energy            =      -0.0000000000000000 [Eh]
	 Same-Spin Energy          =      -0.8163183207410402 [Eh]
	 Opposite-Spin Energy      =      -2.4221479144000089 [Eh]
	 Correlation Energy        =      -3.2384662351410491 [Eh]
	 Total Energy              =   -1139.0599752869547956 [Eh]

	 ================> DF-SCS-MP2 Energies <==================
	-----------------------------------------------------------
	 SCS Same-Spin Scale       =       0.3333333333333333 [-]
	 SCS Opposite-Spin Scale   =       1.2000000000000000 [-]
	 SCS Same-Spin Energy      =      -0.2721061069136800 [Eh]
	 SCS Opposite-Spin Energy  =      -2.9065774972800105 [Eh]
	 SCS Correlation Energy    =      -3.1786836041936906 [Eh]
	 SCS Total Energy          =   -1139.0001926560075844 [Eh]
	-----------------------------------------------------------

  Dipole Moment: [D]
     X:    -3.4757      Y:     2.2879      Z:     4.0511     Total:     5.8075

*** Psi4 exiting successfully. Buy a developer a beer!
