                               Psi4 1.3.2 release

  ==> Input File <==

--------------------------------------------------------------------------
#psi4
#
memory 32 gb

molecule  {
0 1
  P        2.6114510     0.0433530    -0.1897960
  O       -0.7415730    -0.5166550    -0.8759300
  O       -3.1471200     1.7525200     0.1857420
  O       -3.5574290    -0.5524670    -0.9560380
  O       -0.9262260    -1.6975490     1.1507850
  O        1.5012860     1.2233130    -0.3203930
  O        1.7414800    -1.2994450    -0.3567160
  O        2.9590140    -0.0653000     1.3909990
  O        3.7753660     0.2843820    -1.0654240
  C       -2.1998687     0.7661277     0.5914779
  C       -0.8949230     0.8134730    -0.3165700
  C       -2.7827930    -0.6059770     0.2231310
  C       -1.5369320    -1.4089660    -0.0835960
  C        0.3225300     1.1924080     0.5079200
  H       -1.9376650     0.8286140     1.6117160
  H       -1.0169450     1.4955040    -1.1629930
  H       -3.3413290    -1.0227480     1.0706890
  H       -1.7077950    -2.2947630    -0.7028010
  H        0.4416350     0.4968690     1.3430810
  H        0.1975530     2.2044650     0.9092850
  H       -2.8909940     2.6048820     0.5755830
  H       -4.0423210     0.2940670    -0.9260900
  H       -0.0419210    -2.0739930     0.9730340
  H        0.9072950    -1.0817680    -0.8531670
  H        3.8470510     0.3069850     1.5449930
units angstrom
no_reorient  #important for SAPT in psi4, default
symmetry c1  #important for SAPT in psi4, default
}

set PROPERTIES_ORIGIN ["COM"]
properties('MP2/aug-cc-pvtz', properties = ['dipole'])
--------------------------------------------------------------------------

    Molecular point group: c1
  Charge       = 0
  Multiplicity = 1
  Basis Set: AUG-CC-PVTZ
    Blend: AUG-CC-PVTZ
  Basis Set: (AUG-CC-PVTZ AUX)
    Blend: AUG-CC-PVTZ-JKFIT

    Orbital Energies [Eh]
    ---------------------

    Doubly Occupied:

       1A    -80.114480     2A    -20.610856     3A    -20.606856
       4A    -20.604240     5A    -20.602898     6A    -20.598080
       7A    -20.594872     8A    -20.575596     9A    -20.514198
      10A    -11.362243    11A    -11.322875    12A    -11.320102
      13A    -11.318362    14A    -11.307253    15A     -7.629432
      16A     -5.527851    17A     -5.527771    18A     -5.526272
      19A     -1.462194    20A     -1.447511    21A     -1.411470
      22A     -1.390112    23A     -1.377761    24A     -1.373708
      25A     -1.368138    26A     -1.295538    27A     -1.079665
      28A     -1.046694    29A     -0.945089    30A     -0.858435
      31A     -0.843567    32A     -0.826495    33A     -0.772207
      34A     -0.759613    35A     -0.746701    36A     -0.738143
      37A     -0.716131    38A     -0.691951    39A     -0.684788
      40A     -0.667384    41A     -0.652612    42A     -0.647248
      43A     -0.631023    44A     -0.612272    45A     -0.599905
      46A     -0.595458    47A     -0.581699    48A     -0.576911
      49A     -0.571609    50A     -0.560055    51A     -0.543056
      52A     -0.532141    53A     -0.526867    54A     -0.516151
      55A     -0.491321    56A     -0.487489    57A     -0.474798
      58A     -0.468840    59A     -0.464648    60A     -0.444973

  @DF-RHF Final Energy: -1135.81992722754831

   => Energetics <=

    Nuclear Repulsion Energy =           1215.0933035344532982
    One-Electron Energy =               -3983.5332407849496121
    Two-Electron Energy =                1632.6200100229480086
    Total Energy =                      -1135.8199272275483054
  Basis Set: (AUG-CC-PVTZ AUX)
    Blend: AUG-CC-PVTZ-RI
    Molecular point group: c1

    Geometry (in Angstrom), charge = 0, multiplicity = 1:

       Center              X                  Y                   Z               Mass
    ------------   -----------------  -----------------  -----------------  -----------------
         P            2.560190981999     0.050897243061    -0.172666972396    30.973761998420
         O           -0.792833018001    -0.509110756939    -0.858800972396    15.994914619570
         O           -3.198380018001     1.760064243061     0.202871027604    15.994914619570
         O           -3.608689018001    -0.544922756939    -0.938908972396    15.994914619570
         O           -0.977486018001    -1.690004756939     1.167914027604    15.994914619570
         O            1.450025981999     1.230857243061    -0.303263972396    15.994914619570
         O            1.690219981999    -1.291900756939    -0.339586972396    15.994914619570
         O            2.907753981999    -0.057755756939     1.408128027604    15.994914619570
         O            3.724105981999     0.291926243061    -1.048294972396    15.994914619570
         C           -2.251128718001     0.773671943061     0.608606927604    12.000000000000
         C           -0.946183018001     0.821017243061    -0.299440972396    12.000000000000
         C           -2.834053018001    -0.598432756939     0.240260027604    12.000000000000
         C           -1.588192018001    -1.401421756939    -0.066466972396    12.000000000000
         C            0.271269981999     1.199952243061     0.525049027604    12.000000000000
         H           -1.988925018001     0.836158243061     1.628845027604     1.007825032230
         H           -1.068205018001     1.503048243061    -1.145863972396     1.007825032230
         H           -3.392589018001    -1.015203756939     1.087818027604     1.007825032230
         H           -1.759055018001    -2.287218756939    -0.685671972396     1.007825032230
         H            0.390374981999     0.504413243061     1.360210027604     1.007825032230
         H            0.146292981999     2.212009243061     0.926414027604     1.007825032230
         H           -2.942254018001     2.612426243061     0.592712027604     1.007825032230
         H           -4.093581018001     0.301611243061    -0.908960972396     1.007825032230
         H           -0.093181018001    -2.066448756939     0.990163027604     1.007825032230
         H            0.856034981999    -1.074223756939    -0.836037972396     1.007825032230
         H            3.795790981999     0.314529243061     1.562122027604     1.007825032230

  Basis Set: AUG-CC-PVTZ
    Blend: AUG-CC-PVTZ
  Basis Set: (AUG-CC-PVTZ AUX)
    Blend: AUG-CC-PVTZ-JKFIT
	 Reference Energy          =   -1135.8199272275483054 [Eh]
	 Singles Energy            =      -0.0000000000000000 [Eh]
	 Same-Spin Energy          =      -0.8161210502288634 [Eh]
	 Opposite-Spin Energy      =      -2.4218667780913692 [Eh]
	 Correlation Energy        =      -3.2379878283202324 [Eh]
	 Total Energy              =   -1139.0579150558685342 [Eh]

	 ================> DF-SCS-MP2 Energies <==================
	-----------------------------------------------------------
	 SCS Same-Spin Scale       =       0.3333333333333333 [-]
	 SCS Opposite-Spin Scale   =       1.2000000000000000 [-]
	 SCS Same-Spin Energy      =      -0.2720403500762878 [Eh]
	 SCS Opposite-Spin Energy  =      -2.9062401337096428 [Eh]
	 SCS Correlation Energy    =      -3.1782804837859304 [Eh]
	 SCS Total Energy          =   -1138.9982077113343166 [Eh]
	-----------------------------------------------------------

  Dipole Moment: [D]
     X:    -3.5392      Y:     2.3115      Z:     4.0846     Total:     5.8782

*** Psi4 exiting successfully. Buy a developer a beer!
