                               Psi4 1.3.2 release

  ==> Input File <==

--------------------------------------------------------------------------
#psi4
#
memory 32 gb

molecule  {
0 1
  P        2.6114510     0.0433530    -0.1897960
  O       -0.7415730    -0.5166550    -0.8759300
  O       -3.1471200     1.7525200     0.1857420
  O       -3.5574290    -0.5524670    -0.9560380
  O       -0.9294966    -1.6014837     1.1709548
  O        1.5012860     1.2233130    -0.3203930
  O        1.7414800    -1.2994450    -0.3567160
  O        2.9590140    -0.0653000     1.3909990
  O        3.7753660     0.2843820    -1.0654240
  C       -2.1786680     0.7692630     0.5423480
  C       -0.8949230     0.8134730    -0.3165700
  C       -2.7827930    -0.6059770     0.2231310
  C       -1.5369320    -1.4089660    -0.0835960
  C        0.3225300     1.1924080     0.5079200
  H       -1.9376650     0.8286140     1.6117160
  H       -1.0169450     1.4955040    -1.1629930
  H       -3.3413290    -1.0227480     1.0706890
  H       -1.7077950    -2.2947630    -0.7028010
  H        0.4416350     0.4968690     1.3430810
  H        0.1975530     2.2044650     0.9092850
  H       -2.8909940     2.6048820     0.5755830
  H       -4.0423210     0.2940670    -0.9260900
  H       -0.0419210    -2.0739930     0.9730340
  H        0.9072950    -1.0817680    -0.8531670
  H        3.8470510     0.3069850     1.5449930
units angstrom
no_reorient  #important for SAPT in psi4, default
symmetry c1  #important for SAPT in psi4, default
}

set PROPERTIES_ORIGIN ["COM"]
properties('MP2/aug-cc-pvtz', properties = ['dipole'])
--------------------------------------------------------------------------

    Molecular point group: c1
  Charge       = 0
  Multiplicity = 1
  Basis Set: AUG-CC-PVTZ
    Blend: AUG-CC-PVTZ
  Basis Set: (AUG-CC-PVTZ AUX)
    Blend: AUG-CC-PVTZ-JKFIT

    Orbital Energies [Eh]
    ---------------------

    Doubly Occupied:

       1A    -80.114284     2A    -20.610577     3A    -20.604904
       4A    -20.603847     5A    -20.601010     6A    -20.600639
       7A    -20.597915     8A    -20.573477     9A    -20.514044
      10A    -11.362093    11A    -11.321729    12A    -11.319195
      13A    -11.316663    14A    -11.305451    15A     -7.629229
      16A     -5.527647    17A     -5.527571    18A     -5.526069
      19A     -1.462493    20A     -1.447557    21A     -1.409833
      22A     -1.389460    23A     -1.377555    24A     -1.371240
      25A     -1.363598    26A     -1.295372    27A     -1.082663
      28A     -1.044444    29A     -0.944392    30A     -0.856167
      31A     -0.840827    32A     -0.827545    33A     -0.770284
      34A     -0.756737    35A     -0.744263    36A     -0.732398
      37A     -0.716058    38A     -0.691171    39A     -0.681084
      40A     -0.667082    41A     -0.652302    42A     -0.647123
      43A     -0.632056    44A     -0.613407    45A     -0.598870
      46A     -0.593438    47A     -0.581457    48A     -0.576089
      49A     -0.568099    50A     -0.558481    51A     -0.542666
      52A     -0.533656    53A     -0.525667    54A     -0.509175
      55A     -0.493596    56A     -0.485880    57A     -0.474002
      58A     -0.468260    59A     -0.464327    60A     -0.449216

  @DF-RHF Final Energy: -1135.81555810584041

   => Energetics <=

    Nuclear Repulsion Energy =           1217.4314517441434873
    One-Electron Energy =               -3988.3013554418862441
    Two-Electron Energy =                1635.0543455919023472
    Total Energy =                      -1135.8155581058404096
  Basis Set: (AUG-CC-PVTZ AUX)
    Blend: AUG-CC-PVTZ-RI
    Molecular point group: c1

    Geometry (in Angstrom), charge = 0, multiplicity = 1:

       Center              X                  Y                   Z               Mass
    ------------   -----------------  -----------------  -----------------  -----------------
         P            2.559312379376     0.044053552691    -0.171506440475    30.973761998420
         O           -0.793711620624    -0.515954447309    -0.857640440475    15.994914619570
         O           -3.199258620624     1.753220552691     0.204031559525    15.994914619570
         O           -3.609567620624    -0.551766447309    -0.937748440475    15.994914619570
         O           -0.981635220624    -1.600783147309     1.189244359525    15.994914619570
         O            1.449147379376     1.224013552691    -0.302103440475    15.994914619570
         O            1.689341379376    -1.298744447309    -0.338426440475    15.994914619570
         O            2.906875379376    -0.064599447309     1.409288559525    15.994914619570
         O            3.723227379376     0.285082552691    -1.047134440475    15.994914619570
         C           -2.230806620624     0.769963552691     0.560637559525    12.000000000000
         C           -0.947061620624     0.814173552691    -0.298280440475    12.000000000000
         C           -2.834931620624    -0.605276447309     0.241420559525    12.000000000000
         C           -1.589070620624    -1.408265447309    -0.065306440475    12.000000000000
         C            0.270391379376     1.193108552691     0.526209559525    12.000000000000
         H           -1.989803620624     0.829314552691     1.630005559525     1.007825032230
         H           -1.069083620624     1.496204552691    -1.144703440475     1.007825032230
         H           -3.393467620624    -1.022047447309     1.088978559525     1.007825032230
         H           -1.759933620624    -2.294062447309    -0.684511440475     1.007825032230
         H            0.389496379376     0.497569552691     1.361370559525     1.007825032230
         H            0.145414379376     2.205165552691     0.927574559525     1.007825032230
         H           -2.943132620624     2.605582552691     0.593872559525     1.007825032230
         H           -4.094459620624     0.294767552691    -0.907800440475     1.007825032230
         H           -0.094059620624    -2.073292447309     0.991323559525     1.007825032230
         H            0.855156379376    -1.081067447309    -0.834877440475     1.007825032230
         H            3.794912379376     0.307685552691     1.563282559525     1.007825032230

  Basis Set: AUG-CC-PVTZ
    Blend: AUG-CC-PVTZ
  Basis Set: (AUG-CC-PVTZ AUX)
    Blend: AUG-CC-PVTZ-JKFIT
	 Reference Energy          =   -1135.8155581058404096 [Eh]
	 Singles Energy            =      -0.0000000000000000 [Eh]
	 Same-Spin Energy          =      -0.8173109352357540 [Eh]
	 Opposite-Spin Energy      =      -2.4239710411279485 [Eh]
	 Correlation Energy        =      -3.2412819763637026 [Eh]
	 Total Energy              =   -1139.0568400822041895 [Eh]

	 ================> DF-SCS-MP2 Energies <==================
	-----------------------------------------------------------
	 SCS Same-Spin Scale       =       0.3333333333333333 [-]
	 SCS Opposite-Spin Scale   =       1.2000000000000000 [-]
	 SCS Same-Spin Energy      =      -0.2724369784119180 [Eh]
	 SCS Opposite-Spin Energy  =      -2.9087652493535381 [Eh]
	 SCS Correlation Energy    =      -3.1812022277654561 [Eh]
	 SCS Total Energy          =   -1138.9967603336058346 [Eh]
	-----------------------------------------------------------

  Dipole Moment: [D]
     X:    -3.4990      Y:     2.0494      Z:     4.0483     Total:     5.7299

*** Psi4 exiting successfully. Buy a developer a beer!
