                               Psi4 1.3.2 release

  ==> Input File <==

--------------------------------------------------------------------------
#psi4
#
memory 32 gb

molecule  {
0 1
  P        2.6114510     0.0433530    -0.1897960
  O       -0.7415730    -0.5166550    -0.8759300
  O       -3.1471200     1.7525200     0.1857420
  O       -3.5574290    -0.5524670    -0.9560380
  O       -0.9262260    -1.6975490     1.1507850
  O        1.5012860     1.2233130    -0.3203930
  O        1.7414800    -1.2994450    -0.3567160
  O        2.9590140    -0.0653000     1.3909990
  O        3.7753660     0.2843820    -1.0654240
  C       -2.1786680     0.7692630     0.5423480
  C       -0.9107188     0.7329919    -0.2494449
  C       -2.7827930    -0.6059770     0.2231310
  C       -1.5369320    -1.4089660    -0.0835960
  C        0.3225300     1.1924080     0.5079200
  H       -1.9376650     0.8286140     1.6117160
  H       -1.0169450     1.4955040    -1.1629930
  H       -3.3413290    -1.0227480     1.0706890
  H       -1.7077950    -2.2947630    -0.7028010
  H        0.4416350     0.4968690     1.3430810
  H        0.1975530     2.2044650     0.9092850
  H       -2.8909940     2.6048820     0.5755830
  H       -4.0423210     0.2940670    -0.9260900
  H       -0.0419210    -2.0739930     0.9730340
  H        0.9072950    -1.0817680    -0.8531670
  H        3.8470510     0.3069850     1.5449930
units angstrom
no_reorient  #important for SAPT in psi4, default
symmetry c1  #important for SAPT in psi4, default
}

set PROPERTIES_ORIGIN ["COM"]
properties('MP2/aug-cc-pvtz', properties = ['dipole'])
--------------------------------------------------------------------------

    Molecular point group: c1
  Charge       = 0
  Multiplicity = 1
  Basis Set: AUG-CC-PVTZ
    Blend: AUG-CC-PVTZ
  Basis Set: (AUG-CC-PVTZ AUX)
    Blend: AUG-CC-PVTZ-JKFIT

    Orbital Energies [Eh]
    ---------------------

    Doubly Occupied:

       1A    -80.115732     2A    -20.611354     3A    -20.610758
       4A    -20.607919     5A    -20.606265     6A    -20.600306
       7A    -20.598084     8A    -20.575798     9A    -20.515219
      10A    -11.364770    11A    -11.321672    12A    -11.320793
      13A    -11.320166    14A    -11.308329    15A     -7.630679
      16A     -5.529094    17A     -5.529025    18A     -5.527510
      19A     -1.473759    20A     -1.451956    21A     -1.412839
      22A     -1.391173    23A     -1.379502    24A     -1.379144
      25A     -1.372954    26A     -1.296515    27A     -1.092224
      28A     -1.048069    29A     -0.949991    30A     -0.857194
      31A     -0.843179    32A     -0.828982    33A     -0.773977
      34A     -0.763343    35A     -0.751574    36A     -0.736470
      37A     -0.717971    38A     -0.694732    39A     -0.684190
      40A     -0.668699    41A     -0.653947    42A     -0.651749
      43A     -0.632530    44A     -0.617130    45A     -0.603941
      46A     -0.591109    47A     -0.582941    48A     -0.580385
      49A     -0.569065    50A     -0.559769    51A     -0.544654
      52A     -0.531758    53A     -0.528644    54A     -0.513532
      55A     -0.494861    56A     -0.490736    57A     -0.473274
      58A     -0.468163    59A     -0.458367    60A     -0.450332

  @DF-RHF Final Energy: -1135.80912120841435

   => Energetics <=

    Nuclear Repulsion Energy =           1217.7076437195214567
    One-Electron Energy =               -3988.5159359471108473
    Two-Electron Energy =                1634.9991710191750371
    Total Energy =                      -1135.8091212084143535
  Basis Set: (AUG-CC-PVTZ AUX)
    Blend: AUG-CC-PVTZ-RI
    Molecular point group: c1

    Geometry (in Angstrom), charge = 0, multiplicity = 1:

       Center              X                  Y                   Z               Mass
    ------------   -----------------  -----------------  -----------------  -----------------
         P            2.559909010699     0.054932340063    -0.173605774213    30.973761998420
         O           -0.793114989301    -0.505075659937    -0.859739774213    15.994914619570
         O           -3.198661989301     1.764099340063     0.201932225787    15.994914619570
         O           -3.608970989301    -0.540887659937    -0.939847774213    15.994914619570
         O           -0.977767989301    -1.685969659937     1.166975225787    15.994914619570
         O            1.449744010699     1.234892340063    -0.304202774213    15.994914619570
         O            1.689938010699    -1.287865659937    -0.340525774213    15.994914619570
         O            2.907472010699    -0.053720659937     1.407189225787    15.994914619570
         O            3.723824010699     0.295961340063    -1.049233774213    15.994914619570
         C           -2.230209989301     0.780842340063     0.558538225787    12.000000000000
         C           -0.962260789301     0.744571240063    -0.233254674213    12.000000000000
         C           -2.834334989301    -0.594397659937     0.239321225787    12.000000000000
         C           -1.588473989301    -1.397386659937    -0.067405774213    12.000000000000
         C            0.270988010699     1.203987340063     0.524110225787    12.000000000000
         H           -1.989206989301     0.840193340063     1.627906225787     1.007825032230
         H           -1.068486989301     1.507083340063    -1.146802774213     1.007825032230
         H           -3.392870989301    -1.011168659937     1.086879225787     1.007825032230
         H           -1.759336989301    -2.283183659937    -0.686610774213     1.007825032230
         H            0.390093010699     0.508448340063     1.359271225787     1.007825032230
         H            0.146011010699     2.216044340063     0.925475225787     1.007825032230
         H           -2.942535989301     2.616461340063     0.591773225787     1.007825032230
         H           -4.093862989301     0.305646340063    -0.909899774213     1.007825032230
         H           -0.093462989301    -2.062413659937     0.989224225787     1.007825032230
         H            0.855753010699    -1.070188659937    -0.836976774213     1.007825032230
         H            3.795509010699     0.318564340063     1.561183225787     1.007825032230

  Basis Set: AUG-CC-PVTZ
    Blend: AUG-CC-PVTZ
  Basis Set: (AUG-CC-PVTZ AUX)
    Blend: AUG-CC-PVTZ-JKFIT
	 Reference Energy          =   -1135.8091212084143535 [Eh]
	 Singles Energy            =      -0.0000000000000000 [Eh]
	 Same-Spin Energy          =      -0.8173789944498646 [Eh]
	 Opposite-Spin Energy      =      -2.4231971239131034 [Eh]
	 Correlation Energy        =      -3.2405761183629682 [Eh]
	 Total Energy              =   -1139.0496973267772773 [Eh]

	 ================> DF-SCS-MP2 Energies <==================
	-----------------------------------------------------------
	 SCS Same-Spin Scale       =       0.3333333333333333 [-]
	 SCS Opposite-Spin Scale   =       1.2000000000000000 [-]
	 SCS Same-Spin Energy      =      -0.2724596648166215 [Eh]
	 SCS Opposite-Spin Energy  =      -2.9078365486957241 [Eh]
	 SCS Correlation Energy    =      -3.1802962135123458 [Eh]
	 SCS Total Energy          =   -1138.9894174219266461 [Eh]
	-----------------------------------------------------------

  Dipole Moment: [D]
     X:    -3.4623      Y:     2.0853      Z:     4.0648     Total:     5.7322

*** Psi4 exiting successfully. Buy a developer a beer!
