                               Psi4 1.4a3.dev225

  ==> Input File <==

--------------------------------------------------------------------------
#psi4
#
memory 32 gb

molecule  {
0 1
  P        2.6113660     0.0433910    -0.1897900
  O       -0.7416560    -0.5164190    -0.8762010
  O       -3.1473860     1.7523070     0.1855430
  O       -3.5574330    -0.5529450    -0.9556820
  O       -0.9255690    -1.6972900     1.1506350
  O        1.5012550     1.2233910    -0.3202530
  O        1.7411940    -1.2993510    -0.3564950
  O        2.9591660    -0.0655390     1.3909200
  O        3.7751240     0.2843830    -1.0656400
  C       -2.1787050     0.7693270     0.5422590
  C       -0.8949630     0.8136090    -0.3166340
  C       -2.7825860    -0.6061320     0.2233240
  C       -1.5366410    -1.4089160    -0.0835620
  C        0.3633426     1.1934946     0.4792725
  H       -1.9377070     0.8289040     1.6116220
  H       -1.0168440     1.4957790    -1.1629650
  H       -3.3408870    -1.0228010     1.0710960
  H       -1.7074320    -2.2947510    -0.7027390
  H        0.4414920     0.4968360     1.3431340
  H        0.1974400     2.2044510     0.9094280
  H       -2.8916000     2.6047160     0.5754970
  H       -4.0429610     0.2932130    -0.9254450
  H       -0.0410590    -2.0731950     0.9726900
  H        0.9073710    -1.0816890    -0.8535130
  H        3.8468470     0.3075270     1.5450430
units angstrom
no_reorient  #important for SAPT in psi4, default
symmetry c1  #important for SAPT in psi4, default
}

set PROPERTIES_ORIGIN ["COM"]
properties('MP2/aug-cc-pvtz', properties = ['dipole'])
--------------------------------------------------------------------------

    Molecular point group: c1
  Charge       = 0
  Multiplicity = 1
  Basis Set: AUG-CC-PVTZ
    Blend: AUG-CC-PVTZ
  Basis Set: (AUG-CC-PVTZ AUX)
    Blend: AUG-CC-PVTZ-JKFIT

    Orbital Energies [Eh]
    ---------------------

    Doubly Occupied:

       1A    -80.118539     2A    -20.613300     3A    -20.610463
       4A    -20.605103     5A    -20.601839     6A    -20.600561
       7A    -20.593906     8A    -20.573991     9A    -20.517245
      10A    -11.361247    11A    -11.322338    12A    -11.320781
      13A    -11.316458    14A    -11.306388    15A     -7.633489
      16A     -5.531938    17A     -5.531794    18A     -5.530310
      19A     -1.467968    20A     -1.450807    21A     -1.410356
      22A     -1.401399    23A     -1.381615    24A     -1.372760
      25A     -1.367899    26A     -1.298947    27A     -1.079368
      28A     -1.044427    29A     -0.946257    30A     -0.860274
      31A     -0.840603    32A     -0.828599    33A     -0.774623
      34A     -0.760250    35A     -0.748086    36A     -0.734338
      37A     -0.719637    38A     -0.695642    39A     -0.684515
      40A     -0.667257    41A     -0.657563    42A     -0.648157
      43A     -0.635327    44A     -0.613146    45A     -0.599332
      46A     -0.596637    47A     -0.583037    48A     -0.577015
      49A     -0.569436    50A     -0.560071    51A     -0.545566
      52A     -0.530892    53A     -0.527468    54A     -0.509262
      55A     -0.487792    56A     -0.485901    57A     -0.475796
      58A     -0.470549    59A     -0.464830    60A     -0.448461

  @DF-RHF Final Energy: -1135.82124022583139

   => Energetics <=

    Nuclear Repulsion Energy =           1216.4388284786905388
    One-Electron Energy =               -3986.0970292752322166
    Two-Electron Energy =                1633.8369605707102892
    Total Energy =                      -1135.8212402258313887
  Basis Set: (AUG-CC-PVTZ AUX)
    Blend: AUG-CC-PVTZ-RI
    Molecular point group: c1

    Geometry (in Angstrom), charge = 0, multiplicity = 1:

       Center              X                  Y                   Z               Mass
    ------------   -----------------  -----------------  -----------------  -----------------
         P            2.556866999108     0.050719295871    -0.168596528720    30.973761998420
         O           -0.796155000892    -0.509090704129    -0.855007528720    15.994914619570
         O           -3.201885000892     1.759635295871     0.206736471280    15.994914619570
         O           -3.611932000892    -0.545616704129    -0.934488528720    15.994914619570
         O           -0.980068000892    -1.689961704129     1.171828471280    15.994914619570
         O            1.446755999108     1.230719295871    -0.299059528720    15.994914619570
         O            1.686694999108    -1.292022704129    -0.335301528720    15.994914619570
         O            2.904666999108    -0.058210704129     1.412113471280    15.994914619570
         O            3.720624999108     0.291711295871    -1.044446528720    15.994914619570
         C           -2.233204000892     0.776655295871     0.563452471280    12.000000000000
         C           -0.949462000892     0.820937295871    -0.295440528720    12.000000000000
         C           -2.837085000892    -0.598803704129     0.244517471280    12.000000000000
         C           -1.591140000892    -1.401587704129    -0.062368528720    12.000000000000
         C            0.308843599108     1.200822895871     0.500465971280    12.000000000000
         H           -1.992206000892     0.836232295871     1.632815471280     1.007825032230
         H           -1.071343000892     1.503107295871    -1.141771528720     1.007825032230
         H           -3.395386000892    -1.015472704129     1.092289471280     1.007825032230
         H           -1.761931000892    -2.287422704129    -0.681545528720     1.007825032230
         H            0.386992999108     0.504164295871     1.364327471280     1.007825032230
         H            0.142940999108     2.211779295871     0.930621471280     1.007825032230
         H           -2.946099000892     2.612044295871     0.596690471280     1.007825032230
         H           -4.097460000892     0.300541295871    -0.904251528720     1.007825032230
         H           -0.095558000892    -2.065866704129     0.993883471280     1.007825032230
         H            0.852871999108    -1.074360704129    -0.832319528720     1.007825032230
         H            3.792347999108     0.314855295871     1.566236471280     1.007825032230

  Basis Set: AUG-CC-PVTZ
    Blend: AUG-CC-PVTZ
  Basis Set: (AUG-CC-PVTZ AUX)
    Blend: AUG-CC-PVTZ-JKFIT
	 Reference Energy          =   -1135.8212402258313887 [Eh]
	 Singles Energy            =      -0.0000000000000000 [Eh]
	 Same-Spin Energy          =      -0.8162916242226761 [Eh]
	 Opposite-Spin Energy      =      -2.4214428476744163 [Eh]
	 Correlation Energy        =      -3.2377344718970926 [Eh]
	 Total Energy              =   -1139.0589746977284449 [Eh]

	 ================> DF-SCS-MP2 Energies <==================
	-----------------------------------------------------------
	 SCS Same-Spin Scale       =       0.3333333333333333 [-]
	 SCS Opposite-Spin Scale   =       1.2000000000000000 [-]
	 SCS Same-Spin Energy      =      -0.2720972080742253 [Eh]
	 SCS Opposite-Spin Energy  =      -2.9057314172092994 [Eh]
	 SCS Correlation Energy    =      -3.1778286252835248 [Eh]
	 SCS Total Energy          =   -1138.9990688511149983 [Eh]
	-----------------------------------------------------------

  Dipole Moment: [D]
     X:    -3.2597      Y:     2.2637      Z:     3.9532     Total:     5.6016

*** Psi4 exiting successfully. Buy a developer a beer!
