                               Psi4 1.3.2 release

  ==> Input File <==

--------------------------------------------------------------------------
#psi4
#
memory 32 gb

molecule  {
0 1
  P        2.6114510     0.0433530    -0.1897960
  O       -0.7415730    -0.5166550    -0.8759300
  O       -3.1471200     1.7525200     0.1857420
  O       -3.5465008    -0.5045778    -0.9600141
  O       -0.9262260    -1.6975490     1.1507850
  O        1.5012860     1.2233130    -0.3203930
  O        1.7414800    -1.2994450    -0.3567160
  O        2.9590140    -0.0653000     1.3909990
  O        3.7753660     0.2843820    -1.0654240
  C       -2.1786680     0.7692630     0.5423480
  C       -0.8949230     0.8134730    -0.3165700
  C       -2.7827930    -0.6059770     0.2231310
  C       -1.5369320    -1.4089660    -0.0835960
  C        0.3225300     1.1924080     0.5079200
  H       -1.9376650     0.8286140     1.6117160
  H       -1.0169450     1.4955040    -1.1629930
  H       -3.3413290    -1.0227480     1.0706890
  H       -1.7077950    -2.2947630    -0.7028010
  H        0.4416350     0.4968690     1.3430810
  H        0.1975530     2.2044650     0.9092850
  H       -2.8909940     2.6048820     0.5755830
  H       -4.0423210     0.2940670    -0.9260900
  H       -0.0419210    -2.0739930     0.9730340
  H        0.9072950    -1.0817680    -0.8531670
  H        3.8470510     0.3069850     1.5449930
units angstrom
no_reorient  #important for SAPT in psi4, default
symmetry c1  #important for SAPT in psi4, default
}

set PROPERTIES_ORIGIN ["COM"]
properties('MP2/aug-cc-pvtz', properties = ['dipole'])
--------------------------------------------------------------------------

    Molecular point group: c1
  Charge       = 0
  Multiplicity = 1
  Basis Set: AUG-CC-PVTZ
    Blend: AUG-CC-PVTZ
  Basis Set: (AUG-CC-PVTZ AUX)
    Blend: AUG-CC-PVTZ-JKFIT

    Orbital Energies [Eh]
    ---------------------

    Doubly Occupied:

       1A    -80.114841     2A    -20.611104     3A    -20.604851
       4A    -20.604741     5A    -20.603366     6A    -20.598427
       7A    -20.595560     8A    -20.570916     9A    -20.514502
      10A    -11.363237    11A    -11.322037    12A    -11.320899
      13A    -11.317665    14A    -11.308391    15A     -7.629791
      16A     -5.528210    17A     -5.528130    18A     -5.526629
      19A     -1.463328    20A     -1.448476    21A     -1.412281
      22A     -1.390572    23A     -1.378171    24A     -1.376766
      25A     -1.369888    26A     -1.295840    27A     -1.083997
      28A     -1.048707    29A     -0.946644    30A     -0.857543
      31A     -0.842831    32A     -0.830267    33A     -0.772562
      34A     -0.762185    35A     -0.747542    36A     -0.733694
      37A     -0.716680    38A     -0.692806    39A     -0.686172
      40A     -0.670264    41A     -0.653026    42A     -0.647541
      43A     -0.632277    44A     -0.615079    45A     -0.600504
      46A     -0.596837    47A     -0.581951    48A     -0.577203
      49A     -0.569404    50A     -0.560024    51A     -0.543368
      52A     -0.532198    53A     -0.526773    54A     -0.511057
      55A     -0.489878    56A     -0.488386    57A     -0.475082
      58A     -0.469816    59A     -0.466076    60A     -0.449956

  @DF-RHF Final Energy: -1135.82345400868098

   => Energetics <=

    Nuclear Repulsion Energy =           1216.6109544833798282
    One-Electron Energy =               -3986.5149203412152019
    Two-Electron Energy =                1634.0805118491543908
    Total Energy =                      -1135.8234540086809830
  Basis Set: (AUG-CC-PVTZ AUX)
    Blend: AUG-CC-PVTZ-RI
    Molecular point group: c1

    Geometry (in Angstrom), charge = 0, multiplicity = 1:

       Center              X                  Y                   Z               Mass
    ------------   -----------------  -----------------  -----------------  -----------------
         P            2.558325032934     0.047403589380    -0.169827399396    30.973761998420
         O           -0.794698967066    -0.512604410620    -0.855961399396    15.994914619570
         O           -3.200245967066     1.756570589380     0.205710600604    15.994914619570
         O           -3.599626767066    -0.500527210620    -0.940045499396    15.994914619570
         O           -0.979351967066    -1.693498410620     1.170753600604    15.994914619570
         O            1.448160032934     1.227363589380    -0.300424399396    15.994914619570
         O            1.688354032934    -1.295394410620    -0.336747399396    15.994914619570
         O            2.905888032934    -0.061249410620     1.410967600604    15.994914619570
         O            3.722240032934     0.288432589380    -1.045455399396    15.994914619570
         C           -2.231793967066     0.773313589380     0.562316600604    12.000000000000
         C           -0.948048967066     0.817523589380    -0.296601399396    12.000000000000
         C           -2.835918967066    -0.601926410620     0.243099600604    12.000000000000
         C           -1.590057967066    -1.404915410620    -0.063627399396    12.000000000000
         C            0.269404032934     1.196458589380     0.527888600604    12.000000000000
         H           -1.990790967066     0.832664589380     1.631684600604     1.007825032230
         H           -1.070070967066     1.499554589380    -1.143024399396     1.007825032230
         H           -3.394454967066    -1.018697410620     1.090657600604     1.007825032230
         H           -1.760920967066    -2.290712410620    -0.682832399396     1.007825032230
         H            0.388509032934     0.500919589380     1.363049600604     1.007825032230
         H            0.144427032934     2.208515589380     0.929253600604     1.007825032230
         H           -2.944119967066     2.608932589380     0.595551600604     1.007825032230
         H           -4.095446967066     0.298117589380    -0.906121399396     1.007825032230
         H           -0.095046967066    -2.069942410620     0.993002600604     1.007825032230
         H            0.854169032934    -1.077717410620    -0.833198399396     1.007825032230
         H            3.793925032934     0.311035589380     1.564961600604     1.007825032230

  Basis Set: AUG-CC-PVTZ
    Blend: AUG-CC-PVTZ
  Basis Set: (AUG-CC-PVTZ AUX)
    Blend: AUG-CC-PVTZ-JKFIT
	 Reference Energy          =   -1135.8234540086809830 [Eh]
	 Singles Energy            =      -0.0000000000000000 [Eh]
	 Same-Spin Energy          =      -0.8158074388267623 [Eh]
	 Opposite-Spin Energy      =      -2.4206574507147680 [Eh]
	 Correlation Energy        =      -3.2364648895415304 [Eh]
	 Total Energy              =   -1139.0599188982225769 [Eh]

	 ================> DF-SCS-MP2 Energies <==================
	-----------------------------------------------------------
	 SCS Same-Spin Scale       =       0.3333333333333333 [-]
	 SCS Opposite-Spin Scale   =       1.2000000000000000 [-]
	 SCS Same-Spin Energy      =      -0.2719358129422541 [Eh]
	 SCS Opposite-Spin Energy  =      -2.9047889408577214 [Eh]
	 SCS Correlation Energy    =      -3.1767247537999754 [Eh]
	 SCS Total Energy          =   -1139.0001787624810277 [Eh]
	-----------------------------------------------------------

  Dipole Moment: [D]
     X:    -3.5198      Y:     2.1960      Z:     4.0485     Total:     5.7967

*** Psi4 exiting successfully. Buy a developer a beer!
