                               Psi4 1.3.2 release

  ==> Input File <==

--------------------------------------------------------------------------
#psi4
#
memory 32 gb

molecule  {
0 1
  N       -3.2235750     0.0000070     0.0001520
  C       -0.6037160    -0.0000080    -0.0000850
  C        0.0916120    -1.2188480    -0.0000380
  C        0.0915980     1.2188410    -0.0000380
  C        1.4853760    -1.2105100     0.0000370
  C        1.4853620     1.2105190     0.0000370
  C        2.1831530     0.0000080     0.0000710
  C       -2.0399480    -0.0000140    -0.0001810
  H       -0.4610000    -2.1546890    -0.0000690
  H       -0.4610240     2.1546760    -0.0000680
  H        2.0281230    -2.1522080     0.0000640
  H        2.0281000     2.1522220     0.0000650
  H        3.2702204     0.0000140    -0.1998700
units angstrom
no_reorient  #important for SAPT in psi4, default
symmetry c1  #important for SAPT in psi4, default
}

set PROPERTIES_ORIGIN ["COM"]
properties('MP2/aug-cc-pvtz', properties = ['dipole'])
--------------------------------------------------------------------------

    Molecular point group: c1
  Charge       = 0
  Multiplicity = 1
  Basis Set: AUG-CC-PVTZ
    Blend: AUG-CC-PVTZ
  Basis Set: (AUG-CC-PVTZ AUX)
    Blend: AUG-CC-PVTZ-JKFIT

    Orbital Energies [Eh]
    ---------------------

    Doubly Occupied:

       1A    -15.582305     2A    -11.294537     3A    -11.287208
       4A    -11.275403     5A    -11.275354     6A    -11.271893
       7A    -11.265261     8A    -11.265144     9A     -1.215112
      10A     -1.179938    11A     -1.062305    12A     -1.047697
      13A     -0.887186    14A     -0.859638    15A     -0.765914
      16A     -0.697249    17A     -0.661324    18A     -0.637266
      19A     -0.619026    20A     -0.566851    21A     -0.553253
      22A     -0.533516    23A     -0.530980    24A     -0.476342
      25A     -0.460301    26A     -0.367179    27A     -0.358110

  @DF-RHF Final Energy:  -322.53423215702117

   => Energetics <=

    Nuclear Repulsion Energy =            298.5717587769482861
    One-Electron Energy =               -1026.2193987028217634
    Two-Electron Energy =                 405.1134077688523121
    Total Energy =                       -322.5342321570211652
  Basis Set: (AUG-CC-PVTZ AUX)
    Blend: AUG-CC-PVTZ-RI
    Molecular point group: c1

    Geometry (in Angstrom), charge = 0, multiplicity = 1:

       Center              X                  Y                   Z               Mass
    ------------   -----------------  -----------------  -----------------  -----------------
         N           -3.161812138307     0.000007299500     0.002109232922    14.003074004430
         C           -0.541953138307    -0.000007700500     0.001872232922    12.000000000000
         C            0.153374861693    -1.218847700500     0.001919232922    12.000000000000
         C            0.153360861693     1.218841299500     0.001919232922    12.000000000000
         C            1.547138861693    -1.210509700500     0.001994232922    12.000000000000
         C            1.547124861693     1.210519299500     0.001994232922    12.000000000000
         C            2.244915861693     0.000008299500     0.002028232922    12.000000000000
         C           -1.978185138307    -0.000013700500     0.001776232922    12.000000000000
         H           -0.399237138307    -2.154688700500     0.001888232922     1.007825032230
         H           -0.399261138307     2.154676299500     0.001889232922     1.007825032230
         H            2.089885861693    -2.152207700500     0.002021232922     1.007825032230
         H            2.089862861693     2.152222299500     0.002022232922     1.007825032230
         H            3.331983261693     0.000014299500    -0.197912767078     1.007825032230

  Basis Set: AUG-CC-PVTZ
    Blend: AUG-CC-PVTZ
  Basis Set: (AUG-CC-PVTZ AUX)
    Blend: AUG-CC-PVTZ-JKFIT
	 Reference Energy          =    -322.5342321570211652 [Eh]
	 Singles Energy            =      -0.0000000000000000 [Eh]
	 Same-Spin Energy          =      -0.3531960413259858 [Eh]
	 Opposite-Spin Energy      =      -1.0917504914480873 [Eh]
	 Correlation Energy        =      -1.4449465327740731 [Eh]
	 Total Energy              =    -323.9791786897952193 [Eh]

	 ================> DF-SCS-MP2 Energies <==================
	-----------------------------------------------------------
	 SCS Same-Spin Scale       =       0.3333333333333333 [-]
	 SCS Opposite-Spin Scale   =       1.2000000000000000 [-]
	 SCS Same-Spin Energy      =      -0.1177320137753286 [Eh]
	 SCS Opposite-Spin Energy  =      -1.3101005897377047 [Eh]
	 SCS Correlation Energy    =      -1.4278326035130333 [Eh]
	 SCS Total Energy          =    -323.9620647605341901 [Eh]
	-----------------------------------------------------------

  Dipole Moment: [D]
     X:     4.4899      Y:    -0.0000      Z:    -0.1274     Total:     4.4917

*** Psi4 exiting successfully. Buy a developer a beer!
