                               Psi4 1.3.2 release

  ==> Input File <==

--------------------------------------------------------------------------
#psi4
#
memory 32 gb

molecule  {
0 1
  N       -3.2235750     0.0000070     0.0001520
  C       -0.6037160    -0.0000080    -0.0000850
  C        0.0916120    -1.2188480    -0.0000380
  C        0.0915980     1.2188410    -0.0000380
  C        1.4853760    -1.2105100     0.0000370
  C        1.4853620     1.2105190     0.0000370
  C        2.1831530     0.0000080     0.0000710
  C       -2.0399480    -0.0000140    -0.0001810
  H       -0.4610000    -2.1546890    -0.0000690
  H       -0.4610240     2.1546760    -0.0000680
  H        2.0281335    -2.1522081    -0.1999360
  H        2.0281000     2.1522220     0.0000650
  H        3.2702100     0.0000140     0.0001300
units angstrom
no_reorient  #important for SAPT in psi4, default
symmetry c1  #important for SAPT in psi4, default
}

set PROPERTIES_ORIGIN ["COM"]
properties('MP2/aug-cc-pvtz', properties = ['dipole'])
--------------------------------------------------------------------------

    Molecular point group: c1
  Charge       = 0
  Multiplicity = 1
  Basis Set: AUG-CC-PVTZ
    Blend: AUG-CC-PVTZ
  Basis Set: (AUG-CC-PVTZ AUX)
    Blend: AUG-CC-PVTZ-JKFIT

    Orbital Energies [Eh]
    ---------------------

    Doubly Occupied:

       1A    -15.582172     2A    -11.294343     3A    -11.287114
       4A    -11.275652     5A    -11.275591     6A    -11.270654
       7A    -11.266454     8A    -11.265029     9A     -1.215031
      10A     -1.179935    11A     -1.062654    12A     -1.047285
      13A     -0.888319    14A     -0.858757    15A     -0.764373
      16A     -0.700547    17A     -0.661339    18A     -0.636198
      19A     -0.617677    20A     -0.566987    21A     -0.553535
      22A     -0.535239    23A     -0.529389    24A     -0.476584
      25A     -0.460104    26A     -0.366857    27A     -0.358390

  @DF-RHF Final Energy:  -322.53425464586672

   => Energetics <=

    Nuclear Repulsion Energy =            298.5713820391963509
    One-Electron Energy =               -1026.2188602312505736
    Two-Electron Energy =                 405.1132235461874984
    Total Energy =                       -322.5342546458667243
  Basis Set: (AUG-CC-PVTZ AUX)
    Blend: AUG-CC-PVTZ-RI
    Molecular point group: c1

    Geometry (in Angstrom), charge = 0, multiplicity = 1:

       Center              X                  Y                   Z               Mass
    ------------   -----------------  -----------------  -----------------  -----------------
         N           -3.161812139285     0.000007300478     0.002109232922    14.003074004430
         C           -0.541953139285    -0.000007699522     0.001872232922    12.000000000000
         C            0.153374860715    -1.218847699522     0.001919232922    12.000000000000
         C            0.153360860715     1.218841300478     0.001919232922    12.000000000000
         C            1.547138860715    -1.210509699522     0.001994232922    12.000000000000
         C            1.547124860715     1.210519300478     0.001994232922    12.000000000000
         C            2.244915860715     0.000008300478     0.002028232922    12.000000000000
         C           -1.978185139285    -0.000013699522     0.001776232922    12.000000000000
         H           -0.399237139285    -2.154688699522     0.001888232922     1.007825032230
         H           -0.399261139285     2.154676300478     0.001889232922     1.007825032230
         H            2.089896360715    -2.152207799522    -0.197978767078     1.007825032230
         H            2.089862860715     2.152222300478     0.002022232922     1.007825032230
         H            3.331972860715     0.000014300478     0.002087232922     1.007825032230

  Basis Set: AUG-CC-PVTZ
    Blend: AUG-CC-PVTZ
  Basis Set: (AUG-CC-PVTZ AUX)
    Blend: AUG-CC-PVTZ-JKFIT
	 Reference Energy          =    -322.5342546458667243 [Eh]
	 Singles Energy            =      -0.0000000000000000 [Eh]
	 Same-Spin Energy          =      -0.3531717425892942 [Eh]
	 Opposite-Spin Energy      =      -1.0917194898774418 [Eh]
	 Correlation Energy        =      -1.4448912324667360 [Eh]
	 Total Energy              =    -323.9791458783334406 [Eh]

	 ================> DF-SCS-MP2 Energies <==================
	-----------------------------------------------------------
	 SCS Same-Spin Scale       =       0.3333333333333333 [-]
	 SCS Opposite-Spin Scale   =       1.2000000000000000 [-]
	 SCS Same-Spin Energy      =      -0.1177239141964314 [Eh]
	 SCS Opposite-Spin Energy  =      -1.3100633878529302 [Eh]
	 SCS Correlation Energy    =      -1.4277873020493617 [Eh]
	 SCS Total Energy          =    -323.9620419479160773 [Eh]
	-----------------------------------------------------------

  Dipole Moment: [D]
     X:     4.5056      Y:     0.0260      Z:    -0.1234     Total:     4.5073

*** Psi4 exiting successfully. Buy a developer a beer!
