                               Psi4 1.3.2 release

  ==> Input File <==

--------------------------------------------------------------------------
#psi4
#
memory 32 gb

molecule  {
0 1
  N       -3.2235750     0.0000070     0.0001520
  C       -0.6037160    -0.0000080    -0.0000850
  C        0.0916120    -1.2188480    -0.0000380
  C        0.0915980     1.2188410    -0.0000380
  C        1.4853760    -1.2105100     0.0000370
  C        1.4853620     1.2105190     0.0000370
  C        2.1831530     0.0000080     0.0000710
  C       -2.0399480    -0.0000140    -0.0001810
  H       -0.4609887    -2.1546897    -0.2000690
  H       -0.4610240     2.1546760    -0.0000680
  H        2.0281230    -2.1522080     0.0000640
  H        2.0281000     2.1522220     0.0000650
  H        3.2702100     0.0000140     0.0001300
units angstrom
no_reorient  #important for SAPT in psi4, default
symmetry c1  #important for SAPT in psi4, default
}

set PROPERTIES_ORIGIN ["COM"]
properties('MP2/aug-cc-pvtz', properties = ['dipole'])
--------------------------------------------------------------------------

    Molecular point group: c1
  Charge       = 0
  Multiplicity = 1
  Basis Set: AUG-CC-PVTZ
    Blend: AUG-CC-PVTZ
  Basis Set: (AUG-CC-PVTZ AUX)
    Blend: AUG-CC-PVTZ-JKFIT

    Orbital Energies [Eh]
    ---------------------

    Doubly Occupied:

       1A    -15.582111     2A    -11.294458     3A    -11.287020
       4A    -11.276748     5A    -11.275378     6A    -11.270419
       7A    -11.265294     8A    -11.265139     9A     -1.214920
      10A     -1.179881    11A     -1.062673    12A     -1.047197
      13A     -0.888056    14A     -0.858744    15A     -0.765241
      16A     -0.698882    17A     -0.661290    18A     -0.637055
      19A     -0.617581    20A     -0.566926    21A     -0.553538
      22A     -0.535137    23A     -0.528856    24A     -0.476843
      25A     -0.460112    26A     -0.366847    27A     -0.358341

  @DF-RHF Final Energy:  -322.53423899387457

   => Energetics <=

    Nuclear Repulsion Energy =            298.5681041895493308
    One-Electron Energy =               -1026.2153139321744675
    Two-Electron Energy =                 405.1129707487505698
    Total Energy =                       -322.5342389938745669
  Basis Set: (AUG-CC-PVTZ AUX)
    Blend: AUG-CC-PVTZ-RI
    Molecular point group: c1

    Geometry (in Angstrom), charge = 0, multiplicity = 1:

       Center              X                  Y                   Z               Mass
    ------------   -----------------  -----------------  -----------------  -----------------
         N           -3.161812147110     0.000007306346     0.002109232922    14.003074004430
         C           -0.541953147110    -0.000007693654     0.001872232922    12.000000000000
         C            0.153374852890    -1.218847693654     0.001919232922    12.000000000000
         C            0.153360852890     1.218841306346     0.001919232922    12.000000000000
         C            1.547138852890    -1.210509693654     0.001994232922    12.000000000000
         C            1.547124852890     1.210519306346     0.001994232922    12.000000000000
         C            2.244915852890     0.000008306346     0.002028232922    12.000000000000
         C           -1.978185147110    -0.000013693654     0.001776232922    12.000000000000
         H           -0.399225847110    -2.154689393654    -0.198111767078     1.007825032230
         H           -0.399261147110     2.154676306346     0.001889232922     1.007825032230
         H            2.089885852890    -2.152207693654     0.002021232922     1.007825032230
         H            2.089862852890     2.152222306346     0.002022232922     1.007825032230
         H            3.331972852890     0.000014306346     0.002087232922     1.007825032230

  Basis Set: AUG-CC-PVTZ
    Blend: AUG-CC-PVTZ
  Basis Set: (AUG-CC-PVTZ AUX)
    Blend: AUG-CC-PVTZ-JKFIT
	 Reference Energy          =    -322.5342389938745669 [Eh]
	 Singles Energy            =      -0.0000000000000000 [Eh]
	 Same-Spin Energy          =      -0.3532035195809754 [Eh]
	 Opposite-Spin Energy      =      -1.0917178326252168 [Eh]
	 Correlation Energy        =      -1.4449213522061921 [Eh]
	 Total Energy              =    -323.9791603460807323 [Eh]

	 ================> DF-SCS-MP2 Energies <==================
	-----------------------------------------------------------
	 SCS Same-Spin Scale       =       0.3333333333333333 [-]
	 SCS Opposite-Spin Scale   =       1.2000000000000000 [-]
	 SCS Same-Spin Energy      =      -0.1177345065269918 [Eh]
	 SCS Opposite-Spin Energy  =      -1.3100613991502601 [Eh]
	 SCS Correlation Energy    =      -1.4277959056772520 [Eh]
	 SCS Total Energy          =    -323.9620348995518384 [Eh]
	-----------------------------------------------------------

  Dipole Moment: [D]
     X:     4.5375      Y:     0.0251      Z:    -0.1309     Total:     4.5394

*** Psi4 exiting successfully. Buy a developer a beer!
