                               Psi4 1.3.2 release

  ==> Input File <==

--------------------------------------------------------------------------
#psi4
#
memory 32 gb

molecule  {
0 1
  N       -3.2235750     0.0000070     0.0001520
  C       -0.6037160    -0.0000080    -0.0000850
  C        0.0916120    -1.2188480    -0.0000380
  C        0.0915980     1.2188410    -0.0000380
  C        1.4853760    -1.2105100     0.0000370
  C        1.4853620     1.2105190     0.0000370
  C        2.1831530     0.0000080     0.0000710
  C       -2.0399480    -0.0000140    -0.0001810
  H       -0.4610000    -2.1546890    -0.0000690
  H       -0.4610240     2.1546760    -0.0000680
  H        2.0281387    -2.1522082    -0.2999360
  H        2.0281000     2.1522220     0.0000650
  H        3.2702100     0.0000140     0.0001300
units angstrom
no_reorient  #important for SAPT in psi4, default
symmetry c1  #important for SAPT in psi4, default
}

set PROPERTIES_ORIGIN ["COM"]
properties('MP2/aug-cc-pvtz', properties = ['dipole'])
--------------------------------------------------------------------------

    Molecular point group: c1
  Charge       = 0
  Multiplicity = 1
  Basis Set: AUG-CC-PVTZ
    Blend: AUG-CC-PVTZ
  Basis Set: (AUG-CC-PVTZ AUX)
    Blend: AUG-CC-PVTZ-JKFIT

    Orbital Energies [Eh]
    ---------------------

    Doubly Occupied:

       1A    -15.582299     2A    -11.294518     3A    -11.287237
       4A    -11.276092     5A    -11.276010     6A    -11.271081
       7A    -11.268304     8A    -11.265198     9A     -1.215180
      10A     -1.180083    11A     -1.062715    12A     -1.047017
      13A     -0.888466    14A     -0.857951    15A     -0.762845
      16A     -0.700728    17A     -0.661537    18A     -0.634803
      19A     -0.615943    20A     -0.567135    21A     -0.554268
      22A     -0.535227    23A     -0.527451    24A     -0.476231
      25A     -0.460097    26A     -0.366666    27A     -0.358473

  @DF-RHF Final Energy:  -322.53057613595718

   => Energetics <=

    Nuclear Repulsion Energy =            298.4901403781854583
    One-Electron Energy =               -1026.0543270629855215
    Two-Electron Energy =                 405.0336105488428302
    Total Energy =                       -322.5305761359571761
  Basis Set: (AUG-CC-PVTZ AUX)
    Blend: AUG-CC-PVTZ-RI
    Molecular point group: c1

    Geometry (in Angstrom), charge = 0, multiplicity = 1:

       Center              X                  Y                   Z               Mass
    ------------   -----------------  -----------------  -----------------  -----------------
         N           -3.161812190145     0.000007301456     0.003087303111    14.003074004430
         C           -0.541953190145    -0.000007698544     0.002850303111    12.000000000000
         C            0.153374809855    -1.218847698544     0.002897303111    12.000000000000
         C            0.153360809855     1.218841301456     0.002897303111    12.000000000000
         C            1.547138809855    -1.210509698544     0.002972303111    12.000000000000
         C            1.547124809855     1.210519301456     0.002972303111    12.000000000000
         C            2.244915809855     0.000008301456     0.003006303111    12.000000000000
         C           -1.978185190145    -0.000013698544     0.002754303111    12.000000000000
         H           -0.399237190145    -2.154688698544     0.002866303111     1.007825032230
         H           -0.399261190145     2.154676301456     0.002867303111     1.007825032230
         H            2.089901509855    -2.152207898544    -0.297000696889     1.007825032230
         H            2.089862809855     2.152222301456     0.003000303111     1.007825032230
         H            3.331972809855     0.000014301456     0.003065303111     1.007825032230

  Basis Set: AUG-CC-PVTZ
    Blend: AUG-CC-PVTZ
  Basis Set: (AUG-CC-PVTZ AUX)
    Blend: AUG-CC-PVTZ-JKFIT
	 Reference Energy          =    -322.5305761359571761 [Eh]
	 Singles Energy            =      -0.0000000000000000 [Eh]
	 Same-Spin Energy          =      -0.3533284642984251 [Eh]
	 Opposite-Spin Energy      =      -1.0921302228189125 [Eh]
	 Correlation Energy        =      -1.4454586871173376 [Eh]
	 Total Energy              =    -323.9760348230745421 [Eh]

	 ================> DF-SCS-MP2 Energies <==================
	-----------------------------------------------------------
	 SCS Same-Spin Scale       =       0.3333333333333333 [-]
	 SCS Opposite-Spin Scale   =       1.2000000000000000 [-]
	 SCS Same-Spin Energy      =      -0.1177761547661417 [Eh]
	 SCS Opposite-Spin Energy  =      -1.3105562673826949 [Eh]
	 SCS Correlation Energy    =      -1.4283324221488367 [Eh]
	 SCS Total Energy          =    -323.9589085581060317 [Eh]
	-----------------------------------------------------------

  Dipole Moment: [D]
     X:     4.4836      Y:     0.0577      Z:    -0.1829     Total:     4.4877

*** Psi4 exiting successfully. Buy a developer a beer!
