                               Psi4 1.3.2 release

  ==> Input File <==

--------------------------------------------------------------------------
#psi4
#
memory 32 gb

molecule  {
0 1
  N       -3.2235750     0.0000070     0.0001520
  C       -0.6037160    -0.0000080    -0.0000850
  C        0.0916120    -1.2188480    -0.0000380
  C        0.0915980     1.2188410    -0.0000380
  C        1.4853760    -1.2105100     0.0000370
  C        1.4853620     1.2105190     0.0000370
  C        2.1831530     0.0000080     0.0000710
  C       -2.0399480    -0.0000140    -0.0001810
  H       -0.4609972    -2.1546892    -0.0500690
  H       -0.4610240     2.1546760    -0.0000680
  H        2.0281230    -2.1522080     0.0000640
  H        2.0281000     2.1522220     0.0000650
  H        3.2702100     0.0000140     0.0001300
units angstrom
no_reorient  #important for SAPT in psi4, default
symmetry c1  #important for SAPT in psi4, default
}

set PROPERTIES_ORIGIN ["COM"]
properties('MP2/aug-cc-pvtz', properties = ['dipole'])
--------------------------------------------------------------------------

    Molecular point group: c1
  Charge       = 0
  Multiplicity = 1
  Basis Set: AUG-CC-PVTZ
    Blend: AUG-CC-PVTZ
  Basis Set: (AUG-CC-PVTZ AUX)
    Blend: AUG-CC-PVTZ-JKFIT

    Orbital Energies [Eh]
    ---------------------

    Doubly Occupied:

       1A    -15.582080     2A    -11.294227     3A    -11.287019
       4A    -11.275382     5A    -11.275282     6A    -11.270345
       7A    -11.264999     8A    -11.264856     9A     -1.214918
      10A     -1.179831    11A     -1.062635    12A     -1.047509
      13A     -0.888204    14A     -0.859454    15A     -0.765703
      16A     -0.700308    17A     -0.661198    18A     -0.637583
      19A     -0.618809    20A     -0.566874    21A     -0.552898
      22A     -0.535404    23A     -0.530709    24A     -0.476870
      25A     -0.460105    26A     -0.367024    27A     -0.358327

  @DF-RHF Final Energy:  -322.53675455074540

   => Energetics <=

    Nuclear Repulsion Energy =            298.6346618799678367
    One-Electron Energy =               -1026.3457208851389169
    Two-Electron Energy =                 405.1743044544257373
    Total Energy =                       -322.5367545507453997
  Basis Set: (AUG-CC-PVTZ AUX)
    Blend: AUG-CC-PVTZ-RI
    Molecular point group: c1

    Geometry (in Angstrom), charge = 0, multiplicity = 1:

       Center              X                  Y                   Z               Mass
    ------------   -----------------  -----------------  -----------------  -----------------
         N           -3.161812063974     0.000007301456     0.000642127638    14.003074004430
         C           -0.541953063974    -0.000007698544     0.000405127638    12.000000000000
         C            0.153374936026    -1.218847698544     0.000452127638    12.000000000000
         C            0.153360936026     1.218841301456     0.000452127638    12.000000000000
         C            1.547138936026    -1.210509698544     0.000527127638    12.000000000000
         C            1.547124936026     1.210519301456     0.000527127638    12.000000000000
         C            2.244915936026     0.000008301456     0.000561127638    12.000000000000
         C           -1.978185063974    -0.000013698544     0.000309127638    12.000000000000
         H           -0.399234263974    -2.154688898544    -0.049578872362     1.007825032230
         H           -0.399261063974     2.154676301456     0.000422127638     1.007825032230
         H            2.089885936026    -2.152207698544     0.000554127638     1.007825032230
         H            2.089862936026     2.152222301456     0.000555127638     1.007825032230
         H            3.331972936026     0.000014301456     0.000620127638     1.007825032230

  Basis Set: AUG-CC-PVTZ
    Blend: AUG-CC-PVTZ
  Basis Set: (AUG-CC-PVTZ AUX)
    Blend: AUG-CC-PVTZ-JKFIT
	 Reference Energy          =    -322.5367545507453997 [Eh]
	 Singles Energy            =      -0.0000000000000000 [Eh]
	 Same-Spin Energy          =      -0.3530514459349479 [Eh]
	 Opposite-Spin Energy      =      -1.0914626772331546 [Eh]
	 Correlation Energy        =      -1.4445141231681025 [Eh]
	 Total Energy              =    -323.9812686739135188 [Eh]

	 ================> DF-SCS-MP2 Energies <==================
	-----------------------------------------------------------
	 SCS Same-Spin Scale       =       0.3333333333333333 [-]
	 SCS Opposite-Spin Scale   =       1.2000000000000000 [-]
	 SCS Same-Spin Energy      =      -0.1176838153116493 [Eh]
	 SCS Opposite-Spin Energy  =      -1.3097552126797856 [Eh]
	 SCS Correlation Energy    =      -1.4274390279914349 [Eh]
	 SCS Total Energy          =    -323.9641935787368539 [Eh]
	-----------------------------------------------------------

  Dipole Moment: [D]
     X:     4.5244      Y:     0.0016      Z:    -0.0332     Total:     4.5245

*** Psi4 exiting successfully. Buy a developer a beer!
