                               Psi4 1.3.2 release

  ==> Input File <==

--------------------------------------------------------------------------
#psi4
#
memory 32 gb

molecule  {
0 1
  N       -3.2235750     0.0000070     0.0001520
  C       -0.6037160    -0.0000080    -0.0000850
  C        0.0916120    -1.2188480    -0.0000380
  C        0.0915980     1.2188410    -0.0000380
  C        1.4853760    -1.2105100     0.0000370
  C        1.4853620     1.2105190     0.0000370
  C        2.1831530     0.0000080     0.0000710
  C       -2.0399480    -0.0000140    -0.0001810
  H       -0.4610000    -2.1546890    -0.0000690
  H       -0.4610240     2.1546760    -0.0000680
  H        2.0281230    -2.1522080     0.0000640
  H        2.0281000     2.1522220     0.0000650
  H        3.2702100     0.0000140     0.0001300
units angstrom
no_reorient  #important for SAPT in psi4, default
symmetry c1  #important for SAPT in psi4, default
}

set PROPERTIES_ORIGIN ["COM"]
properties('MP2/aug-cc-pvtz', properties = ['dipole'])
--------------------------------------------------------------------------

    Molecular point group: c1
  Charge       = 0
  Multiplicity = 1
  Basis Set: AUG-CC-PVTZ
    Blend: AUG-CC-PVTZ
  Basis Set: (AUG-CC-PVTZ AUX)
    Blend: AUG-CC-PVTZ-JKFIT

    Orbital Energies [Eh]
    ---------------------

    Doubly Occupied:

       1A    -15.582078     2A    -11.294212     3A    -11.287019
       4A    -11.275308     5A    -11.275259     6A    -11.270341
       7A    -11.264980     8A    -11.264837     9A     -1.214918
      10A     -1.179828    11A     -1.062634    12A     -1.047531
      13A     -0.888216    14A     -0.859504    15A     -0.765737
      16A     -0.700408    17A     -0.661192    18A     -0.637622
      19A     -0.618888    20A     -0.566871    21A     -0.552852
      22A     -0.535435    23A     -0.530824    24A     -0.476872
      25A     -0.460105    26A     -0.367037    27A     -0.358326

  @DF-RHF Final Energy:  -322.53691291479981

   => Energetics <=

    Nuclear Repulsion Energy =            298.6391840550222128
    One-Electron Energy =               -1026.3545245460352362
    Two-Electron Energy =                 405.1784275762131529
    Total Energy =                       -322.5369129147998137
  Basis Set: (AUG-CC-PVTZ AUX)
    Blend: AUG-CC-PVTZ-RI
    Molecular point group: c1

    Geometry (in Angstrom), charge = 0, multiplicity = 1:

       Center              X                  Y                   Z               Mass
    ------------   -----------------  -----------------  -----------------  -----------------
         N           -3.161812036588     0.000007299500     0.000153092544    14.003074004430
         C           -0.541953036588    -0.000007700500    -0.000083907456    12.000000000000
         C            0.153374963412    -1.218847700500    -0.000036907456    12.000000000000
         C            0.153360963412     1.218841299500    -0.000036907456    12.000000000000
         C            1.547138963412    -1.210509700500     0.000038092544    12.000000000000
         C            1.547124963412     1.210519299500     0.000038092544    12.000000000000
         C            2.244915963412     0.000008299500     0.000072092544    12.000000000000
         C           -1.978185036588    -0.000013700500    -0.000179907456    12.000000000000
         H           -0.399237036588    -2.154688700500    -0.000067907456     1.007825032230
         H           -0.399261036588     2.154676299500    -0.000066907456     1.007825032230
         H            2.089885963412    -2.152207700500     0.000065092544     1.007825032230
         H            2.089862963412     2.152222299500     0.000066092544     1.007825032230
         H            3.331972963412     0.000014299500     0.000131092544     1.007825032230

  Basis Set: AUG-CC-PVTZ
    Blend: AUG-CC-PVTZ
  Basis Set: (AUG-CC-PVTZ AUX)
    Blend: AUG-CC-PVTZ-JKFIT
	 Reference Energy          =    -322.5369129147998137 [Eh]
	 Singles Energy            =      -0.0000000000000000 [Eh]
	 Same-Spin Energy          =      -0.3530411745493048 [Eh]
	 Opposite-Spin Energy      =      -1.0914497382379296 [Eh]
	 Correlation Energy        =      -1.4444909127872343 [Eh]
	 Total Energy              =    -323.9814038275870303 [Eh]

	 ================> DF-SCS-MP2 Energies <==================
	-----------------------------------------------------------
	 SCS Same-Spin Scale       =       0.3333333333333333 [-]
	 SCS Opposite-Spin Scale   =       1.2000000000000000 [-]
	 SCS Same-Spin Energy      =      -0.1176803915164349 [Eh]
	 SCS Opposite-Spin Energy  =      -1.3097396858855155 [Eh]
	 SCS Correlation Energy    =      -1.4274200774019503 [Eh]
	 SCS Total Energy          =    -323.9643329922017756 [Eh]
	-----------------------------------------------------------

  Dipole Moment: [D]
     X:     4.5235      Y:    -0.0000      Z:    -0.0003     Total:     4.5235

*** Psi4 exiting successfully. Buy a developer a beer!
