                               Psi4 1.3.2 release

  ==> Input File <==

--------------------------------------------------------------------------
#psi4
#
memory 32 gb

molecule  {
0 1
  N       -3.2235750     0.0000070     0.0001520
  C       -0.6037160    -0.0000080    -0.0000850
  C        0.0916120    -1.2188480    -0.0000380
  C        0.0915980     1.2188410    -0.0000380
  C        1.4853760    -1.2105100     0.0000370
  C        1.4853620     1.2105190     0.0000370
  C        2.1831530     0.0000080     0.0000710
  C       -2.0399480    -0.0000140    -0.0001810
  H       -0.4610000    -2.1546890    -0.0000690
  H       -0.4610240     2.1546760    -0.0000680
  H        2.0281230    -2.1522080     0.0000640
  H        2.0281000     2.1522220     0.0000650
  H        3.2702152     0.0000140    -0.0998700
units angstrom
no_reorient  #important for SAPT in psi4, default
symmetry c1  #important for SAPT in psi4, default
}

set PROPERTIES_ORIGIN ["COM"]
properties('MP2/aug-cc-pvtz', properties = ['dipole'])
--------------------------------------------------------------------------

    Molecular point group: c1
  Charge       = 0
  Multiplicity = 1
  Basis Set: AUG-CC-PVTZ
    Blend: AUG-CC-PVTZ
  Basis Set: (AUG-CC-PVTZ AUX)
    Blend: AUG-CC-PVTZ-JKFIT

    Orbital Energies [Eh]
    ---------------------

    Doubly Occupied:

       1A    -15.582134     2A    -11.294292     3A    -11.287066
       4A    -11.275330     5A    -11.275280     6A    -11.270729
       7A    -11.265048     8A    -11.264913     9A     -1.214966
      10A     -1.179853    11A     -1.062546    12A     -1.047571
      13A     -0.887947    14A     -0.859535    15A     -0.765779
      16A     -0.699595    17A     -0.661223    18A     -0.637532
      19A     -0.618921    20A     -0.566868    21A     -0.552958
      22A     -0.534947    23A     -0.530861    24A     -0.476740
      25A     -0.460154    26A     -0.367071    27A     -0.358269

  @DF-RHF Final Energy:  -322.53627000283956

   => Energetics <=

    Nuclear Repulsion Energy =            298.6220820571485888
    One-Electron Energy =               -1026.3204467359378214
    Two-Electron Energy =                 405.1620946759496178
    Total Energy =                       -322.5362700028395579
  Basis Set: (AUG-CC-PVTZ AUX)
    Blend: AUG-CC-PVTZ-RI
    Molecular point group: c1

    Geometry (in Angstrom), charge = 0, multiplicity = 1:

       Center              X                  Y                   Z               Mass
    ------------   -----------------  -----------------  -----------------  -----------------
         N           -3.161812087447     0.000007299500     0.001131162733    14.003074004430
         C           -0.541953087447    -0.000007700500     0.000894162733    12.000000000000
         C            0.153374912553    -1.218847700500     0.000941162733    12.000000000000
         C            0.153360912553     1.218841299500     0.000941162733    12.000000000000
         C            1.547138912553    -1.210509700500     0.001016162733    12.000000000000
         C            1.547124912553     1.210519299500     0.001016162733    12.000000000000
         C            2.244915912553     0.000008299500     0.001050162733    12.000000000000
         C           -1.978185087447    -0.000013700500     0.000798162733    12.000000000000
         H           -0.399237087447    -2.154688700500     0.000910162733     1.007825032230
         H           -0.399261087447     2.154676299500     0.000911162733     1.007825032230
         H            2.089885912553    -2.152207700500     0.001043162733     1.007825032230
         H            2.089862912553     2.152222299500     0.001044162733     1.007825032230
         H            3.331978112553     0.000014299500    -0.098890837267     1.007825032230

  Basis Set: AUG-CC-PVTZ
    Blend: AUG-CC-PVTZ
  Basis Set: (AUG-CC-PVTZ AUX)
    Blend: AUG-CC-PVTZ-JKFIT
	 Reference Energy          =    -322.5362700028395579 [Eh]
	 Singles Energy            =      -0.0000000000000000 [Eh]
	 Same-Spin Energy          =      -0.3530805421347479 [Eh]
	 Opposite-Spin Energy      =      -1.0915091786830735 [Eh]
	 Correlation Energy        =      -1.4445897208178216 [Eh]
	 Total Energy              =    -323.9808597236573746 [Eh]

	 ================> DF-SCS-MP2 Energies <==================
	-----------------------------------------------------------
	 SCS Same-Spin Scale       =       0.3333333333333333 [-]
	 SCS Opposite-Spin Scale   =       1.2000000000000000 [-]
	 SCS Same-Spin Energy      =      -0.1176935140449160 [Eh]
	 SCS Opposite-Spin Energy  =      -1.3098110144196882 [Eh]
	 SCS Correlation Energy    =      -1.4275045284646042 [Eh]
	 SCS Total Energy          =    -323.9637745313041819 [Eh]
	-----------------------------------------------------------

  Dipole Moment: [D]
     X:     4.5150      Y:    -0.0000      Z:    -0.0644     Total:     4.5155

*** Psi4 exiting successfully. Buy a developer a beer!
