                               Psi4 1.3.2 release

  ==> Input File <==

--------------------------------------------------------------------------
#psi4
#
memory 32 gb

molecule  {
0 1
  N       -3.2235750     0.0000070     0.0001520
  C       -0.6037160    -0.0000080    -0.0000850
  C        0.0916120    -1.2188480    -0.0000380
  C        0.0915980     1.2188410    -0.0000380
  C        1.4853760    -1.2105100     0.0000370
  C        1.4853620     1.2105190     0.0000370
  C        2.1831530     0.0000080     0.0000710
  C       -2.0399480    -0.0000140    -0.0001810
  H       -0.4610000    -2.1546890    -0.0000690
  H       -0.4610240     2.1546760    -0.0000680
  H        2.0281230    -2.1522080     0.0000640
  H        2.0281000     2.1522220     0.0000650
  H        3.2702256     0.0000140    -0.2998700
units angstrom
no_reorient  #important for SAPT in psi4, default
symmetry c1  #important for SAPT in psi4, default
}

set PROPERTIES_ORIGIN ["COM"]
properties('MP2/aug-cc-pvtz', properties = ['dipole'])
--------------------------------------------------------------------------

    Molecular point group: c1
  Charge       = 0
  Multiplicity = 1
  Basis Set: AUG-CC-PVTZ
    Blend: AUG-CC-PVTZ
  Basis Set: (AUG-CC-PVTZ AUX)
    Blend: AUG-CC-PVTZ-JKFIT

    Orbital Energies [Eh]
    ---------------------

    Doubly Occupied:

       1A    -15.582594     2A    -11.294948     3A    -11.287445
       4A    -11.275536     5A    -11.275488     6A    -11.273796
       7A    -11.265627     8A    -11.265531     9A     -1.215359
      10A     -1.180091    11A     -1.061952    12A     -1.047916
      13A     -0.886044    14A     -0.859818    15A     -0.766148
      16A     -0.693633    17A     -0.661503    18A     -0.636821
      19A     -0.619210    20A     -0.566784    21A     -0.553692
      22A     -0.531194    23A     -0.531189    24A     -0.475675
      25A     -0.460546    26A     -0.367365    27A     -0.357867

  @DF-RHF Final Energy:  -322.53052547421862

   => Energetics <=

    Nuclear Repulsion Energy =            298.4909808487316809
    One-Electron Energy =               -1026.0554755663288233
    Two-Electron Energy =                 405.0339692433785785
    Total Energy =                       -322.5305254742186207
  Basis Set: (AUG-CC-PVTZ AUX)
    Blend: AUG-CC-PVTZ-RI
    Molecular point group: c1

    Geometry (in Angstrom), charge = 0, multiplicity = 1:

       Center              X                  Y                   Z               Mass
    ------------   -----------------  -----------------  -----------------  -----------------
         N           -3.161812189167     0.000007299500     0.003087303111    14.003074004430
         C           -0.541953189167    -0.000007700500     0.002850303111    12.000000000000
         C            0.153374810833    -1.218847700500     0.002897303111    12.000000000000
         C            0.153360810833     1.218841299500     0.002897303111    12.000000000000
         C            1.547138810833    -1.210509700500     0.002972303111    12.000000000000
         C            1.547124810833     1.210519299500     0.002972303111    12.000000000000
         C            2.244915810833     0.000008299500     0.003006303111    12.000000000000
         C           -1.978185189167    -0.000013700500     0.002754303111    12.000000000000
         H           -0.399237189167    -2.154688700500     0.002866303111     1.007825032230
         H           -0.399261189167     2.154676299500     0.002867303111     1.007825032230
         H            2.089885810833    -2.152207700500     0.002999303111     1.007825032230
         H            2.089862810833     2.152222299500     0.003000303111     1.007825032230
         H            3.331988410833     0.000014299500    -0.296934696889     1.007825032230

  Basis Set: AUG-CC-PVTZ
    Blend: AUG-CC-PVTZ
  Basis Set: (AUG-CC-PVTZ AUX)
    Blend: AUG-CC-PVTZ-JKFIT
	 Reference Energy          =    -322.5305254742186207 [Eh]
	 Singles Energy            =      -0.0000000000000000 [Eh]
	 Same-Spin Energy          =      -0.3533816105084180 [Eh]
	 Opposite-Spin Energy      =      -1.0922110911591709 [Eh]
	 Correlation Energy        =      -1.4455927016675889 [Eh]
	 Total Energy              =    -323.9761181758861994 [Eh]

	 ================> DF-SCS-MP2 Energies <==================
	-----------------------------------------------------------
	 SCS Same-Spin Scale       =       0.3333333333333333 [-]
	 SCS Opposite-Spin Scale   =       1.2000000000000000 [-]
	 SCS Same-Spin Energy      =      -0.1177938701694727 [Eh]
	 SCS Opposite-Spin Energy  =      -1.3106533093910051 [Eh]
	 SCS Correlation Energy    =      -1.4284471795604778 [Eh]
	 SCS Total Energy          =    -323.9589726537790852 [Eh]
	-----------------------------------------------------------

  Dipole Moment: [D]
     X:     4.4489      Y:    -0.0000      Z:    -0.1886     Total:     4.4529

*** Psi4 exiting successfully. Buy a developer a beer!
