                               Psi4 1.3.2 release

  ==> Input File <==

--------------------------------------------------------------------------
#psi4
#
memory 32 gb

molecule  {
0 1
  N       -3.2235750     0.0000070     0.0001520
  C       -0.6037160    -0.0000080    -0.0000850
  C        0.0916120    -1.2188480    -0.0000380
  C        0.0915980     1.2188410    -0.0000380
  C        1.4853760    -1.2105100     0.0000370
  C        1.4853620     1.2105190     0.0000370
  C        2.1831530     0.0000080     0.0000710
  C       -2.0399480    -0.0000140    -0.0001810
  H       -0.4609859    -2.1546899    -0.2500690
  H       -0.4610240     2.1546760    -0.0000680
  H        2.0281230    -2.1522080     0.0000640
  H        2.0281000     2.1522220     0.0000650
  H        3.2702100     0.0000140     0.0001300
units angstrom
no_reorient  #important for SAPT in psi4, default
symmetry c1  #important for SAPT in psi4, default
}

set PROPERTIES_ORIGIN ["COM"]
properties('MP2/aug-cc-pvtz', properties = ['dipole'])
--------------------------------------------------------------------------

    Molecular point group: c1
  Charge       = 0
  Multiplicity = 1
  Basis Set: AUG-CC-PVTZ
    Blend: AUG-CC-PVTZ
  Basis Set: (AUG-CC-PVTZ AUX)
    Blend: AUG-CC-PVTZ-JKFIT

    Orbital Energies [Eh]
    ---------------------

    Doubly Occupied:

       1A    -15.582133     2A    -11.294600     3A    -11.287023
       4A    -11.277556     5A    -11.275436     6A    -11.270467
       7A    -11.265474     8A    -11.265309     9A     -1.214924
      10A     -1.179915    11A     -1.062704    12A     -1.047025
      13A     -0.887984    14A     -0.858350    15A     -0.764997
      16A     -0.698084    17A     -0.661350    18A     -0.636780
      19A     -0.616812    20A     -0.566955    21A     -0.553873
      22A     -0.535082    23A     -0.527680    24A     -0.476827
      25A     -0.460118    26A     -0.366750    27A     -0.358351

  @DF-RHF Final Energy:  -322.53261739831476

   => Energetics <=

    Nuclear Repulsion Energy =            298.5292507753518976
    One-Electron Energy =               -1026.1386196496987395
    Two-Electron Energy =                 405.0767514760320864
    Total Energy =                       -322.5326173983147555
  Basis Set: (AUG-CC-PVTZ AUX)
    Blend: AUG-CC-PVTZ-RI
    Molecular point group: c1

    Geometry (in Angstrom), charge = 0, multiplicity = 1:

       Center              X                  Y                   Z               Mass
    ------------   -----------------  -----------------  -----------------  -----------------
         N           -3.161812174496     0.000007308302     0.002598268016    14.003074004430
         C           -0.541953174496    -0.000007691698     0.002361268016    12.000000000000
         C            0.153374825504    -1.218847691698     0.002408268016    12.000000000000
         C            0.153360825504     1.218841308302     0.002408268016    12.000000000000
         C            1.547138825504    -1.210509691698     0.002483268016    12.000000000000
         C            1.547124825504     1.210519308302     0.002483268016    12.000000000000
         C            2.244915825504     0.000008308302     0.002517268016    12.000000000000
         C           -1.978185174496    -0.000013691698     0.002265268016    12.000000000000
         H           -0.399223074496    -2.154689591698    -0.247622731984     1.007825032230
         H           -0.399261174496     2.154676308302     0.002378268016     1.007825032230
         H            2.089885825504    -2.152207691698     0.002510268016     1.007825032230
         H            2.089862825504     2.152222308302     0.002511268016     1.007825032230
         H            3.331972825504     0.000014308302     0.002576268016     1.007825032230

  Basis Set: AUG-CC-PVTZ
    Blend: AUG-CC-PVTZ
  Basis Set: (AUG-CC-PVTZ AUX)
    Blend: AUG-CC-PVTZ-JKFIT
	 Reference Energy          =    -322.5326173983147555 [Eh]
	 Singles Energy            =      -0.0000000000000000 [Eh]
	 Same-Spin Energy          =      -0.3532927217966313 [Eh]
	 Opposite-Spin Energy      =      -1.0918986251515252 [Eh]
	 Correlation Energy        =      -1.4451913469481565 [Eh]
	 Total Energy              =    -323.9778087452629052 [Eh]

	 ================> DF-SCS-MP2 Energies <==================
	-----------------------------------------------------------
	 SCS Same-Spin Scale       =       0.3333333333333333 [-]
	 SCS Opposite-Spin Scale   =       1.2000000000000000 [-]
	 SCS Same-Spin Energy      =      -0.1177642405988771 [Eh]
	 SCS Opposite-Spin Energy  =      -1.3102783501818303 [Eh]
	 SCS Correlation Energy    =      -1.4280425907807073 [Eh]
	 SCS Total Energy          =    -323.9606599890954612 [Eh]
	-----------------------------------------------------------

  Dipole Moment: [D]
     X:     4.5451      Y:     0.0389      Z:    -0.1628     Total:     4.5482

*** Psi4 exiting successfully. Buy a developer a beer!
