                               Psi4 1.3.2 release

  ==> Input File <==

--------------------------------------------------------------------------
#psi4
#
memory 32 gb

molecule  {
0 1
  N       -3.2235750     0.0000070     0.0001520
  C       -0.6037160    -0.0000080    -0.0000850
  C        0.0916120    -1.2188480    -0.0000380
  C        0.0915980     1.2188410    -0.0000380
  C        1.4853760    -1.2105100     0.0000370
  C        1.4853620     1.2105190     0.0000370
  C        2.1831530     0.0000080     0.0000710
  C       -2.0399480    -0.0000140    -0.0001810
  H       -0.4610000    -2.1546890    -0.0000690
  H       -0.4610240     2.1546760    -0.0000680
  H        2.0281309    -2.1522081    -0.1499360
  H        2.0281000     2.1522220     0.0000650
  H        3.2702100     0.0000140     0.0001300
units angstrom
no_reorient  #important for SAPT in psi4, default
symmetry c1  #important for SAPT in psi4, default
}

set PROPERTIES_ORIGIN ["COM"]
properties('MP2/aug-cc-pvtz', properties = ['dipole'])
--------------------------------------------------------------------------

    Molecular point group: c1
  Charge       = 0
  Multiplicity = 1
  Basis Set: AUG-CC-PVTZ
    Blend: AUG-CC-PVTZ
  Basis Set: (AUG-CC-PVTZ AUX)
    Blend: AUG-CC-PVTZ-JKFIT

    Orbital Energies [Eh]
    ---------------------

    Doubly Occupied:

       1A    -15.582129     2A    -11.294284     3A    -11.287072
       4A    -11.275500     5A    -11.275445     6A    -11.270514
       7A    -11.265787     8A    -11.264970     9A     -1.214981
      10A     -1.179886    11A     -1.062641    12A     -1.047388
      13A     -0.888271    14A     -0.859071    15A     -0.764953
      16A     -0.700485    17A     -0.661272    18A     -0.636785
      19A     -0.618227    20A     -0.566935    21A     -0.553248
      22A     -0.535294    23A     -0.530036    24A     -0.476709
      25A     -0.460105    26A     -0.366932    27A     -0.358361

  @DF-RHF Final Energy:  -322.53545250705650

   => Energetics <=

    Nuclear Repulsion Energy =            298.6007243342338597
    One-Electron Energy =               -1026.2777911107225464
    Two-Electron Energy =                 405.1416142694321820
    Total Energy =                       -322.5354525070565046
  Basis Set: (AUG-CC-PVTZ AUX)
    Blend: AUG-CC-PVTZ-RI
    Molecular point group: c1

    Geometry (in Angstrom), charge = 0, multiplicity = 1:

       Center              X                  Y                   Z               Mass
    ------------   -----------------  -----------------  -----------------  -----------------
         N           -3.161812113855     0.000007300478     0.001620197827    14.003074004430
         C           -0.541953113855    -0.000007699522     0.001383197827    12.000000000000
         C            0.153374886145    -1.218847699522     0.001430197827    12.000000000000
         C            0.153360886145     1.218841300478     0.001430197827    12.000000000000
         C            1.547138886145    -1.210509699522     0.001505197827    12.000000000000
         C            1.547124886145     1.210519300478     0.001505197827    12.000000000000
         C            2.244915886145     0.000008300478     0.001539197827    12.000000000000
         C           -1.978185113855    -0.000013699522     0.001287197827    12.000000000000
         H           -0.399237113855    -2.154688699522     0.001399197827     1.007825032230
         H           -0.399261113855     2.154676300478     0.001400197827     1.007825032230
         H            2.089893786145    -2.152207799522    -0.148467802173     1.007825032230
         H            2.089862886145     2.152222300478     0.001533197827     1.007825032230
         H            3.331972886145     0.000014300478     0.001598197827     1.007825032230

  Basis Set: AUG-CC-PVTZ
    Blend: AUG-CC-PVTZ
  Basis Set: (AUG-CC-PVTZ AUX)
    Blend: AUG-CC-PVTZ-JKFIT
	 Reference Energy          =    -322.5354525070565046 [Eh]
	 Singles Energy            =      -0.0000000000000000 [Eh]
	 Same-Spin Energy          =      -0.3531152158742862 [Eh]
	 Opposite-Spin Energy      =      -1.0915886214514416 [Eh]
	 Correlation Energy        =      -1.4447038373257279 [Eh]
	 Total Energy              =    -323.9801563443822374 [Eh]

	 ================> DF-SCS-MP2 Energies <==================
	-----------------------------------------------------------
	 SCS Same-Spin Scale       =       0.3333333333333333 [-]
	 SCS Opposite-Spin Scale   =       1.2000000000000000 [-]
	 SCS Same-Spin Energy      =      -0.1177050719580954 [Eh]
	 SCS Opposite-Spin Energy  =      -1.3099063457417299 [Eh]
	 SCS Correlation Energy    =      -1.4276114176998254 [Eh]
	 SCS Total Energy          =    -323.9630639247563408 [Eh]
	-----------------------------------------------------------

  Dipole Moment: [D]
     X:     4.5134      Y:     0.0147      Z:    -0.0930     Total:     4.5144

*** Psi4 exiting successfully. Buy a developer a beer!
