                               Psi4 1.3.2 release

  ==> Input File <==

--------------------------------------------------------------------------
#psi4
#
memory 32 gb

molecule  {
0 1
  N       -3.2235750     0.0000070     0.0001520
  C       -0.6037160    -0.0000080    -0.0000850
  C        0.0916120    -1.2188480    -0.0000380
  C        0.0915980     1.2188410    -0.0000380
  C        1.4853760    -1.2105100     0.0000370
  C        1.4853620     1.2105190     0.0000370
  C        2.1831530     0.0000080     0.0000710
  C       -2.0399480    -0.0000140    -0.0001810
  H       -0.4610000    -2.1546890    -0.0000690
  H       -0.4610240     2.1546760    -0.0000680
  H        2.0281282    -2.1522081    -0.0999360
  H        2.0281000     2.1522220     0.0000650
  H        3.2702100     0.0000140     0.0001300
units angstrom
no_reorient  #important for SAPT in psi4, default
symmetry c1  #important for SAPT in psi4, default
}

set PROPERTIES_ORIGIN ["COM"]
properties('MP2/aug-cc-pvtz', properties = ['dipole'])
--------------------------------------------------------------------------

    Molecular point group: c1
  Charge       = 0
  Multiplicity = 1
  Basis Set: AUG-CC-PVTZ
    Blend: AUG-CC-PVTZ
  Basis Set: (AUG-CC-PVTZ AUX)
    Blend: AUG-CC-PVTZ-JKFIT

    Orbital Energies [Eh]
    ---------------------

    Doubly Occupied:

       1A    -15.582100     2A    -11.294243     3A    -11.287042
       4A    -11.275392     5A    -11.275341     6A    -11.270416
       7A    -11.265311     8A    -11.264924     9A     -1.214946
      10A     -1.179853    11A     -1.062635    12A     -1.047466
      13A     -0.888239    14A     -0.859307    15A     -0.765383
      16A     -0.700442    17A     -0.661227    18A     -0.637238
      19A     -0.618601    20A     -0.566899    21A     -0.553032
      22A     -0.535361    23A     -0.530481    24A     -0.476799
      25A     -0.460105    26A     -0.366989    27A     -0.358341

  @DF-RHF Final Energy:  -322.53627553965276

   => Energetics <=

    Nuclear Repulsion Energy =            298.6219867198264524
    One-Electron Energy =               -1026.3202963931819340
    Two-Electron Energy =                 405.1620341337026616
    Total Energy =                       -322.5362755396527632
  Basis Set: (AUG-CC-PVTZ AUX)
    Blend: AUG-CC-PVTZ-RI
    Molecular point group: c1

    Geometry (in Angstrom), charge = 0, multiplicity = 1:

       Center              X                  Y                   Z               Mass
    ------------   -----------------  -----------------  -----------------  -----------------
         N           -3.161812087447     0.000007300478     0.001131162733    14.003074004430
         C           -0.541953087447    -0.000007699522     0.000894162733    12.000000000000
         C            0.153374912553    -1.218847699522     0.000941162733    12.000000000000
         C            0.153360912553     1.218841300478     0.000941162733    12.000000000000
         C            1.547138912553    -1.210509699522     0.001016162733    12.000000000000
         C            1.547124912553     1.210519300478     0.001016162733    12.000000000000
         C            2.244915912553     0.000008300478     0.001050162733    12.000000000000
         C           -1.978185087447    -0.000013699522     0.000798162733    12.000000000000
         H           -0.399237087447    -2.154688699522     0.000910162733     1.007825032230
         H           -0.399261087447     2.154676300478     0.000911162733     1.007825032230
         H            2.089891112553    -2.152207799522    -0.098956837267     1.007825032230
         H            2.089862912553     2.152222300478     0.001044162733     1.007825032230
         H            3.331972912553     0.000014300478     0.001109162733     1.007825032230

  Basis Set: AUG-CC-PVTZ
    Blend: AUG-CC-PVTZ
  Basis Set: (AUG-CC-PVTZ AUX)
    Blend: AUG-CC-PVTZ-JKFIT
	 Reference Energy          =    -322.5362755396527632 [Eh]
	 Singles Energy            =      -0.0000000000000000 [Eh]
	 Same-Spin Energy          =      -0.3530742731435554 [Eh]
	 Opposite-Spin Energy      =      -1.0915051018598410 [Eh]
	 Correlation Energy        =      -1.4445793750033964 [Eh]
	 Total Energy              =    -323.9808549146561631 [Eh]

	 ================> DF-SCS-MP2 Energies <==================
	-----------------------------------------------------------
	 SCS Same-Spin Scale       =       0.3333333333333333 [-]
	 SCS Opposite-Spin Scale   =       1.2000000000000000 [-]
	 SCS Same-Spin Energy      =      -0.1176914243811851 [Eh]
	 SCS Opposite-Spin Energy  =      -1.3098061222318091 [Eh]
	 SCS Correlation Energy    =      -1.4274975466129942 [Eh]
	 SCS Total Energy          =    -323.9637730862657463 [Eh]
	-----------------------------------------------------------

  Dipole Moment: [D]
     X:     4.5190      Y:     0.0066      Z:    -0.0623     Total:     4.5194

*** Psi4 exiting successfully. Buy a developer a beer!
