                               Psi4 1.3.2 release

  ==> Input File <==

--------------------------------------------------------------------------
#psi4
#
memory 32 gb

molecule  {
0 1
  N       -3.2235750     0.0000070     0.0001520
  C       -0.6037160    -0.0000080    -0.0000850
  C        0.0916120    -1.2188480    -0.0000380
  C        0.0915980     1.2188410    -0.0000380
  C        1.4853760    -1.2105100     0.0000370
  C        1.4853620     1.2105190     0.0000370
  C        2.1831530     0.0000080     0.0000710
  C       -2.0399480    -0.0000140    -0.0001810
  H       -0.4610000    -2.1546890    -0.0000690
  H       -0.4610240     2.1546760    -0.0000680
  H        2.0281230    -2.1522080     0.0000640
  H        2.0281000     2.1522220     0.0000650
  H        3.2702178     0.0000140    -0.1498700
units angstrom
no_reorient  #important for SAPT in psi4, default
symmetry c1  #important for SAPT in psi4, default
}

set PROPERTIES_ORIGIN ["COM"]
properties('MP2/aug-cc-pvtz', properties = ['dipole'])
--------------------------------------------------------------------------

    Molecular point group: c1
  Charge       = 0
  Multiplicity = 1
  Basis Set: AUG-CC-PVTZ
    Blend: AUG-CC-PVTZ
  Basis Set: (AUG-CC-PVTZ AUX)
    Blend: AUG-CC-PVTZ-JKFIT

    Orbital Energies [Eh]
    ---------------------

    Doubly Occupied:

       1A    -15.582205     2A    -11.294394     3A    -11.287125
       4A    -11.275359     5A    -11.275310     6A    -11.271215
       7A    -11.265136     8A    -11.265009     9A     -1.215026
      10A     -1.179888    11A     -1.062442    12A     -1.047622
      13A     -0.887622    14A     -0.859577    15A     -0.765835
      16A     -0.698600    17A     -0.661264    18A     -0.637421
      19A     -0.618963    20A     -0.566863    21A     -0.553084
      22A     -0.534346    23A     -0.530910    24A     -0.476574
      25A     -0.460215    26A     -0.367115    27A     -0.358201

  @DF-RHF Final Energy:  -322.53543992380571

   => Energetics <=

    Nuclear Repulsion Energy =            298.6009374172996331
    One-Electron Energy =               -1026.2781090922871954
    Two-Electron Energy =                 405.1417317511818510
    Total Energy =                       -322.5354399238057113
  Basis Set: (AUG-CC-PVTZ AUX)
    Blend: AUG-CC-PVTZ-RI
    Molecular point group: c1

    Geometry (in Angstrom), charge = 0, multiplicity = 1:

       Center              X                  Y                   Z               Mass
    ------------   -----------------  -----------------  -----------------  -----------------
         N           -3.161812112877     0.000007299500     0.001620197827    14.003074004430
         C           -0.541953112877    -0.000007700500     0.001383197827    12.000000000000
         C            0.153374887123    -1.218847700500     0.001430197827    12.000000000000
         C            0.153360887123     1.218841299500     0.001430197827    12.000000000000
         C            1.547138887123    -1.210509700500     0.001505197827    12.000000000000
         C            1.547124887123     1.210519299500     0.001505197827    12.000000000000
         C            2.244915887123     0.000008299500     0.001539197827    12.000000000000
         C           -1.978185112877    -0.000013700500     0.001287197827    12.000000000000
         H           -0.399237112877    -2.154688700500     0.001399197827     1.007825032230
         H           -0.399261112877     2.154676299500     0.001400197827     1.007825032230
         H            2.089885887123    -2.152207700500     0.001532197827     1.007825032230
         H            2.089862887123     2.152222299500     0.001533197827     1.007825032230
         H            3.331980687123     0.000014299500    -0.148401802173     1.007825032230

  Basis Set: AUG-CC-PVTZ
    Blend: AUG-CC-PVTZ
  Basis Set: (AUG-CC-PVTZ AUX)
    Blend: AUG-CC-PVTZ-JKFIT
	 Reference Energy          =    -322.5354399238057113 [Eh]
	 Singles Energy            =      -0.0000000000000000 [Eh]
	 Same-Spin Energy          =      -0.3531290987126482 [Eh]
	 Opposite-Spin Energy      =      -1.0916027905785048 [Eh]
	 Correlation Energy        =      -1.4447318892911531 [Eh]
	 Total Energy              =    -323.9801718130968879 [Eh]

	 ================> DF-SCS-MP2 Energies <==================
	-----------------------------------------------------------
	 SCS Same-Spin Scale       =       0.3333333333333333 [-]
	 SCS Opposite-Spin Scale   =       1.2000000000000000 [-]
	 SCS Same-Spin Energy      =      -0.1177096995708827 [Eh]
	 SCS Opposite-Spin Energy  =      -1.3099233486942057 [Eh]
	 SCS Correlation Energy    =      -1.4276330482650885 [Eh]
	 SCS Total Energy          =    -323.9630729720707905 [Eh]
	-----------------------------------------------------------

  Dipole Moment: [D]
     X:     4.5045      Y:    -0.0000      Z:    -0.0961     Total:     4.5055

*** Psi4 exiting successfully. Buy a developer a beer!
