                               Psi4 1.3.2 release

  ==> Input File <==

--------------------------------------------------------------------------
#psi4
#
memory 32 gb

molecule  {
0 1
  N       -3.2235750     0.0000070     0.0001520
  C       -0.6037160    -0.0000080    -0.0000850
  C        0.0916120    -1.2188480    -0.0000380
  C        0.0915980     1.2188410    -0.0000380
  C        1.4853760    -1.2105100     0.0000370
  C        1.4853620     1.2105190     0.0000370
  C        2.1831530     0.0000080     0.0000710
  C       -2.0399480    -0.0000140    -0.0001810
  H       -0.4610000    -2.1546890    -0.0000690
  H       -0.4610240     2.1546760    -0.0000680
  H        2.0281230    -2.1522080     0.0000640
  H        2.0281000     2.1522220     0.0000650
  H        3.2702230     0.0000140    -0.2498700
units angstrom
no_reorient  #important for SAPT in psi4, default
symmetry c1  #important for SAPT in psi4, default
}

set PROPERTIES_ORIGIN ["COM"]
properties('MP2/aug-cc-pvtz', properties = ['dipole'])
--------------------------------------------------------------------------

    Molecular point group: c1
  Charge       = 0
  Multiplicity = 1
  Basis Set: AUG-CC-PVTZ
    Blend: AUG-CC-PVTZ
  Basis Set: (AUG-CC-PVTZ AUX)
    Blend: AUG-CC-PVTZ-JKFIT

    Orbital Energies [Eh]
    ---------------------

    Doubly Occupied:

       1A    -15.582435     2A    -11.294722     3A    -11.287315
       4A    -11.275462     5A    -11.275413     6A    -11.272757
       7A    -11.265425     8A    -11.265319     9A     -1.215223
      10A     -1.180006    11A     -1.062139    12A     -1.047794
      13A     -0.886654    14A     -0.859718    15A     -0.766019
      16A     -0.695578    17A     -0.661403    18A     -0.637067
      19A     -0.619108    20A     -0.566826    21A     -0.553457
      22A     -0.532463    23A     -0.531073    24A     -0.476043
      25A     -0.460411    26A     -0.367262    27A     -0.357997

  @DF-RHF Final Energy:  -322.53260793255816

   => Energetics <=

    Nuclear Repulsion Energy =            298.5349459021670668
    One-Electron Energy =               -1026.1449305953565272
    Two-Electron Energy =                 405.0773767606313527
    Total Energy =                       -322.5326079325581645
  Basis Set: (AUG-CC-PVTZ AUX)
    Blend: AUG-CC-PVTZ-RI
    Molecular point group: c1

    Geometry (in Angstrom), charge = 0, multiplicity = 1:

       Center              X                  Y                   Z               Mass
    ------------   -----------------  -----------------  -----------------  -----------------
         N           -3.161812163737     0.000007299500     0.002598268016    14.003074004430
         C           -0.541953163737    -0.000007700500     0.002361268016    12.000000000000
         C            0.153374836263    -1.218847700500     0.002408268016    12.000000000000
         C            0.153360836263     1.218841299500     0.002408268016    12.000000000000
         C            1.547138836263    -1.210509700500     0.002483268016    12.000000000000
         C            1.547124836263     1.210519299500     0.002483268016    12.000000000000
         C            2.244915836263     0.000008299500     0.002517268016    12.000000000000
         C           -1.978185163737    -0.000013700500     0.002265268016    12.000000000000
         H           -0.399237163737    -2.154688700500     0.002377268016     1.007825032230
         H           -0.399261163737     2.154676299500     0.002378268016     1.007825032230
         H            2.089885836263    -2.152207700500     0.002510268016     1.007825032230
         H            2.089862836263     2.152222299500     0.002511268016     1.007825032230
         H            3.331985836263     0.000014299500    -0.247423731984     1.007825032230

  Basis Set: AUG-CC-PVTZ
    Blend: AUG-CC-PVTZ
  Basis Set: (AUG-CC-PVTZ AUX)
    Blend: AUG-CC-PVTZ-JKFIT
	 Reference Energy          =    -322.5326079325581645 [Eh]
	 Singles Energy            =      -0.0000000000000000 [Eh]
	 Same-Spin Energy          =      -0.3532805341029158 [Eh]
	 Opposite-Spin Energy      =      -1.0919535896365442 [Eh]
	 Correlation Energy        =      -1.4452341237394601 [Eh]
	 Total Energy              =    -323.9778420562976180 [Eh]

	 ================> DF-SCS-MP2 Energies <==================
	-----------------------------------------------------------
	 SCS Same-Spin Scale       =       0.3333333333333333 [-]
	 SCS Opposite-Spin Scale   =       1.2000000000000000 [-]
	 SCS Same-Spin Energy      =      -0.1177601780343053 [Eh]
	 SCS Opposite-Spin Energy  =      -1.3103443075638530 [Eh]
	 SCS Correlation Energy    =      -1.4281044855981584 [Eh]
	 SCS Total Energy          =    -323.9607124181563336 [Eh]
	-----------------------------------------------------------

  Dipole Moment: [D]
     X:     4.4713      Y:    -0.0000      Z:    -0.1583     Total:     4.4741

*** Psi4 exiting successfully. Buy a developer a beer!
