                               Psi4 1.3.2 release

  ==> Input File <==

--------------------------------------------------------------------------
#psi4
#
memory 32 gb

molecule  {
0 1
  N       -3.2235750     0.0000070     0.0001520
  C       -0.6037160    -0.0000080    -0.0000850
  C        0.0916120    -1.2188480    -0.0000380
  C        0.0915980     1.2188410    -0.0000380
  C        1.4853760    -1.2105100     0.0000370
  C        1.4853620     1.2105190     0.0000370
  C        2.1831530     0.0000080     0.0000710
  C       -2.0399480    -0.0000140    -0.0001810
  H       -0.4610000    -2.1546890    -0.0000690
  H       -0.4610240     2.1546760    -0.0000680
  H        2.0281361    -2.1522081    -0.2499360
  H        2.0281000     2.1522220     0.0000650
  H        3.2702100     0.0000140     0.0001300
units angstrom
no_reorient  #important for SAPT in psi4, default
symmetry c1  #important for SAPT in psi4, default
}

set PROPERTIES_ORIGIN ["COM"]
properties('MP2/aug-cc-pvtz', properties = ['dipole'])
--------------------------------------------------------------------------

    Molecular point group: c1
  Charge       = 0
  Multiplicity = 1
  Basis Set: AUG-CC-PVTZ
    Blend: AUG-CC-PVTZ
  Basis Set: (AUG-CC-PVTZ AUX)
    Blend: AUG-CC-PVTZ-JKFIT

    Orbital Energies [Eh]
    ---------------------

    Doubly Occupied:

       1A    -15.582228     2A    -11.294420     3A    -11.287169
       4A    -11.275850     5A    -11.275779     6A    -11.270841
       7A    -11.267299     8A    -11.265104     9A     -1.215097
      10A     -1.180001    11A     -1.062677    12A     -1.047160
      13A     -0.888383    14A     -0.858378    15A     -0.763663
      16A     -0.700628    17A     -0.661427    18A     -0.635520
      19A     -0.616924    20A     -0.567053    21A     -0.553879
      22A     -0.535213    23A     -0.528529    24A     -0.476424
      25A     -0.460102    26A     -0.366767    27A     -0.358427

  @DF-RHF Final Energy:  -322.53264314901469

   => Energetics <=

    Nuclear Repulsion Energy =            298.5343599280839726
    One-Electron Energy =               -1026.1441164217626465
    Two-Electron Energy =                 405.0771133446639851
    Total Energy =                       -322.5326431490146888
  Basis Set: (AUG-CC-PVTZ AUX)
    Blend: AUG-CC-PVTZ-RI
    Molecular point group: c1

    Geometry (in Angstrom), charge = 0, multiplicity = 1:

       Center              X                  Y                   Z               Mass
    ------------   -----------------  -----------------  -----------------  -----------------
         N           -3.161812164715     0.000007300478     0.002598268016    14.003074004430
         C           -0.541953164715    -0.000007699522     0.002361268016    12.000000000000
         C            0.153374835285    -1.218847699522     0.002408268016    12.000000000000
         C            0.153360835285     1.218841300478     0.002408268016    12.000000000000
         C            1.547138835285    -1.210509699522     0.002483268016    12.000000000000
         C            1.547124835285     1.210519300478     0.002483268016    12.000000000000
         C            2.244915835285     0.000008300478     0.002517268016    12.000000000000
         C           -1.978185164715    -0.000013699522     0.002265268016    12.000000000000
         H           -0.399237164715    -2.154688699522     0.002377268016     1.007825032230
         H           -0.399261164715     2.154676300478     0.002378268016     1.007825032230
         H            2.089898935285    -2.152207799522    -0.247489731984     1.007825032230
         H            2.089862835285     2.152222300478     0.002511268016     1.007825032230
         H            3.331972835285     0.000014300478     0.002576268016     1.007825032230

  Basis Set: AUG-CC-PVTZ
    Blend: AUG-CC-PVTZ
  Basis Set: (AUG-CC-PVTZ AUX)
    Blend: AUG-CC-PVTZ-JKFIT
	 Reference Energy          =    -322.5326431490146888 [Eh]
	 Singles Energy            =      -0.0000000000000000 [Eh]
	 Same-Spin Energy          =      -0.3532431165709274 [Eh]
	 Opposite-Spin Energy      =      -1.0919000353009141 [Eh]
	 Correlation Energy        =      -1.4451431518718416 [Eh]
	 Total Energy              =    -323.9777863008865211 [Eh]

	 ================> DF-SCS-MP2 Energies <==================
	-----------------------------------------------------------
	 SCS Same-Spin Scale       =       0.3333333333333333 [-]
	 SCS Opposite-Spin Scale   =       1.2000000000000000 [-]
	 SCS Same-Spin Energy      =      -0.1177477055236425 [Eh]
	 SCS Opposite-Spin Energy  =      -1.3102800423610967 [Eh]
	 SCS Correlation Energy    =      -1.4280277478847392 [Eh]
	 SCS Total Energy          =    -323.9606708968994440 [Eh]
	-----------------------------------------------------------

  Dipole Moment: [D]
     X:     4.4956      Y:     0.0404      Z:    -0.1534     Total:     4.4984

*** Psi4 exiting successfully. Buy a developer a beer!
