                               Psi4 1.3.2 release

  ==> Input File <==

--------------------------------------------------------------------------
#psi4
#
memory 32 gb

molecule  {
0 1
  N       -3.2235750     0.0000070     0.0001520
  C       -0.6037160    -0.0000080    -0.0000850
  C        0.0916120    -1.2188480    -0.0000380
  C        0.0915980     1.2188410    -0.0000380
  C        1.4853760    -1.2105100     0.0000370
  C        1.4853620     1.2105190     0.0000370
  C        2.1831530     0.0000080     0.0000710
  C       -2.0399480    -0.0000140    -0.0001810
  H       -0.4610000    -2.1546890    -0.0000690
  H       -0.4610240     2.1546760    -0.0000680
  H        2.0281230    -2.1522080     0.0000640
  H        2.0281000     2.1522220     0.0000650
  H        3.2702126     0.0000140    -0.0498700
units angstrom
no_reorient  #important for SAPT in psi4, default
symmetry c1  #important for SAPT in psi4, default
}

set PROPERTIES_ORIGIN ["COM"]
properties('MP2/aug-cc-pvtz', properties = ['dipole'])
--------------------------------------------------------------------------

    Molecular point group: c1
  Charge       = 0
  Multiplicity = 1
  Basis Set: AUG-CC-PVTZ
    Blend: AUG-CC-PVTZ
  Basis Set: (AUG-CC-PVTZ AUX)
    Blend: AUG-CC-PVTZ-JKFIT

    Orbital Energies [Eh]
    ---------------------

    Doubly Occupied:

       1A    -15.582092     2A    -11.294232     3A    -11.287031
       4A    -11.275314     5A    -11.275264     6A    -11.270438
       7A    -11.264997     8A    -11.264856     9A     -1.214930
      10A     -1.179834    11A     -1.062611    12A     -1.047541
      13A     -0.888148    14A     -0.859511    15A     -0.765747
      16A     -0.700203    17A     -0.661200    18A     -0.637599
      19A     -0.618896    20A     -0.566871    21A     -0.552879
      22A     -0.535312    23A     -0.530833    24A     -0.476839
      25A     -0.460117    26A     -0.367045    27A     -0.358312

  @DF-RHF Final Energy:  -322.53675404330698

   => Energetics <=

    Nuclear Repulsion Energy =            298.6348928942660450
    One-Electron Energy =               -1026.3459906902796774
    Two-Electron Energy =                 405.1743437527066476
    Total Energy =                       -322.5367540433069848
  Basis Set: (AUG-CC-PVTZ AUX)
    Blend: AUG-CC-PVTZ-RI
    Molecular point group: c1

    Geometry (in Angstrom), charge = 0, multiplicity = 1:

       Center              X                  Y                   Z               Mass
    ------------   -----------------  -----------------  -----------------  -----------------
         N           -3.161812062017     0.000007299500     0.000642127638    14.003074004430
         C           -0.541953062017    -0.000007700500     0.000405127638    12.000000000000
         C            0.153374937983    -1.218847700500     0.000452127638    12.000000000000
         C            0.153360937983     1.218841299500     0.000452127638    12.000000000000
         C            1.547138937983    -1.210509700500     0.000527127638    12.000000000000
         C            1.547124937983     1.210519299500     0.000527127638    12.000000000000
         C            2.244915937983     0.000008299500     0.000561127638    12.000000000000
         C           -1.978185062017    -0.000013700500     0.000309127638    12.000000000000
         H           -0.399237062017    -2.154688700500     0.000421127638     1.007825032230
         H           -0.399261062017     2.154676299500     0.000422127638     1.007825032230
         H            2.089885937983    -2.152207700500     0.000554127638     1.007825032230
         H            2.089862937983     2.152222299500     0.000555127638     1.007825032230
         H            3.331975537983     0.000014299500    -0.049379872362     1.007825032230

  Basis Set: AUG-CC-PVTZ
    Blend: AUG-CC-PVTZ
  Basis Set: (AUG-CC-PVTZ AUX)
    Blend: AUG-CC-PVTZ-JKFIT
	 Reference Energy          =    -322.5367540433069848 [Eh]
	 Singles Energy            =      -0.0000000000000000 [Eh]
	 Same-Spin Energy          =      -0.3530510663709466 [Eh]
	 Opposite-Spin Energy      =      -1.0914625934269415 [Eh]
	 Correlation Energy        =      -1.4445136597978880 [Eh]
	 Total Energy              =    -323.9812677031048906 [Eh]

	 ================> DF-SCS-MP2 Energies <==================
	-----------------------------------------------------------
	 SCS Same-Spin Scale       =       0.3333333333333333 [-]
	 SCS Opposite-Spin Scale   =       1.2000000000000000 [-]
	 SCS Same-Spin Energy      =      -0.1176836887903155 [Eh]
	 SCS Opposite-Spin Energy  =      -1.3097551121123299 [Eh]
	 SCS Correlation Energy    =      -1.4274388009026455 [Eh]
	 SCS Total Energy          =    -323.9641928442096059 [Eh]
	-----------------------------------------------------------

  Dipole Moment: [D]
     X:     4.5214      Y:    -0.0000      Z:    -0.0324     Total:     4.5215

*** Psi4 exiting successfully. Buy a developer a beer!
