                               Psi4 1.3.2 release

  ==> Input File <==

--------------------------------------------------------------------------
#psi4
#
memory 32 gb

molecule  {
0 1
  N       -3.2235750     0.0000070     0.0001520
  C       -0.6037160    -0.0000080    -0.0000850
  C        0.0916120    -1.2188480    -0.0000380
  C        0.0915980     1.2188410    -0.0000380
  C        1.4853760    -1.2105100     0.0000370
  C        1.4853620     1.2105190     0.0000370
  C        2.1831530     0.0000080     0.0000710
  C       -2.0399480    -0.0000140    -0.0001810
  H       -0.4610000    -2.1546890    -0.0000690
  H       -0.4610240     2.1546760    -0.0000680
  H        2.0281256    -2.1522080    -0.0499360
  H        2.0281000     2.1522220     0.0000650
  H        3.2702100     0.0000140     0.0001300
units angstrom
no_reorient  #important for SAPT in psi4, default
symmetry c1  #important for SAPT in psi4, default
}

set PROPERTIES_ORIGIN ["COM"]
properties('MP2/aug-cc-pvtz', properties = ['dipole'])
--------------------------------------------------------------------------

    Molecular point group: c1
  Charge       = 0
  Multiplicity = 1
  Basis Set: AUG-CC-PVTZ
    Blend: AUG-CC-PVTZ
  Basis Set: (AUG-CC-PVTZ AUX)
    Blend: AUG-CC-PVTZ-JKFIT

    Orbital Energies [Eh]
    ---------------------

    Doubly Occupied:

       1A    -15.582084     2A    -11.294220     3A    -11.287025
       4A    -11.275329     5A    -11.275279     6A    -11.270360
       7A    -11.265045     8A    -11.264876     9A     -1.214925
      10A     -1.179834    11A     -1.062634    12A     -1.047515
      13A     -0.888221    14A     -0.859454    15A     -0.765647
      16A     -0.700416    17A     -0.661201    18A     -0.637524
      19A     -0.618817    20A     -0.566878    21A     -0.552897
      22A     -0.535414    23A     -0.530739    24A     -0.476854
      25A     -0.460105    26A     -0.367025    27A     -0.358330

  @DF-RHF Final Energy:  -322.53675538021275

   => Energetics <=

    Nuclear Repulsion Energy =            298.6348688678941699
    One-Electron Energy =               -1026.3459507129282429
    Two-Electron Energy =                 405.1743264648213199
    Total Energy =                       -322.5367553802127532
  Basis Set: (AUG-CC-PVTZ AUX)
    Blend: AUG-CC-PVTZ-RI
    Molecular point group: c1

    Geometry (in Angstrom), charge = 0, multiplicity = 1:

       Center              X                  Y                   Z               Mass
    ------------   -----------------  -----------------  -----------------  -----------------
         N           -3.161812062017     0.000007299500     0.000642127638    14.003074004430
         C           -0.541953062017    -0.000007700500     0.000405127638    12.000000000000
         C            0.153374937983    -1.218847700500     0.000452127638    12.000000000000
         C            0.153360937983     1.218841299500     0.000452127638    12.000000000000
         C            1.547138937983    -1.210509700500     0.000527127638    12.000000000000
         C            1.547124937983     1.210519299500     0.000527127638    12.000000000000
         C            2.244915937983     0.000008299500     0.000561127638    12.000000000000
         C           -1.978185062017    -0.000013700500     0.000309127638    12.000000000000
         H           -0.399237062017    -2.154688700500     0.000421127638     1.007825032230
         H           -0.399261062017     2.154676299500     0.000422127638     1.007825032230
         H            2.089888537983    -2.152207700500    -0.049445872362     1.007825032230
         H            2.089862937983     2.152222299500     0.000555127638     1.007825032230
         H            3.331972937983     0.000014299500     0.000620127638     1.007825032230

  Basis Set: AUG-CC-PVTZ
    Blend: AUG-CC-PVTZ
  Basis Set: (AUG-CC-PVTZ AUX)
    Blend: AUG-CC-PVTZ-JKFIT
	 Reference Energy          =    -322.5367553802127532 [Eh]
	 Singles Energy            =      -0.0000000000000000 [Eh]
	 Same-Spin Energy          =      -0.3530494765748787 [Eh]
	 Opposite-Spin Energy      =      -1.0914622082909364 [Eh]
	 Correlation Energy        =      -1.4445116848658150 [Eh]
	 Total Energy              =    -323.9812670650785549 [Eh]

	 ================> DF-SCS-MP2 Energies <==================
	-----------------------------------------------------------
	 SCS Same-Spin Scale       =       0.3333333333333333 [-]
	 SCS Opposite-Spin Scale   =       1.2000000000000000 [-]
	 SCS Same-Spin Energy      =      -0.1176831588582929 [Eh]
	 SCS Opposite-Spin Energy  =      -1.3097546499491237 [Eh]
	 SCS Correlation Energy    =      -1.4274378088074167 [Eh]
	 SCS Total Energy          =    -323.9641931890201931 [Eh]
	-----------------------------------------------------------

  Dipole Moment: [D]
     X:     4.5224      Y:     0.0016      Z:    -0.0314     Total:     4.5225

*** Psi4 exiting successfully. Buy a developer a beer!
