                               Psi4 1.3.2 release

  ==> Input File <==

--------------------------------------------------------------------------
#psi4
#
memory 32 gb

molecule  {
0 1
  N       -3.2235750     0.0000070     0.0001520
  C       -0.6037160    -0.0000080    -0.0000850
  C        0.0916120    -1.2188480    -0.0000380
  C        0.0915980     1.2188410    -0.0000380
  C        1.4853760    -1.2105100     0.0000370
  C        1.4853620     1.2105190     0.0000370
  C        2.1831530     0.0000080     0.0000710
  C       -2.0399480    -0.0000140    -0.0001810
  H       -0.4609944    -2.1546894    -0.1000690
  H       -0.4610240     2.1546760    -0.0000680
  H        2.0281230    -2.1522080     0.0000640
  H        2.0281000     2.1522220     0.0000650
  H        3.2702100     0.0000140     0.0001300
units angstrom
no_reorient  #important for SAPT in psi4, default
symmetry c1  #important for SAPT in psi4, default
}

set PROPERTIES_ORIGIN ["COM"]
properties('MP2/aug-cc-pvtz', properties = ['dipole'])
--------------------------------------------------------------------------

    Molecular point group: c1
  Charge       = 0
  Multiplicity = 1
  Basis Set: AUG-CC-PVTZ
    Blend: AUG-CC-PVTZ
  Basis Set: (AUG-CC-PVTZ AUX)
    Blend: AUG-CC-PVTZ-JKFIT

    Orbital Energies [Eh]
    ---------------------

    Doubly Occupied:

       1A    -15.582085     2A    -11.294272     3A    -11.287019
       4A    -11.275654     5A    -11.275304     6A    -11.270359
       7A    -11.265057     8A    -11.264912     9A     -1.214918
      10A     -1.179840    11A     -1.062641    12A     -1.047444
      13A     -0.888171    14A     -0.859306    15A     -0.765604
      16A     -0.700013    17A     -0.661215    18A     -0.637470
      19A     -0.618569    20A     -0.566885    21A     -0.553036
      22A     -0.535324    23A     -0.530356    24A     -0.476864
      25A     -0.460106    26A     -0.366987    27A     -0.358329

  @DF-RHF Final Energy:  -322.53627200497993

   => Energetics <=

    Nuclear Repulsion Energy =            298.6211632425558378
    One-Electron Energy =               -1026.3193907140262127
    Two-Electron Energy =                 405.1619554664903831
    Total Energy =                       -322.5362720049799350
  Basis Set: (AUG-CC-PVTZ AUX)
    Blend: AUG-CC-PVTZ-RI
    Molecular point group: c1

    Geometry (in Angstrom), charge = 0, multiplicity = 1:

       Center              X                  Y                   Z               Mass
    ------------   -----------------  -----------------  -----------------  -----------------
         N           -3.161812091360     0.000007303412     0.001131162733    14.003074004430
         C           -0.541953091360    -0.000007696588     0.000894162733    12.000000000000
         C            0.153374908640    -1.218847696588     0.000941162733    12.000000000000
         C            0.153360908640     1.218841303412     0.000941162733    12.000000000000
         C            1.547138908640    -1.210509696588     0.001016162733    12.000000000000
         C            1.547124908640     1.210519303412     0.001016162733    12.000000000000
         C            2.244915908640     0.000008303412     0.001050162733    12.000000000000
         C           -1.978185091360    -0.000013696588     0.000798162733    12.000000000000
         H           -0.399231491360    -2.154689096588    -0.099089837267     1.007825032230
         H           -0.399261091360     2.154676303412     0.000911162733     1.007825032230
         H            2.089885908640    -2.152207696588     0.001043162733     1.007825032230
         H            2.089862908640     2.152222303412     0.001044162733     1.007825032230
         H            3.331972908640     0.000014303412     0.001109162733     1.007825032230

  Basis Set: AUG-CC-PVTZ
    Blend: AUG-CC-PVTZ
  Basis Set: (AUG-CC-PVTZ AUX)
    Blend: AUG-CC-PVTZ-JKFIT
	 Reference Energy          =    -322.5362720049799350 [Eh]
	 Singles Energy            =      -0.0000000000000000 [Eh]
	 Same-Spin Energy          =      -0.3530821797535716 [Eh]
	 Opposite-Spin Energy      =      -1.0915059513584435 [Eh]
	 Correlation Energy        =      -1.4445881311120150 [Eh]
	 Total Energy              =    -323.9808601360919624 [Eh]

	 ================> DF-SCS-MP2 Energies <==================
	-----------------------------------------------------------
	 SCS Same-Spin Scale       =       0.3333333333333333 [-]
	 SCS Opposite-Spin Scale   =       1.2000000000000000 [-]
	 SCS Same-Spin Energy      =      -0.1176940599178572 [Eh]
	 SCS Opposite-Spin Energy  =      -1.3098071416301322 [Eh]
	 SCS Correlation Energy    =      -1.4275012015479893 [Eh]
	 SCS Total Energy          =    -323.9637732065279465 [Eh]
	-----------------------------------------------------------

  Dipole Moment: [D]
     X:     4.5271      Y:     0.0063      Z:    -0.0660     Total:     4.5275

*** Psi4 exiting successfully. Buy a developer a beer!
