                               Psi4 1.3.2 release

  ==> Input File <==

--------------------------------------------------------------------------
#psi4
#
memory 32 gb

molecule  {
0 1
  N       -3.2235750     0.0000070     0.0001520
  C       -0.6037160    -0.0000080    -0.0000850
  C        0.0916120    -1.2188480    -0.0000380
  C        0.0915980     1.2188410    -0.0000380
  C        1.4853760    -1.2105100     0.0000370
  C        1.4853620     1.2105190     0.0000370
  C        2.1831530     0.0000080     0.0000710
  C       -2.0399480    -0.0000140    -0.0001810
  H       -0.4609916    -2.1546896    -0.1500690
  H       -0.4610240     2.1546760    -0.0000680
  H        2.0281230    -2.1522080     0.0000640
  H        2.0281000     2.1522220     0.0000650
  H        3.2702100     0.0000140     0.0001300
units angstrom
no_reorient  #important for SAPT in psi4, default
symmetry c1  #important for SAPT in psi4, default
}

set PROPERTIES_ORIGIN ["COM"]
properties('MP2/aug-cc-pvtz', properties = ['dipole'])
--------------------------------------------------------------------------

    Molecular point group: c1
  Charge       = 0
  Multiplicity = 1
  Basis Set: AUG-CC-PVTZ
    Blend: AUG-CC-PVTZ
  Basis Set: (AUG-CC-PVTZ AUX)
    Blend: AUG-CC-PVTZ-JKFIT

    Orbital Energies [Eh]
    ---------------------

    Doubly Occupied:

       1A    -15.582096     2A    -11.294349     3A    -11.287019
       4A    -11.276111     5A    -11.275335     6A    -11.270383
       7A    -11.265155     8A    -11.265007     9A     -1.214918
      10A     -1.179856    11A     -1.062653    12A     -1.047339
      13A     -0.888120    14A     -0.859067    15A     -0.765447
      16A     -0.699532    17A     -0.661246    18A     -0.637290
      19A     -0.618163    20A     -0.566902    21A     -0.553253
      22A     -0.535225    23A     -0.529745    24A     -0.476855
      25A     -0.460108    26A     -0.366927    27A     -0.358334

  @DF-RHF Final Energy:  -322.53544413514072

   => Energetics <=

    Nuclear Repulsion Energy =            298.5988760745509012
    One-Electron Energy =               -1026.2757760805027374
    Two-Electron Energy =                 405.1414558708111713
    Total Energy =                       -322.5354441351407218
  Basis Set: (AUG-CC-PVTZ AUX)
    Blend: AUG-CC-PVTZ-RI
    Molecular point group: c1

    Geometry (in Angstrom), charge = 0, multiplicity = 1:

       Center              X                  Y                   Z               Mass
    ------------   -----------------  -----------------  -----------------  -----------------
         N           -3.161812118746     0.000007305368     0.001620197827    14.003074004430
         C           -0.541953118746    -0.000007694632     0.001383197827    12.000000000000
         C            0.153374881254    -1.218847694632     0.001430197827    12.000000000000
         C            0.153360881254     1.218841305368     0.001430197827    12.000000000000
         C            1.547138881254    -1.210509694632     0.001505197827    12.000000000000
         C            1.547124881254     1.210519305368     0.001505197827    12.000000000000
         C            2.244915881254     0.000008305368     0.001539197827    12.000000000000
         C           -1.978185118746    -0.000013694632     0.001287197827    12.000000000000
         H           -0.399228718746    -2.154689294632    -0.148600802173     1.007825032230
         H           -0.399261118746     2.154676305368     0.001400197827     1.007825032230
         H            2.089885881254    -2.152207694632     0.001532197827     1.007825032230
         H            2.089862881254     2.152222305368     0.001533197827     1.007825032230
         H            3.331972881254     0.000014305368     0.001598197827     1.007825032230

  Basis Set: AUG-CC-PVTZ
    Blend: AUG-CC-PVTZ
  Basis Set: (AUG-CC-PVTZ AUX)
    Blend: AUG-CC-PVTZ-JKFIT
	 Reference Energy          =    -322.5354441351407218 [Eh]
	 Singles Energy            =      -0.0000000000000000 [Eh]
	 Same-Spin Energy          =      -0.3531330681622854 [Eh]
	 Opposite-Spin Energy      =      -1.0915884605297328 [Eh]
	 Correlation Energy        =      -1.4447215286920181 [Eh]
	 Total Energy              =    -323.9801656638327358 [Eh]

	 ================> DF-SCS-MP2 Energies <==================
	-----------------------------------------------------------
	 SCS Same-Spin Scale       =       0.3333333333333333 [-]
	 SCS Opposite-Spin Scale   =       1.2000000000000000 [-]
	 SCS Same-Spin Energy      =      -0.1177110227207618 [Eh]
	 SCS Opposite-Spin Energy  =      -1.3099061526356792 [Eh]
	 SCS Correlation Energy    =      -1.4276171753564411 [Eh]
	 SCS Total Energy          =    -323.9630613104971530 [Eh]
	-----------------------------------------------------------

  Dipole Moment: [D]
     X:     4.5314      Y:     0.0142      Z:    -0.0986     Total:     4.5325

*** Psi4 exiting successfully. Buy a developer a beer!
