                               Psi4 1.3.2 release

  ==> Input File <==

--------------------------------------------------------------------------
#psi4
#
memory 32 gb

molecule  {
0 1
  N       -3.2235750     0.0000070     0.0001520
  C       -0.6037160    -0.0000080    -0.0000850
  C        0.0916120    -1.2188480    -0.0000380
  C        0.0915980     1.2188410    -0.0000380
  C        1.4853760    -1.2105100     0.0000370
  C        1.4853620     1.2105190     0.0000370
  C        2.1831530     0.0000080     0.0000710
  C       -2.0399480    -0.0000140    -0.0001810
  H       -0.4609831    -2.1546901    -0.3000690
  H       -0.4610240     2.1546760    -0.0000680
  H        2.0281230    -2.1522080     0.0000640
  H        2.0281000     2.1522220     0.0000650
  H        3.2702100     0.0000140     0.0001300
units angstrom
no_reorient  #important for SAPT in psi4, default
symmetry c1  #important for SAPT in psi4, default
}

set PROPERTIES_ORIGIN ["COM"]
properties('MP2/aug-cc-pvtz', properties = ['dipole'])
--------------------------------------------------------------------------

    Molecular point group: c1
  Charge       = 0
  Multiplicity = 1
  Basis Set: AUG-CC-PVTZ
    Blend: AUG-CC-PVTZ
  Basis Set: (AUG-CC-PVTZ AUX)
    Blend: AUG-CC-PVTZ-JKFIT

    Orbital Energies [Eh]
    ---------------------

    Doubly Occupied:

       1A    -15.582160     2A    -11.294776     3A    -11.287027
       4A    -11.278525     5A    -11.275508     6A    -11.270528
       7A    -11.265693     8A    -11.265515     9A     -1.214930
      10A     -1.179960    11A     -1.062747    12A     -1.046828
      13A     -0.887911    14A     -0.857897    15A     -0.764730
      16A     -0.697165    17A     -0.661426    18A     -0.636482
      19A     -0.615844    20A     -0.566989    21A     -0.554246
      22A     -0.535067    23A     -0.526218    24A     -0.476809
      25A     -0.460126    26A     -0.366639    27A     -0.358364

  @DF-RHF Final Energy:  -322.53053711319052

   => Energetics <=

    Nuclear Repulsion Energy =            298.4828044320238405
    One-Electron Energy =               -1026.0464647535586664
    Two-Electron Energy =                 405.0331232083443069
    Total Energy =                       -322.5305371131905190
  Basis Set: (AUG-CC-PVTZ AUX)
    Blend: AUG-CC-PVTZ-RI
    Molecular point group: c1

    Geometry (in Angstrom), charge = 0, multiplicity = 1:

       Center              X                  Y                   Z               Mass
    ------------   -----------------  -----------------  -----------------  -----------------
         N           -3.161812201882     0.000007310258     0.003087303111    14.003074004430
         C           -0.541953201882    -0.000007689742     0.002850303111    12.000000000000
         C            0.153374798118    -1.218847689742     0.002897303111    12.000000000000
         C            0.153360798118     1.218841310258     0.002897303111    12.000000000000
         C            1.547138798118    -1.210509689742     0.002972303111    12.000000000000
         C            1.547124798118     1.210519310258     0.002972303111    12.000000000000
         C            2.244915798118     0.000008310258     0.003006303111    12.000000000000
         C           -1.978185201882    -0.000013689742     0.002754303111    12.000000000000
         H           -0.399220301882    -2.154689789742    -0.297133696889     1.007825032230
         H           -0.399261201882     2.154676310258     0.002867303111     1.007825032230
         H            2.089885798118    -2.152207689742     0.002999303111     1.007825032230
         H            2.089862798118     2.152222310258     0.003000303111     1.007825032230
         H            3.331972798118     0.000014310258     0.003065303111     1.007825032230

  Basis Set: AUG-CC-PVTZ
    Blend: AUG-CC-PVTZ
  Basis Set: (AUG-CC-PVTZ AUX)
    Blend: AUG-CC-PVTZ-JKFIT
	 Reference Energy          =    -322.5305371131905190 [Eh]
	 Singles Energy            =      -0.0000000000000000 [Eh]
	 Same-Spin Energy          =      -0.3533996979010839 [Eh]
	 Opposite-Spin Energy      =      -1.0921329106352298 [Eh]
	 Correlation Energy        =      -1.4455326085363138 [Eh]
	 Total Energy              =    -323.9760697217268444 [Eh]

	 ================> DF-SCS-MP2 Energies <==================
	-----------------------------------------------------------
	 SCS Same-Spin Scale       =       0.3333333333333333 [-]
	 SCS Opposite-Spin Scale   =       1.2000000000000000 [-]
	 SCS Same-Spin Energy      =      -0.1177998993003613 [Eh]
	 SCS Opposite-Spin Energy  =      -1.3105594927622757 [Eh]
	 SCS Correlation Energy    =      -1.4283593920626370 [Eh]
	 SCS Total Energy          =    -323.9588965052531648 [Eh]
	-----------------------------------------------------------

  Dipole Moment: [D]
     X:     4.5544      Y:     0.0556      Z:    -0.1942     Total:     4.5589

*** Psi4 exiting successfully. Buy a developer a beer!
