                               Psi4 1.4a3.dev225

  ==> Input File <==

--------------------------------------------------------------------------
#psi4
#
memory 32 gb

molecule  {
0 1
  O        3.0945450    -0.5978990    -0.2227500
  N        0.8732720    -0.9469790     0.1890630
  C        0.1786250     1.7001670     0.9719610
  C        1.1438980     2.1917080    -0.1170310
  C       -0.8608580     0.7595260     0.4300750
  C        1.5465590     1.0555900    -1.0683300
  C       -0.4811190    -0.5451200     0.0537530
  C        1.9260440    -0.2179400    -0.3394640
  C       -2.2011530     1.1304640     0.2820740
  C       -1.4377800    -1.4595290    -0.4043930
  C        1.1842379    -2.2576962     0.8056882
  C       -3.1574580     0.2247240    -0.1803460
  C       -2.7731680    -1.0742070    -0.5192260
  H       -0.3080960     2.5514800     1.4609130
  H        0.7541300     1.1728590     1.7431030
  H        0.6757450     2.9910460    -0.7037420
  H        2.0370980     2.6179610     0.3539850
  H        2.4176540     1.3419220    -1.6627910
  H        0.7204100     0.8435550    -1.7555650
  H       -2.5026250     2.1373940     0.5668430
  H       -1.1292290    -2.4616270    -0.6921390
  H        1.2028300    -3.0439780     0.0536200
  H        0.4229280    -2.4619330     1.5509630
  H        2.1652810    -2.1715440     1.2577890
  H       -4.1964680     0.5304710    -0.2745970
  H       -3.5107020    -1.7878430    -0.8784520
units angstrom
no_reorient  #important for SAPT in psi4, default
symmetry c1  #important for SAPT in psi4, default
}

set PROPERTIES_ORIGIN ["COM"]
properties('MP2/aug-cc-pvtz', properties = ['dipole'])
--------------------------------------------------------------------------

    Molecular point group: c1
  Charge       = 0
  Multiplicity = 1
  Basis Set: AUG-CC-PVTZ
    Blend: AUG-CC-PVTZ
  Basis Set: (AUG-CC-PVTZ AUX)
    Blend: AUG-CC-PVTZ-JKFIT

    Orbital Energies [Eh]
    ---------------------

    Doubly Occupied:

       1A    -20.517678     2A    -15.593305     3A    -11.349250
       4A    -11.285218     5A    -11.257935     6A    -11.249665
       7A    -11.245922     8A    -11.244964     9A    -11.244475
      10A    -11.242000    11A    -11.239867    12A    -11.238024
      13A    -11.236234    14A     -1.372722    15A     -1.258236
      16A     -1.152581    17A     -1.098811    18A     -1.031898
      19A     -1.018225    20A     -0.976579    21A     -0.925936
      22A     -0.867932    23A     -0.837309    24A     -0.798559
      25A     -0.753521    26A     -0.688974    27A     -0.683385
      28A     -0.668618    29A     -0.652422    30A     -0.623094
      31A     -0.617618    32A     -0.610251    33A     -0.596924
      34A     -0.578217    35A     -0.570313    36A     -0.558054
      37A     -0.536747    38A     -0.523587    39A     -0.517925
      40A     -0.508437    41A     -0.496125    42A     -0.484755
      43A     -0.473701    44A     -0.420129    45A     -0.405055
      46A     -0.342097    47A     -0.318156

  @DF-RHF Final Energy:  -553.63644816902854

   => Energetics <=

    Nuclear Repulsion Energy =            796.7399552281129900
    One-Electron Energy =               -2332.9299384571199880
    Two-Electron Energy =                 982.5535350599783442
    Total Energy =                       -553.6364481690285402
  Basis Set: (AUG-CC-PVTZ AUX)
    Blend: AUG-CC-PVTZ-RI
    Molecular point group: c1

    Geometry (in Angstrom), charge = 0, multiplicity = 1:

       Center              X                  Y                   Z               Mass
    ------------   -----------------  -----------------  -----------------  -----------------
         O            3.087243007242    -0.583882568455    -0.217550912892    15.994914619570
         N            0.865970007242    -0.932962568455     0.194262087108    14.003074004430
         C            0.171323007242     1.714183431545     0.977160087108    12.000000000000
         C            1.136596007242     2.205724431545    -0.111831912892    12.000000000000
         C           -0.868159992758     0.773542431545     0.435274087108    12.000000000000
         C            1.539257007242     1.069606431545    -1.063130912892    12.000000000000
         C           -0.488420992758    -0.531103568455     0.058952087108    12.000000000000
         C            1.918742007242    -0.203923568455    -0.334264912892    12.000000000000
         C           -2.208454992758     1.144480431545     0.287273087108    12.000000000000
         C           -1.445081992758    -1.445512568455    -0.399193912892    12.000000000000
         C            1.176935907242    -2.243679768455     0.810887287108    12.000000000000
         C           -3.164759992758     0.238740431545    -0.175146912892    12.000000000000
         C           -2.780469992758    -1.060190568455    -0.514026912892    12.000000000000
         H           -0.315397992758     2.565496431545     1.466112087108     1.007825032230
         H            0.746828007242     1.186875431545     1.748302087108     1.007825032230
         H            0.668443007242     3.005062431545    -0.698542912892     1.007825032230
         H            2.029796007242     2.631977431545     0.359184087108     1.007825032230
         H            2.410352007242     1.355938431545    -1.657591912892     1.007825032230
         H            0.713108007242     0.857571431545    -1.750365912892     1.007825032230
         H           -2.509926992758     2.151410431545     0.572042087108     1.007825032230
         H           -1.136530992758    -2.447610568455    -0.686939912892     1.007825032230
         H            1.195528007242    -3.029961568455     0.058819087108     1.007825032230
         H            0.415626007242    -2.447916568455     1.556162087108     1.007825032230
         H            2.157979007242    -2.157527568455     1.262988087108     1.007825032230
         H           -4.203769992758     0.544487431545    -0.269397912892     1.007825032230
         H           -3.518003992758    -1.773826568455    -0.873252912892     1.007825032230

  Basis Set: AUG-CC-PVTZ
    Blend: AUG-CC-PVTZ
  Basis Set: (AUG-CC-PVTZ AUX)
    Blend: AUG-CC-PVTZ-JKFIT
	 Reference Energy          =    -553.6364481690285402 [Eh]
	 Singles Energy            =      -0.0000000000000000 [Eh]
	 Same-Spin Energy          =      -0.6034772719196743 [Eh]
	 Opposite-Spin Energy      =      -1.9027896096393946 [Eh]
	 Correlation Energy        =      -2.5062668815590690 [Eh]
	 Total Energy              =    -556.1427150505876398 [Eh]

	 ================> DF-SCS-MP2 Energies <==================
	-----------------------------------------------------------
	 SCS Same-Spin Scale       =       0.3333333333333333 [-]
	 SCS Opposite-Spin Scale   =       1.2000000000000000 [-]
	 SCS Same-Spin Energy      =      -0.2011590906398914 [Eh]
	 SCS Opposite-Spin Energy  =      -2.2833475315672733 [Eh]
	 SCS Correlation Energy    =      -2.4845066222071646 [Eh]
	 SCS Total Energy          =    -556.1209547912357039 [Eh]
	-----------------------------------------------------------

  Dipole Moment: [D]
     X:    -3.2160      Y:     0.5332      Z:     0.2872     Total:     3.2725

*** Psi4 exiting successfully. Buy a developer a beer!
