                               Psi4 1.3.2 release

  ==> Input File <==

--------------------------------------------------------------------------
#psi4
#
memory 32 gb

molecule  {
0 1
  O        3.0945450    -0.5978990    -0.2227500
  N        0.8732720    -0.9469790     0.1890630
  C        0.1786250     1.7001670     0.9719610
  C        1.1438980     2.1917080    -0.1170310
  C       -0.8608580     0.7595260     0.4300750
  C        1.5465590     1.0555900    -1.0683300
  C       -0.4811190    -0.5451200     0.0537530
  C        2.0020378    -0.1653147    -0.3776154
  C       -2.2011530     1.1304640     0.2820740
  C       -1.4377800    -1.4595290    -0.4043930
  C        1.1800400    -2.2400020     0.7973640
  C       -3.1574580     0.2247240    -0.1803460
  C       -2.7731680    -1.0742070    -0.5192260
  H       -0.3080960     2.5514800     1.4609130
  H        0.7541300     1.1728590     1.7431030
  H        0.6757450     2.9910460    -0.7037420
  H        2.0370980     2.6179610     0.3539850
  H        2.4176540     1.3419220    -1.6627910
  H        0.7204100     0.8435550    -1.7555650
  H       -2.5026250     2.1373940     0.5668430
  H       -1.1292290    -2.4616270    -0.6921390
  H        1.2028300    -3.0439780     0.0536200
  H        0.4229280    -2.4619330     1.5509630
  H        2.1652810    -2.1715440     1.2577890
  H       -4.1964680     0.5304710    -0.2745970
  H       -3.5107020    -1.7878430    -0.8784520
units angstrom
no_reorient  #important for SAPT in psi4, default
symmetry c1  #important for SAPT in psi4, default
}

set PROPERTIES_ORIGIN ["COM"]
properties('MP2/aug-cc-pvtz', properties = ['dipole'])
--------------------------------------------------------------------------

    Molecular point group: c1
  Charge       = 0
  Multiplicity = 1
  Basis Set: AUG-CC-PVTZ
    Blend: AUG-CC-PVTZ
  Basis Set: (AUG-CC-PVTZ AUX)
    Blend: AUG-CC-PVTZ-JKFIT

    Orbital Energies [Eh]
    ---------------------

    Doubly Occupied:

       1A    -20.538764     2A    -15.576546     3A    -11.357155
       4A    -11.278400     5A    -11.250226     6A    -11.243911
       7A    -11.243700     8A    -11.241129     9A    -11.240797
      10A    -11.240439    11A    -11.237689    12A    -11.236738
      13A    -11.236382    14A     -1.411830    15A     -1.242248
      16A     -1.144344    17A     -1.102228    18A     -1.034777
      19A     -1.010419    20A     -0.973367    21A     -0.913186
      22A     -0.867677    23A     -0.826901    24A     -0.794308
      25A     -0.748415    26A     -0.695065    27A     -0.682266
      28A     -0.669534    29A     -0.649895    30A     -0.625756
      31A     -0.620388    32A     -0.608718    33A     -0.594532
      34A     -0.581978    35A     -0.573444    36A     -0.551734
      37A     -0.541486    38A     -0.524778    39A     -0.516975
      40A     -0.505279    41A     -0.496746    42A     -0.483692
      43A     -0.478600    44A     -0.430747    45A     -0.398896
      46A     -0.337563    47A     -0.308957

  @DF-RHF Final Energy:  -553.62737457904927

   => Energetics <=

    Nuclear Repulsion Energy =            796.3055474446189237
    One-Electron Energy =               -2332.1286364016846164
    Two-Electron Energy =                 982.1957143780164188
    Total Energy =                       -553.6273745790492740
  Basis Set: (AUG-CC-PVTZ AUX)
    Blend: AUG-CC-PVTZ-RI
    Molecular point group: c1

    Geometry (in Angstrom), charge = 0, multiplicity = 1:

       Center              X                  Y                   Z               Mass
    ------------   -----------------  -----------------  -----------------  -----------------
         O            3.082322663399    -0.588701731094    -0.214365829449    15.994914619570
         N            0.861049663399    -0.937781731094     0.197447170551    14.003074004430
         C            0.166402663399     1.709364268906     0.980345170551    12.000000000000
         C            1.131675663399     2.200905268906    -0.108646829449    12.000000000000
         C           -0.873080336601     0.768723268906     0.438459170551    12.000000000000
         C            1.534336663399     1.064787268906    -1.059945829449    12.000000000000
         C           -0.493341336601    -0.535922731094     0.062137170551    12.000000000000
         C            1.989815463399    -0.156117431094    -0.369231229449    12.000000000000
         C           -2.213375336601     1.139661268906     0.290458170551    12.000000000000
         C           -1.450002336601    -1.450331731094    -0.396008829449    12.000000000000
         C            1.167817663399    -2.230804731094     0.805748170551    12.000000000000
         C           -3.169680336601     0.233921268906    -0.171961829449    12.000000000000
         C           -2.785390336601    -1.065009731094    -0.510841829449    12.000000000000
         H           -0.320318336601     2.560677268906     1.469297170551     1.007825032230
         H            0.741907663399     1.182056268906     1.751487170551     1.007825032230
         H            0.663522663399     3.000243268906    -0.695357829449     1.007825032230
         H            2.024875663399     2.627158268906     0.362369170551     1.007825032230
         H            2.405431663399     1.351119268906    -1.654406829449     1.007825032230
         H            0.708187663399     0.852752268906    -1.747180829449     1.007825032230
         H           -2.514847336601     2.146591268906     0.575227170551     1.007825032230
         H           -1.141451336601    -2.452429731094    -0.683754829449     1.007825032230
         H            1.190607663399    -3.034780731094     0.062004170551     1.007825032230
         H            0.410705663399    -2.452735731094     1.559347170551     1.007825032230
         H            2.153058663399    -2.162346731094     1.266173170551     1.007825032230
         H           -4.208690336601     0.539668268906    -0.266212829449     1.007825032230
         H           -3.522924336601    -1.778645731094    -0.870067829449     1.007825032230

  Basis Set: AUG-CC-PVTZ
    Blend: AUG-CC-PVTZ
  Basis Set: (AUG-CC-PVTZ AUX)
    Blend: AUG-CC-PVTZ-JKFIT
	 Reference Energy          =    -553.6273745790492740 [Eh]
	 Singles Energy            =      -0.0000000000000000 [Eh]
	 Same-Spin Energy          =      -0.6034866829746832 [Eh]
	 Opposite-Spin Energy      =      -1.9022473306935159 [Eh]
	 Correlation Energy        =      -2.5057340136681994 [Eh]
	 Total Energy              =    -556.1331085927174627 [Eh]

	 ================> DF-SCS-MP2 Energies <==================
	-----------------------------------------------------------
	 SCS Same-Spin Scale       =       0.3333333333333333 [-]
	 SCS Opposite-Spin Scale   =       1.2000000000000000 [-]
	 SCS Same-Spin Energy      =      -0.2011622276582277 [Eh]
	 SCS Opposite-Spin Energy  =      -2.2826967968322189 [Eh]
	 SCS Correlation Energy    =      -2.4838590244904468 [Eh]
	 SCS Total Energy          =    -556.1112336035397448 [Eh]
	-----------------------------------------------------------

  Dipole Moment: [D]
     X:    -2.2794      Y:     0.9051      Z:    -0.0008     Total:     2.4526

*** Psi4 exiting successfully. Buy a developer a beer!
