                               Psi4 1.4a3.dev225

  ==> Input File <==

--------------------------------------------------------------------------
#psi4
#
memory 32 gb

molecule  {
0 1
  O        3.0945450    -0.5978990    -0.2227500
  N        0.8732720    -0.9469790     0.1890630
  C        0.1786250     1.7001670     0.9719610
  C        1.1438980     2.1917080    -0.1170310
  C       -0.8608580     0.7595260     0.4300750
  C        1.5465590     1.0555900    -1.0683300
  C       -0.4620325    -0.5507831     0.0556598
  C        1.9260440    -0.2179400    -0.3394640
  C       -2.2011530     1.1304640     0.2820740
  C       -1.4377800    -1.4595290    -0.4043930
  C        1.1800400    -2.2400020     0.7973640
  C       -3.1574580     0.2247240    -0.1803460
  C       -2.7731680    -1.0742070    -0.5192260
  H       -0.3080960     2.5514800     1.4609130
  H        0.7541300     1.1728590     1.7431030
  H        0.6757450     2.9910460    -0.7037420
  H        2.0370980     2.6179610     0.3539850
  H        2.4176540     1.3419220    -1.6627910
  H        0.7204100     0.8435550    -1.7555650
  H       -2.5026250     2.1373940     0.5668430
  H       -1.1292290    -2.4616270    -0.6921390
  H        1.2028300    -3.0439780     0.0536200
  H        0.4229280    -2.4619330     1.5509630
  H        2.1652810    -2.1715440     1.2577890
  H       -4.1964680     0.5304710    -0.2745970
  H       -3.5107020    -1.7878430    -0.8784520
units angstrom
no_reorient  #important for SAPT in psi4, default
symmetry c1  #important for SAPT in psi4, default
}

set PROPERTIES_ORIGIN ["COM"]
properties('MP2/aug-cc-pvtz', properties = ['dipole'])
--------------------------------------------------------------------------

    Molecular point group: c1
  Charge       = 0
  Multiplicity = 1
  Basis Set: AUG-CC-PVTZ
    Blend: AUG-CC-PVTZ
  Basis Set: (AUG-CC-PVTZ AUX)
    Blend: AUG-CC-PVTZ-JKFIT

    Orbital Energies [Eh]
    ---------------------

    Doubly Occupied:

       1A    -20.519742     2A    -15.595071     3A    -11.351065
       4A    -11.286183     5A    -11.258499     6A    -11.250221
       7A    -11.245821     8A    -11.244730     9A    -11.244540
      10A    -11.241675    11A    -11.240175    12A    -11.237798
      13A    -11.237083    14A     -1.375556    15A     -1.266189
      16A     -1.151699    17A     -1.099102    18A     -1.031494
      19A     -1.017597    20A     -0.977657    21A     -0.925661
      22A     -0.870295    23A     -0.837021    24A     -0.798302
      25A     -0.755803    26A     -0.690735    27A     -0.684588
      28A     -0.669838    29A     -0.655565    30A     -0.622900
      31A     -0.617984    32A     -0.609245    33A     -0.598231
      34A     -0.578019    35A     -0.572872    36A     -0.555446
      37A     -0.535991    38A     -0.523285    39A     -0.518563
      40A     -0.508029    41A     -0.495689    42A     -0.485312
      43A     -0.473000    44A     -0.421994    45A     -0.406285
      46A     -0.341467    47A     -0.315961

  @DF-RHF Final Energy:  -553.63582295497508

   => Energetics <=

    Nuclear Repulsion Energy =            797.2714945419896821
    One-Electron Energy =               -2333.9346798360115827
    Two-Electron Energy =                 983.0273623390467037
    Total Energy =                       -553.6358229549750831
  Basis Set: (AUG-CC-PVTZ AUX)
    Blend: AUG-CC-PVTZ-RI
    Molecular point group: c1

    Geometry (in Angstrom), charge = 0, multiplicity = 1:

       Center              X                  Y                   Z               Mass
    ------------   -----------------  -----------------  -----------------  -----------------
         O            3.086222656062    -0.584707088362    -0.217111113202    15.994914619570
         N            0.864949656062    -0.933787088362     0.194701886798    14.003074004430
         C            0.170302656062     1.713358911638     0.977599886798    12.000000000000
         C            1.135575656062     2.204899911638    -0.111392113202    12.000000000000
         C           -0.869180343938     0.772717911638     0.435713886798    12.000000000000
         C            1.538236656062     1.068781911638    -1.062691113202    12.000000000000
         C           -0.470354843938    -0.537591188362     0.061298686798    12.000000000000
         C            1.917721656062    -0.204748088362    -0.333825113202    12.000000000000
         C           -2.209475343938     1.143655911638     0.287712886798    12.000000000000
         C           -1.446102343938    -1.446337088362    -0.398754113202    12.000000000000
         C            1.171717656062    -2.226810088362     0.803002886798    12.000000000000
         C           -3.165780343938     0.237915911638    -0.174707113202    12.000000000000
         C           -2.781490343938    -1.061015088362    -0.513587113202    12.000000000000
         H           -0.316418343938     2.564671911638     1.466551886798     1.007825032230
         H            0.745807656062     1.186050911638     1.748741886798     1.007825032230
         H            0.667422656062     3.004237911638    -0.698103113202     1.007825032230
         H            2.028775656062     2.631152911638     0.359623886798     1.007825032230
         H            2.409331656062     1.355113911638    -1.657152113202     1.007825032230
         H            0.712087656062     0.856746911638    -1.749926113202     1.007825032230
         H           -2.510947343938     2.150585911638     0.572481886798     1.007825032230
         H           -1.137551343938    -2.448435088362    -0.686500113202     1.007825032230
         H            1.194507656062    -3.030786088362     0.059258886798     1.007825032230
         H            0.414605656062    -2.448741088362     1.556601886798     1.007825032230
         H            2.156958656062    -2.158352088362     1.263427886798     1.007825032230
         H           -4.204790343938     0.543662911638    -0.268958113202     1.007825032230
         H           -3.519024343938    -1.774651088362    -0.872813113202     1.007825032230

  Basis Set: AUG-CC-PVTZ
    Blend: AUG-CC-PVTZ
  Basis Set: (AUG-CC-PVTZ AUX)
    Blend: AUG-CC-PVTZ-JKFIT
	 Reference Energy          =    -553.6358229549750831 [Eh]
	 Singles Energy            =      -0.0000000000000000 [Eh]
	 Same-Spin Energy          =      -0.6038312342876080 [Eh]
	 Opposite-Spin Energy      =      -1.9031024181417648 [Eh]
	 Correlation Energy        =      -2.5069336524293728 [Eh]
	 Total Energy              =    -556.1427566074044080 [Eh]

	 ================> DF-SCS-MP2 Energies <==================
	-----------------------------------------------------------
	 SCS Same-Spin Scale       =       0.3333333333333333 [-]
	 SCS Opposite-Spin Scale   =       1.2000000000000000 [-]
	 SCS Same-Spin Energy      =      -0.2012770780958693 [Eh]
	 SCS Opposite-Spin Energy  =      -2.2837229017701177 [Eh]
	 SCS Correlation Energy    =      -2.4849999798659872 [Eh]
	 SCS Total Energy          =    -556.1208229348410441 [Eh]
	-----------------------------------------------------------

  Dipole Moment: [D]
     X:    -3.1216      Y:     0.5613      Z:     0.2718     Total:     3.1833

*** Psi4 exiting successfully. Buy a developer a beer!
