                               Psi4 1.4a2.dev612

  ==> Input File <==

--------------------------------------------------------------------------
#psi4
#
memory 32 gb

molecule  {
0 1
  O        3.0945450    -0.5978990    -0.2227500
  N        0.8717507    -0.9583173     0.1662641
  C        0.1786250     1.7001670     0.9719610
  C        1.1438980     2.1917080    -0.1170310
  C       -0.8608580     0.7595260     0.4300750
  C        1.5465590     1.0555900    -1.0683300
  C       -0.4811190    -0.5451200     0.0537530
  C        1.9260440    -0.2179400    -0.3394640
  C       -2.2011530     1.1304640     0.2820740
  C       -1.4377800    -1.4595290    -0.4043930
  C        1.1800400    -2.2400020     0.7973640
  C       -3.1574580     0.2247240    -0.1803460
  C       -2.7731680    -1.0742070    -0.5192260
  H       -0.3080960     2.5514800     1.4609130
  H        0.7541300     1.1728590     1.7431030
  H        0.6757450     2.9910460    -0.7037420
  H        2.0370980     2.6179610     0.3539850
  H        2.4176540     1.3419220    -1.6627910
  H        0.7204100     0.8435550    -1.7555650
  H       -2.5026250     2.1373940     0.5668430
  H       -1.1292290    -2.4616270    -0.6921390
  H        1.2028300    -3.0439780     0.0536200
  H        0.4229280    -2.4619330     1.5509630
  H        2.1652810    -2.1715440     1.2577890
  H       -4.1964680     0.5304710    -0.2745970
  H       -3.5107020    -1.7878430    -0.8784520
units angstrom
no_reorient  #important for SAPT in psi4, default
symmetry c1  #important for SAPT in psi4, default
}

set PROPERTIES_ORIGIN ["COM"]
properties('MP2/aug-cc-pvtz', properties = ['dipole'])
--------------------------------------------------------------------------

    Molecular point group: c1
  Charge       = 0
  Multiplicity = 1
  Basis Set: AUG-CC-PVTZ
    Blend: AUG-CC-PVTZ
  Basis Set: (AUG-CC-PVTZ AUX)
    Blend: AUG-CC-PVTZ-JKFIT

    Orbital Energies [Eh]
    ---------------------

    Doubly Occupied:

       1A    -20.517862     2A    -15.593859     3A    -11.349395
       4A    -11.285708     5A    -11.257525     6A    -11.250460
       7A    -11.246047     8A    -11.245380     9A    -11.244559
      10A    -11.242375    11A    -11.240139    12A    -11.238673
      13A    -11.236441    14A     -1.373585    15A     -1.261348
      16A     -1.153712    17A     -1.099412    18A     -1.032224
      19A     -1.019085    20A     -0.977033    21A     -0.925315
      22A     -0.868554    23A     -0.837475    24A     -0.799497
      25A     -0.754253    26A     -0.690376    27A     -0.683996
      28A     -0.668804    29A     -0.653992    30A     -0.623569
      31A     -0.617779    32A     -0.610216    33A     -0.598635
      34A     -0.578071    35A     -0.572018    36A     -0.555056
      37A     -0.535555    38A     -0.523614    39A     -0.517812
      40A     -0.508821    41A     -0.496500    42A     -0.484983
      43A     -0.473834    44A     -0.420538    45A     -0.404411
      46A     -0.342281    47A     -0.318693

  @DF-RHF Final Energy:  -553.63676424201071

   => Energetics <=

    Nuclear Repulsion Energy =            797.1672623419652837
    One-Electron Energy =               -2333.7491140797528715
    Two-Electron Energy =                 982.9450874957767610
    Total Energy =                       -553.6367642420107131
  Basis Set: (AUG-CC-PVTZ AUX)
    Blend: AUG-CC-PVTZ-RI
    Molecular point group: c1

    Geometry (in Angstrom), charge = 0, multiplicity = 1:

       Center              X                  Y                   Z               Mass
    ------------   -----------------  -----------------  -----------------  -----------------
         O            3.087652360718    -0.584188447572    -0.215157162073    15.994914619570
         N            0.864858060718    -0.944606747572     0.173856937927    14.003074004430
         C            0.171732360718     1.713877552428     0.979553837927    12.000000000000
         C            1.137005360718     2.205418552428    -0.109438162073    12.000000000000
         C           -0.867750639282     0.773236552428     0.437667837927    12.000000000000
         C            1.539666360718     1.069300552428    -1.060737162073    12.000000000000
         C           -0.488011639282    -0.531409447572     0.061345837927    12.000000000000
         C            1.919151360718    -0.204229447572    -0.331871162073    12.000000000000
         C           -2.208045639282     1.144174552428     0.289666837927    12.000000000000
         C           -1.444672639282    -1.445818447572    -0.396800162073    12.000000000000
         C            1.173147360718    -2.226291447572     0.804956837927    12.000000000000
         C           -3.164350639282     0.238434552428    -0.172753162073    12.000000000000
         C           -2.780060639282    -1.060496447572    -0.511633162073    12.000000000000
         H           -0.314988639282     2.565190552428     1.468505837927     1.007825032230
         H            0.747237360718     1.186569552428     1.750695837927     1.007825032230
         H            0.668852360718     3.004756552428    -0.696149162073     1.007825032230
         H            2.030205360718     2.631671552428     0.361577837927     1.007825032230
         H            2.410761360718     1.355632552428    -1.655198162073     1.007825032230
         H            0.713517360718     0.857265552428    -1.747972162073     1.007825032230
         H           -2.509517639282     2.151104552428     0.574435837927     1.007825032230
         H           -1.136121639282    -2.447916447572    -0.684546162073     1.007825032230
         H            1.195937360718    -3.030267447572     0.061212837927     1.007825032230
         H            0.416035360718    -2.448222447572     1.558555837927     1.007825032230
         H            2.158388360718    -2.157833447572     1.265381837927     1.007825032230
         H           -4.203360639282     0.544181552428    -0.267004162073     1.007825032230
         H           -3.517594639282    -1.774132447572    -0.870859162073     1.007825032230

  Basis Set: AUG-CC-PVTZ
    Blend: AUG-CC-PVTZ
  Basis Set: (AUG-CC-PVTZ AUX)
    Blend: AUG-CC-PVTZ-JKFIT
	 Reference Energy          =    -553.6367642420107131 [Eh]
	 Singles Energy            =      -0.0000000000000000 [Eh]
	 Same-Spin Energy          =      -0.6035485449835272 [Eh]
	 Opposite-Spin Energy      =      -1.9027277386664767 [Eh]
	 Correlation Energy        =      -2.5062762836500037 [Eh]
	 Total Energy              =    -556.1430405256606946 [Eh]

	 ================> DF-SCS-MP2 Energies <==================
	-----------------------------------------------------------
	 SCS Same-Spin Scale       =       0.3333333333333333 [-]
	 SCS Opposite-Spin Scale   =       1.2000000000000000 [-]
	 SCS Same-Spin Energy      =      -0.2011828483278424 [Eh]
	 SCS Opposite-Spin Energy  =      -2.2832732863997718 [Eh]
	 SCS Correlation Energy    =      -2.4844561347276142 [Eh]
	 SCS Total Energy          =    -556.1212203767382789 [Eh]
	-----------------------------------------------------------

  Dipole Moment: [D]
     X:    -3.2433      Y:     0.5900      Z:     0.2957     Total:     3.3098

*** Psi4 exiting successfully. Buy a developer a beer!
