                               Psi4 1.3.2 release

  ==> Input File <==

--------------------------------------------------------------------------
#psi4
#
memory 32 gb

molecule  {
0 1
  O        3.0945450    -0.5978990    -0.2227500
  N        0.8732720    -0.9469790     0.1890630
  C        0.1786250     1.7001670     0.9719610
  C        1.1438980     2.1917080    -0.1170310
  C       -0.8608580     0.7595260     0.4300750
  C        1.5465590     1.0555900    -1.0683300
  C       -0.5071525    -0.6308276     0.0960533
  C        1.9260440    -0.2179400    -0.3394640
  C       -2.2011530     1.1304640     0.2820740
  C       -1.4377800    -1.4595290    -0.4043930
  C        1.1800400    -2.2400020     0.7973640
  C       -3.1574580     0.2247240    -0.1803460
  C       -2.7731680    -1.0742070    -0.5192260
  H       -0.3080960     2.5514800     1.4609130
  H        0.7541300     1.1728590     1.7431030
  H        0.6757450     2.9910460    -0.7037420
  H        2.0370980     2.6179610     0.3539850
  H        2.4176540     1.3419220    -1.6627910
  H        0.7204100     0.8435550    -1.7555650
  H       -2.5026250     2.1373940     0.5668430
  H       -1.1292290    -2.4616270    -0.6921390
  H        1.2028300    -3.0439780     0.0536200
  H        0.4229280    -2.4619330     1.5509630
  H        2.1652810    -2.1715440     1.2577890
  H       -4.1964680     0.5304710    -0.2745970
  H       -3.5107020    -1.7878430    -0.8784520
units angstrom
no_reorient  #important for SAPT in psi4, default
symmetry c1  #important for SAPT in psi4, default
}

set PROPERTIES_ORIGIN ["COM"]
properties('MP2/aug-cc-pvtz', properties = ['dipole'])
--------------------------------------------------------------------------

    Molecular point group: c1
  Charge       = 0
  Multiplicity = 1
  Basis Set: AUG-CC-PVTZ
    Blend: AUG-CC-PVTZ
  Basis Set: (AUG-CC-PVTZ AUX)
    Blend: AUG-CC-PVTZ-JKFIT

    Orbital Energies [Eh]
    ---------------------

    Doubly Occupied:

       1A    -20.519791     2A    -15.593647     3A    -11.352360
       4A    -11.285833     5A    -11.256192     6A    -11.255051
       7A    -11.245849     8A    -11.244085     9A    -11.242612
      10A    -11.240441    11A    -11.239292    12A    -11.239216
      13A    -11.237064    14A     -1.374693    15A     -1.261198
      16A     -1.152705    17A     -1.100316    18A     -1.032280
      19A     -1.023059    20A     -0.974209    21A     -0.925724
      22A     -0.870047    23A     -0.834312    24A     -0.798019
      25A     -0.758860    26A     -0.690257    27A     -0.682619
      28A     -0.670612    29A     -0.651382    30A     -0.625327
      31A     -0.618146    32A     -0.611326    33A     -0.597944
      34A     -0.578160    35A     -0.569275    36A     -0.554830
      37A     -0.536322    38A     -0.523463    39A     -0.520750
      40A     -0.501457    41A     -0.497293    42A     -0.484154
      43A     -0.474207    44A     -0.421703    45A     -0.405843
      46A     -0.344984    47A     -0.316317

  @DF-RHF Final Energy:  -553.62846307504060

   => Energetics <=

    Nuclear Repulsion Energy =            796.5744260982754668
    One-Electron Energy =               -2332.5393287760507519
    Two-Electron Energy =                 982.3364396027345720
    Total Energy =                       -553.6284630750405995
  Basis Set: (AUG-CC-PVTZ AUX)
    Blend: AUG-CC-PVTZ-RI
    Molecular point group: c1

    Geometry (in Angstrom), charge = 0, multiplicity = 1:

       Center              X                  Y                   Z               Mass
    ------------   -----------------  -----------------  -----------------  -----------------
         O            3.089314837011    -0.579221448336    -0.219879375861    15.994914619570
         N            0.868041837011    -0.928301448336     0.191933624139    14.003074004430
         C            0.173394837011     1.718844551664     0.974831624139    12.000000000000
         C            1.138667837011     2.210385551664    -0.114160375861    12.000000000000
         C           -0.866088162989     0.778203551664     0.432945624139    12.000000000000
         C            1.541328837011     1.074267551664    -1.065459375861    12.000000000000
         C           -0.512382662989    -0.612150048336     0.098923924139    12.000000000000
         C            1.920813837011    -0.199262448336    -0.336593375861    12.000000000000
         C           -2.206383162989     1.149141551664     0.284944624139    12.000000000000
         C           -1.443010162989    -1.440851448336    -0.401522375861    12.000000000000
         C            1.174809837011    -2.221324448336     0.800234624139    12.000000000000
         C           -3.162688162989     0.243401551664    -0.177475375861    12.000000000000
         C           -2.778398162989    -1.055529448336    -0.516355375861    12.000000000000
         H           -0.313326162989     2.570157551664     1.463783624139     1.007825032230
         H            0.748899837011     1.191536551664     1.745973624139     1.007825032230
         H            0.670514837011     3.009723551664    -0.700871375861     1.007825032230
         H            2.031867837011     2.636638551664     0.356855624139     1.007825032230
         H            2.412423837011     1.360599551664    -1.659920375861     1.007825032230
         H            0.715179837011     0.862232551664    -1.752694375861     1.007825032230
         H           -2.507855162989     2.156071551664     0.569713624139     1.007825032230
         H           -1.134459162989    -2.442949448336    -0.689268375861     1.007825032230
         H            1.197599837011    -3.025300448336     0.056490624139     1.007825032230
         H            0.417697837011    -2.443255448336     1.553833624139     1.007825032230
         H            2.160050837011    -2.152866448336     1.260659624139     1.007825032230
         H           -4.201698162989     0.549148551664    -0.271726375861     1.007825032230
         H           -3.515932162989    -1.769165448336    -0.875581375861     1.007825032230

  Basis Set: AUG-CC-PVTZ
    Blend: AUG-CC-PVTZ
  Basis Set: (AUG-CC-PVTZ AUX)
    Blend: AUG-CC-PVTZ-JKFIT
	 Reference Energy          =    -553.6284630750405995 [Eh]
	 Singles Energy            =      -0.0000000000000000 [Eh]
	 Same-Spin Energy          =      -0.6034289945008339 [Eh]
	 Opposite-Spin Energy      =      -1.9032428559009615 [Eh]
	 Correlation Energy        =      -2.5066718504017955 [Eh]
	 Total Energy              =    -556.1351349254423440 [Eh]

	 ================> DF-SCS-MP2 Energies <==================
	-----------------------------------------------------------
	 SCS Same-Spin Scale       =       0.3333333333333333 [-]
	 SCS Opposite-Spin Scale   =       1.2000000000000000 [-]
	 SCS Same-Spin Energy      =      -0.2011429981669446 [Eh]
	 SCS Opposite-Spin Energy  =      -2.2838914270811537 [Eh]
	 SCS Correlation Energy    =      -2.4850344252480983 [Eh]
	 SCS Total Energy          =    -556.1134975002886449 [Eh]
	-----------------------------------------------------------

  Dipole Moment: [D]
     X:    -3.2267      Y:     0.6076      Z:     0.2393     Total:     3.2921

*** Psi4 exiting successfully. Buy a developer a beer!
