                               Psi4 1.4a3.dev225

  ==> Input File <==

--------------------------------------------------------------------------
#psi4
#
memory 32 gb

molecule  {
0 1
  O        3.0945450    -0.5978990    -0.2227500
  N        0.8732720    -0.9469790     0.1890630
  C        0.1786250     1.7001670     0.9719610
  C        1.1438980     2.1917080    -0.1170310
  C       -0.8608580     0.7595260     0.4300750
  C        1.5465590     1.0555900    -1.0683300
  C       -0.4811190    -0.5451200     0.0537530
  C        1.9412428    -0.2074149    -0.3470943
  C       -2.2011530     1.1304640     0.2820740
  C       -1.4377800    -1.4595290    -0.4043930
  C        1.1800400    -2.2400020     0.7973640
  C       -3.1574580     0.2247240    -0.1803460
  C       -2.7731680    -1.0742070    -0.5192260
  H       -0.3080960     2.5514800     1.4609130
  H        0.7541300     1.1728590     1.7431030
  H        0.6757450     2.9910460    -0.7037420
  H        2.0370980     2.6179610     0.3539850
  H        2.4176540     1.3419220    -1.6627910
  H        0.7204100     0.8435550    -1.7555650
  H       -2.5026250     2.1373940     0.5668430
  H       -1.1292290    -2.4616270    -0.6921390
  H        1.2028300    -3.0439780     0.0536200
  H        0.4229280    -2.4619330     1.5509630
  H        2.1652810    -2.1715440     1.2577890
  H       -4.1964680     0.5304710    -0.2745970
  H       -3.5107020    -1.7878430    -0.8784520
units angstrom
no_reorient  #important for SAPT in psi4, default
symmetry c1  #important for SAPT in psi4, default
}

set PROPERTIES_ORIGIN ["COM"]
properties('MP2/aug-cc-pvtz', properties = ['dipole'])
--------------------------------------------------------------------------

    Molecular point group: c1
  Charge       = 0
  Multiplicity = 1
  Basis Set: AUG-CC-PVTZ
    Blend: AUG-CC-PVTZ
  Basis Set: (AUG-CC-PVTZ AUX)
    Blend: AUG-CC-PVTZ-JKFIT

    Orbital Energies [Eh]
    ---------------------

    Doubly Occupied:

       1A    -20.522492     2A    -15.590552     3A    -11.351283
       4A    -11.284165     5A    -11.255993     6A    -11.248774
       7A    -11.245099     8A    -11.244315     9A    -11.243405
      10A    -11.241129    11A    -11.240867    12A    -11.238020
      13A    -11.237203    14A     -1.380576    15A     -1.257833
      16A     -1.151728    17A     -1.099751    18A     -1.032700
      19A     -1.017163    20A     -0.975782    21A     -0.923014
      22A     -0.867928    23A     -0.835470    24A     -0.798244
      25A     -0.753048    26A     -0.689834    27A     -0.684712
      28A     -0.668983    29A     -0.653123    30A     -0.622701
      31A     -0.618520    32A     -0.610410    33A     -0.596701
      34A     -0.578212    35A     -0.574252    36A     -0.553527
      37A     -0.536752    38A     -0.523841    39A     -0.517312
      40A     -0.507740    41A     -0.496773    42A     -0.484926
      43A     -0.474940    44A     -0.423426    45A     -0.404381
      46A     -0.341355    47A     -0.316742

  @DF-RHF Final Energy:  -553.63653024532346

   => Energetics <=

    Nuclear Repulsion Energy =            797.0196058905124801
    One-Electron Energy =               -2333.4808825918807997
    Two-Electron Energy =                 982.8247464560447497
    Total Energy =                       -553.6365302453234563
  Basis Set: (AUG-CC-PVTZ AUX)
    Blend: AUG-CC-PVTZ-RI
    Molecular point group: c1

    Geometry (in Angstrom), charge = 0, multiplicity = 1:

       Center              X                  Y                   Z               Mass
    ------------   -----------------  -----------------  -----------------  -----------------
         O            3.086489089392    -0.585816504223    -0.216457513048    15.994914619570
         N            0.865216089392    -0.934896504223     0.195355486952    14.003074004430
         C            0.170569089392     1.712249495777     0.978253486952    12.000000000000
         C            1.135842089392     2.203790495777    -0.110738513048    12.000000000000
         C           -0.868913910608     0.771608495777     0.436367486952    12.000000000000
         C            1.538503089392     1.067672495777    -1.062037513048    12.000000000000
         C           -0.489174910608    -0.533037504223     0.060045486952    12.000000000000
         C            1.933186889392    -0.195332404223    -0.340801813048    12.000000000000
         C           -2.209208910608     1.142546495777     0.288366486952    12.000000000000
         C           -1.445835910608    -1.447446504223    -0.398100513048    12.000000000000
         C            1.171984089392    -2.227919504223     0.803656486952    12.000000000000
         C           -3.165513910608     0.236806495777    -0.174053513048    12.000000000000
         C           -2.781223910608    -1.062124504223    -0.512933513048    12.000000000000
         H           -0.316151910608     2.563562495777     1.467205486952     1.007825032230
         H            0.746074089392     1.184941495777     1.749395486952     1.007825032230
         H            0.667689089392     3.003128495777    -0.697449513048     1.007825032230
         H            2.029042089392     2.630043495777     0.360277486952     1.007825032230
         H            2.409598089392     1.354004495777    -1.656498513048     1.007825032230
         H            0.712354089392     0.855637495777    -1.749272513048     1.007825032230
         H           -2.510680910608     2.149476495777     0.573135486952     1.007825032230
         H           -1.137284910608    -2.449544504223    -0.685846513048     1.007825032230
         H            1.194774089392    -3.031895504223     0.059912486952     1.007825032230
         H            0.414872089392    -2.449850504223     1.557255486952     1.007825032230
         H            2.157225089392    -2.159461504223     1.264081486952     1.007825032230
         H           -4.204523910608     0.542553495777    -0.268304513048     1.007825032230
         H           -3.518757910608    -1.775760504223    -0.872159513048     1.007825032230

  Basis Set: AUG-CC-PVTZ
    Blend: AUG-CC-PVTZ
  Basis Set: (AUG-CC-PVTZ AUX)
    Blend: AUG-CC-PVTZ-JKFIT
	 Reference Energy          =    -553.6365302453234563 [Eh]
	 Singles Energy            =      -0.0000000000000000 [Eh]
	 Same-Spin Energy          =      -0.6035186691994866 [Eh]
	 Opposite-Spin Energy      =      -1.9026029320189046 [Eh]
	 Correlation Energy        =      -2.5061216012183913 [Eh]
	 Total Energy              =    -556.1426518465418667 [Eh]

	 ================> DF-SCS-MP2 Energies <==================
	-----------------------------------------------------------
	 SCS Same-Spin Scale       =       0.3333333333333333 [-]
	 SCS Opposite-Spin Scale   =       1.2000000000000000 [-]
	 SCS Same-Spin Energy      =      -0.2011728897331622 [Eh]
	 SCS Opposite-Spin Energy  =      -2.2831235184226855 [Eh]
	 SCS Correlation Energy    =      -2.4842964081558478 [Eh]
	 SCS Total Energy          =    -556.1208266534792983 [Eh]
	-----------------------------------------------------------

  Dipole Moment: [D]
     X:    -3.0401      Y:     0.6435      Z:     0.2172     Total:     3.1150

*** Psi4 exiting successfully. Buy a developer a beer!
