                               Psi4 1.4a3.dev225

  ==> Input File <==

--------------------------------------------------------------------------
#psi4
#
memory 32 gb

molecule  {
0 1
  O        3.0945450    -0.5978990    -0.2227500
  N        0.8732720    -0.9469790     0.1890630
  C        0.1786250     1.7001670     0.9719610
  C        1.1438980     2.1917080    -0.1170310
  C       -0.8608580     0.7595260     0.4300750
  C        1.5465590     1.0555900    -1.0683300
  C       -0.4811190    -0.5451200     0.0537530
  C        1.9733803    -0.2333322    -0.3347359
  C       -2.2011530     1.1304640     0.2820740
  C       -1.4377800    -1.4595290    -0.4043930
  C        1.1800400    -2.2400020     0.7973640
  C       -3.1574580     0.2247240    -0.1803460
  C       -2.7731680    -1.0742070    -0.5192260
  H       -0.3080960     2.5514800     1.4609130
  H        0.7541300     1.1728590     1.7431030
  H        0.6757450     2.9910460    -0.7037420
  H        2.0370980     2.6179610     0.3539850
  H        2.4176540     1.3419220    -1.6627910
  H        0.7204100     0.8435550    -1.7555650
  H       -2.5026250     2.1373940     0.5668430
  H       -1.1292290    -2.4616270    -0.6921390
  H        1.2028300    -3.0439780     0.0536200
  H        0.4229280    -2.4619330     1.5509630
  H        2.1652810    -2.1715440     1.2577890
  H       -4.1964680     0.5304710    -0.2745970
  H       -3.5107020    -1.7878430    -0.8784520
units angstrom
no_reorient  #important for SAPT in psi4, default
symmetry c1  #important for SAPT in psi4, default
}

set PROPERTIES_ORIGIN ["COM"]
properties('MP2/aug-cc-pvtz', properties = ['dipole'])
--------------------------------------------------------------------------

    Molecular point group: c1
  Charge       = 0
  Multiplicity = 1
  Basis Set: AUG-CC-PVTZ
    Blend: AUG-CC-PVTZ
  Basis Set: (AUG-CC-PVTZ AUX)
    Blend: AUG-CC-PVTZ-JKFIT

    Orbital Energies [Eh]
    ---------------------

    Doubly Occupied:

       1A    -20.529043     2A    -15.586737     3A    -11.349211
       4A    -11.283682     5A    -11.254644     6A    -11.247427
       7A    -11.244078     8A    -11.243159     9A    -11.242369
      10A    -11.240025    11A    -11.238627    12A    -11.236506
      13A    -11.235395    14A     -1.407255    15A     -1.258331
      16A     -1.150735    17A     -1.095967    18A     -1.028674
      19A     -1.016383    20A     -0.971448    21A     -0.919926
      22A     -0.865020    23A     -0.834383    24A     -0.796263
      25A     -0.752242    26A     -0.689582    27A     -0.683809
      28A     -0.670355    29A     -0.652806    30A     -0.623900
      31A     -0.621285    32A     -0.611002    33A     -0.595740
      34A     -0.580031    35A     -0.573367    36A     -0.553662
      37A     -0.541329    38A     -0.524017    39A     -0.518181
      40A     -0.508376    41A     -0.497602    42A     -0.482484
      43A     -0.477101    44A     -0.421166    45A     -0.405174
      46A     -0.340248    47A     -0.315454

  @DF-RHF Final Energy:  -553.63624794293366

   => Energetics <=

    Nuclear Repulsion Energy =            796.9068352651837586
    One-Electron Energy =               -2333.2577659814637627
    Two-Electron Energy =                 982.7146827733462260
    Total Energy =                       -553.6362479429336645
  Basis Set: (AUG-CC-PVTZ AUX)
    Blend: AUG-CC-PVTZ-RI
    Molecular point group: c1

    Geometry (in Angstrom), charge = 0, multiplicity = 1:

       Center              X                  Y                   Z               Mass
    ------------   -----------------  -----------------  -----------------  -----------------
         O            3.084286630056    -0.584040329992    -0.217304463603    15.994914619570
         N            0.863013630056    -0.933120329992     0.194508536397    14.003074004430
         C            0.168366630056     1.714025670008     0.977406536397    12.000000000000
         C            1.133639630056     2.205566670008    -0.111585463603    12.000000000000
         C           -0.871116369944     0.773384670008     0.435520536397    12.000000000000
         C            1.536300630056     1.069448670008    -1.062884463603    12.000000000000
         C           -0.491377369944    -0.531261329992     0.059198536397    12.000000000000
         C            1.963121930056    -0.219473529992    -0.329290363603    12.000000000000
         C           -2.211411369944     1.144322670008     0.287519536397    12.000000000000
         C           -1.448038369944    -1.445670329992    -0.398947463603    12.000000000000
         C            1.169781630056    -2.226143329992     0.802809536397    12.000000000000
         C           -3.167716369944     0.238582670008    -0.174900463603    12.000000000000
         C           -2.783426369944    -1.060348329992    -0.513780463603    12.000000000000
         H           -0.318354369944     2.565338670008     1.466358536397     1.007825032230
         H            0.743871630056     1.186717670008     1.748548536397     1.007825032230
         H            0.665486630056     3.004904670008    -0.698296463603     1.007825032230
         H            2.026839630056     2.631819670008     0.359430536397     1.007825032230
         H            2.407395630056     1.355780670008    -1.657345463603     1.007825032230
         H            0.710151630056     0.857413670008    -1.750119463603     1.007825032230
         H           -2.512883369944     2.151252670008     0.572288536397     1.007825032230
         H           -1.139487369944    -2.447768329992    -0.686693463603     1.007825032230
         H            1.192571630056    -3.030119329992     0.059065536397     1.007825032230
         H            0.412669630056    -2.448074329992     1.556408536397     1.007825032230
         H            2.155022630056    -2.157685329992     1.263234536397     1.007825032230
         H           -4.206726369944     0.544329670008    -0.269151463603     1.007825032230
         H           -3.520960369944    -1.773984329992    -0.873006463603     1.007825032230

  Basis Set: AUG-CC-PVTZ
    Blend: AUG-CC-PVTZ
  Basis Set: (AUG-CC-PVTZ AUX)
    Blend: AUG-CC-PVTZ-JKFIT
	 Reference Energy          =    -553.6362479429336645 [Eh]
	 Singles Energy            =      -0.0000000000000000 [Eh]
	 Same-Spin Energy          =      -0.6025091948812830 [Eh]
	 Opposite-Spin Energy      =      -1.9007313114107833 [Eh]
	 Correlation Energy        =      -2.5032405062920664 [Eh]
	 Total Energy              =    -556.1394884492257233 [Eh]

	 ================> DF-SCS-MP2 Energies <==================
	-----------------------------------------------------------
	 SCS Same-Spin Scale       =       0.3333333333333333 [-]
	 SCS Opposite-Spin Scale   =       1.2000000000000000 [-]
	 SCS Same-Spin Energy      =      -0.2008363982937610 [Eh]
	 SCS Opposite-Spin Energy  =      -2.2808775736929401 [Eh]
	 SCS Correlation Energy    =      -2.4817139719867010 [Eh]
	 SCS Total Energy          =    -556.1179619149203290 [Eh]
	-----------------------------------------------------------

  Dipole Moment: [D]
     X:    -2.7664      Y:     0.5537      Z:     0.2272     Total:     2.8304

*** Psi4 exiting successfully. Buy a developer a beer!
