                               Psi4 1.3.2 release

  ==> Input File <==

--------------------------------------------------------------------------
#psi4
#
memory 32 gb

molecule  {
0 1
  O        3.0945450    -0.5978990    -0.2227500
  N        0.8732720    -0.9469790     0.1890630
  C        0.1786250     1.7001670     0.9719610
  C        1.1438980     2.1917080    -0.1170310
  C       -0.8608580     0.7595260     0.4300750
  C        1.5465590     1.0555900    -1.0683300
  C       -0.5176540    -0.6742854     0.1173863
  C        1.9260440    -0.2179400    -0.3394640
  C       -2.2011530     1.1304640     0.2820740
  C       -1.4377800    -1.4595290    -0.4043930
  C        1.1800400    -2.2400020     0.7973640
  C       -3.1574580     0.2247240    -0.1803460
  C       -2.7731680    -1.0742070    -0.5192260
  H       -0.3080960     2.5514800     1.4609130
  H        0.7541300     1.1728590     1.7431030
  H        0.6757450     2.9910460    -0.7037420
  H        2.0370980     2.6179610     0.3539850
  H        2.4176540     1.3419220    -1.6627910
  H        0.7204100     0.8435550    -1.7555650
  H       -2.5026250     2.1373940     0.5668430
  H       -1.1292290    -2.4616270    -0.6921390
  H        1.2028300    -3.0439780     0.0536200
  H        0.4229280    -2.4619330     1.5509630
  H        2.1652810    -2.1715440     1.2577890
  H       -4.1964680     0.5304710    -0.2745970
  H       -3.5107020    -1.7878430    -0.8784520
units angstrom
no_reorient  #important for SAPT in psi4, default
symmetry c1  #important for SAPT in psi4, default
}

set PROPERTIES_ORIGIN ["COM"]
properties('MP2/aug-cc-pvtz', properties = ['dipole'])
--------------------------------------------------------------------------

    Molecular point group: c1
  Charge       = 0
  Multiplicity = 1
  Basis Set: AUG-CC-PVTZ
    Blend: AUG-CC-PVTZ
  Basis Set: (AUG-CC-PVTZ AUX)
    Blend: AUG-CC-PVTZ-JKFIT

    Orbital Energies [Eh]
    ---------------------

    Doubly Occupied:

       1A    -20.520435     2A    -15.593516     3A    -11.353626
       4A    -11.285965     5A    -11.259020     6A    -11.253973
       7A    -11.245736     8A    -11.243852     9A    -11.242622
      10A    -11.240584    11A    -11.239653    12A    -11.237283
      13A    -11.236608    14A     -1.375102    15A     -1.261227
      16A     -1.152507    17A     -1.100876    18A     -1.034535
      19A     -1.023091    20A     -0.972731    21A     -0.926012
      22A     -0.870743    23A     -0.833064    24A     -0.797509
      25A     -0.760348    26A     -0.690564    27A     -0.681560
      28A     -0.671295    29A     -0.650330    30A     -0.626338
      31A     -0.618449    32A     -0.611076    33A     -0.597838
      34A     -0.578469    35A     -0.567529    36A     -0.554991
      37A     -0.536630    38A     -0.524087    39A     -0.521319
      40A     -0.499481    41A     -0.496483    42A     -0.483408
      43A     -0.472560    44A     -0.422257    45A     -0.406131
      46A     -0.346746    47A     -0.314813

  @DF-RHF Final Energy:  -553.61805343084200

   => Energetics <=

    Nuclear Repulsion Energy =            796.2373631434614936
    One-Electron Energy =               -2331.8448885017637622
    Two-Electron Energy =                 981.9894719274601584
    Total Energy =                       -553.6180534308419965
  Basis Set: (AUG-CC-PVTZ AUX)
    Blend: AUG-CC-PVTZ-RI
    Molecular point group: c1

    Geometry (in Angstrom), charge = 0, multiplicity = 1:

       Center              X                  Y                   Z               Mass
    ------------   -----------------  -----------------  -----------------  -----------------
         O            3.090034529791    -0.576243181907    -0.221341377106    15.994914619570
         N            0.868761529791    -0.925323181907     0.190471622894    14.003074004430
         C            0.174114529791     1.721822818093     0.973369622894    12.000000000000
         C            1.139387529791     2.213363818093    -0.115622377106    12.000000000000
         C           -0.865368470209     0.781181818093     0.431483622894    12.000000000000
         C            1.542048529791     1.077245818093    -1.066921377106    12.000000000000
         C           -0.522164470209    -0.652629581907     0.118794922894    12.000000000000
         C            1.921533529791    -0.196284181907    -0.338055377106    12.000000000000
         C           -2.205663470209     1.152119818093     0.283482622894    12.000000000000
         C           -1.442290470209    -1.437873181907    -0.402984377106    12.000000000000
         C            1.175529529791    -2.218346181907     0.798772622894    12.000000000000
         C           -3.161968470209     0.246379818093    -0.178937377106    12.000000000000
         C           -2.777678470209    -1.052551181907    -0.517817377106    12.000000000000
         H           -0.312606470209     2.573135818093     1.462321622894     1.007825032230
         H            0.749619529791     1.194514818093     1.744511622894     1.007825032230
         H            0.671234529791     3.012701818093    -0.702333377106     1.007825032230
         H            2.032587529791     2.639616818093     0.355393622894     1.007825032230
         H            2.413143529791     1.363577818093    -1.661382377106     1.007825032230
         H            0.715899529791     0.865210818093    -1.754156377106     1.007825032230
         H           -2.507135470209     2.159049818093     0.568251622894     1.007825032230
         H           -1.133739470209    -2.439971181907    -0.690730377106     1.007825032230
         H            1.198319529791    -3.022322181907     0.055028622894     1.007825032230
         H            0.418417529791    -2.440277181907     1.552371622894     1.007825032230
         H            2.160770529791    -2.149888181907     1.259197622894     1.007825032230
         H           -4.200978470209     0.552126818093    -0.273188377106     1.007825032230
         H           -3.515212470209    -1.766187181907    -0.877043377106     1.007825032230

  Basis Set: AUG-CC-PVTZ
    Blend: AUG-CC-PVTZ
  Basis Set: (AUG-CC-PVTZ AUX)
    Blend: AUG-CC-PVTZ-JKFIT
	 Reference Energy          =    -553.6180534308419965 [Eh]
	 Singles Energy            =      -0.0000000000000000 [Eh]
	 Same-Spin Energy          =      -0.6033977335467138 [Eh]
	 Opposite-Spin Energy      =      -1.9039313440878947 [Eh]
	 Correlation Energy        =      -2.5073290776346084 [Eh]
	 Total Energy              =    -556.1253825084766049 [Eh]

	 ================> DF-SCS-MP2 Energies <==================
	-----------------------------------------------------------
	 SCS Same-Spin Scale       =       0.3333333333333333 [-]
	 SCS Opposite-Spin Scale   =       1.2000000000000000 [-]
	 SCS Same-Spin Energy      =      -0.2011325778489046 [Eh]
	 SCS Opposite-Spin Energy  =      -2.2847176129054736 [Eh]
	 SCS Correlation Energy    =      -2.4858501907543782 [Eh]
	 SCS Total Energy          =    -556.1039036215963733 [Eh]
	-----------------------------------------------------------

  Dipole Moment: [D]
     X:    -3.2328      Y:     0.6174      Z:     0.2241     Total:     3.2989

*** Psi4 exiting successfully. Buy a developer a beer!
