                               Psi4 1.3.2 release

  ==> Input File <==

--------------------------------------------------------------------------
#psi4
#
memory 32 gb

molecule  {
0 1
  O        3.0945450    -0.5978990    -0.2227500
  N        0.8732720    -0.9469790     0.1890630
  C        0.1786250     1.7001670     0.9719610
  C        1.1438980     2.1917080    -0.1170310
  C       -0.8608580     0.7595260     0.4300750
  C        1.5465590     1.0555900    -1.0683300
  C       -0.3856867    -0.5734356     0.0632871
  C        1.9260440    -0.2179400    -0.3394640
  C       -2.2011530     1.1304640     0.2820740
  C       -1.4377800    -1.4595290    -0.4043930
  C        1.1800400    -2.2400020     0.7973640
  C       -3.1574580     0.2247240    -0.1803460
  C       -2.7731680    -1.0742070    -0.5192260
  H       -0.3080960     2.5514800     1.4609130
  H        0.7541300     1.1728590     1.7431030
  H        0.6757450     2.9910460    -0.7037420
  H        2.0370980     2.6179610     0.3539850
  H        2.4176540     1.3419220    -1.6627910
  H        0.7204100     0.8435550    -1.7555650
  H       -2.5026250     2.1373940     0.5668430
  H       -1.1292290    -2.4616270    -0.6921390
  H        1.2028300    -3.0439780     0.0536200
  H        0.4229280    -2.4619330     1.5509630
  H        2.1652810    -2.1715440     1.2577890
  H       -4.1964680     0.5304710    -0.2745970
  H       -3.5107020    -1.7878430    -0.8784520
units angstrom
no_reorient  #important for SAPT in psi4, default
symmetry c1  #important for SAPT in psi4, default
}

set PROPERTIES_ORIGIN ["COM"]
properties('MP2/aug-cc-pvtz', properties = ['dipole'])
--------------------------------------------------------------------------

    Molecular point group: c1
  Charge       = 0
  Multiplicity = 1
  Basis Set: AUG-CC-PVTZ
    Blend: AUG-CC-PVTZ
  Basis Set: (AUG-CC-PVTZ AUX)
    Blend: AUG-CC-PVTZ-JKFIT

    Orbital Energies [Eh]
    ---------------------

    Doubly Occupied:

       1A    -20.525842     2A    -15.599828     3A    -11.356544
       4A    -11.289329     5A    -11.263151     6A    -11.250590
       7A    -11.245407     8A    -11.242736     9A    -11.242382
      10A    -11.240274    11A    -11.239127    12A    -11.238483
      13A    -11.235634    14A     -1.383880    15A     -1.289176
      16A     -1.144282    17A     -1.098367    18A     -1.028786
      19A     -1.012314    20A     -0.981998    21A     -0.926451
      22A     -0.880770    23A     -0.835439    24A     -0.794407
      25A     -0.760243    26A     -0.694774    27A     -0.685779
      28A     -0.673398    29A     -0.661249    30A     -0.622355
      31A     -0.618869    32A     -0.606392    33A     -0.598829
      34A     -0.577134    35A     -0.574733    36A     -0.559471
      37A     -0.537865    38A     -0.523384    39A     -0.521296
      40A     -0.505757    41A     -0.492689    42A     -0.485162
      43A     -0.468378    44A     -0.427991    45A     -0.409940
      46A     -0.338101    47A     -0.304254

  @DF-RHF Final Energy:  -553.62091973083716

   => Energetics <=

    Nuclear Repulsion Energy =            797.6041681946918516
    One-Electron Energy =               -2334.4636857102523209
    Two-Electron Energy =                 983.2385977847234244
    Total Energy =                       -553.6209197308371586
  Basis Set: (AUG-CC-PVTZ AUX)
    Blend: AUG-CC-PVTZ-RI
    Molecular point group: c1

    Geometry (in Angstrom), charge = 0, multiplicity = 1:

       Center              X                  Y                   Z               Mass
    ------------   -----------------  -----------------  -----------------  -----------------
         O            3.080990496746    -0.583154658642    -0.217633830218    15.994914619570
         N            0.859717496746    -0.932234658642     0.194179169782    14.003074004430
         C            0.165070496746     1.714911341358     0.977077169782    12.000000000000
         C            1.130343496746     2.206452341358    -0.111914830218    12.000000000000
         C           -0.874412503254     0.774270341358     0.435191169782    12.000000000000
         C            1.533004496746     1.070334341358    -1.063213830218    12.000000000000
         C           -0.399241203254    -0.558691258642     0.068403269782    12.000000000000
         C            1.912489496746    -0.203195658642    -0.334347830218    12.000000000000
         C           -2.214707503254     1.145208341358     0.287190169782    12.000000000000
         C           -1.451334503254    -1.444784658642    -0.399276830218    12.000000000000
         C            1.166485496746    -2.225257658642     0.802480169782    12.000000000000
         C           -3.171012503254     0.239468341358    -0.175229830218    12.000000000000
         C           -2.786722503254    -1.059462658642    -0.514109830218    12.000000000000
         H           -0.321650503254     2.566224341358     1.466029169782     1.007825032230
         H            0.740575496746     1.187603341358     1.748219169782     1.007825032230
         H            0.662190496746     3.005790341358    -0.698625830218     1.007825032230
         H            2.023543496746     2.632705341358     0.359101169782     1.007825032230
         H            2.404099496746     1.356666341358    -1.657674830218     1.007825032230
         H            0.706855496746     0.858299341358    -1.750448830218     1.007825032230
         H           -2.516179503254     2.152138341358     0.571959169782     1.007825032230
         H           -1.142783503254    -2.446882658642    -0.687022830218     1.007825032230
         H            1.189275496746    -3.029233658642     0.058736169782     1.007825032230
         H            0.409373496746    -2.447188658642     1.556079169782     1.007825032230
         H            2.151726496746    -2.156799658642     1.262905169782     1.007825032230
         H           -4.210022503254     0.545215341358    -0.269480830218     1.007825032230
         H           -3.524256503254    -1.773098658642    -0.873335830218     1.007825032230

  Basis Set: AUG-CC-PVTZ
    Blend: AUG-CC-PVTZ
  Basis Set: (AUG-CC-PVTZ AUX)
    Blend: AUG-CC-PVTZ-JKFIT
	 Reference Energy          =    -553.6209197308371586 [Eh]
	 Singles Energy            =      -0.0000000000000000 [Eh]
	 Same-Spin Energy          =      -0.6052985836238631 [Eh]
	 Opposite-Spin Energy      =      -1.9050974783084351 [Eh]
	 Correlation Energy        =      -2.5103960619322985 [Eh]
	 Total Energy              =    -556.1313157927694419 [Eh]

	 ================> DF-SCS-MP2 Energies <==================
	-----------------------------------------------------------
	 SCS Same-Spin Scale       =       0.3333333333333333 [-]
	 SCS Opposite-Spin Scale   =       1.2000000000000000 [-]
	 SCS Same-Spin Energy      =      -0.2017661945412877 [Eh]
	 SCS Opposite-Spin Energy  =      -2.2861169739701221 [Eh]
	 SCS Correlation Energy    =      -2.4878831685114098 [Eh]
	 SCS Total Energy          =    -556.1088028993485750 [Eh]
	-----------------------------------------------------------

  Dipole Moment: [D]
     X:    -2.6685      Y:     0.4672      Z:     0.2860     Total:     2.7241

*** Psi4 exiting successfully. Buy a developer a beer!
