                               Psi4 1.3.2 release

  ==> Input File <==

--------------------------------------------------------------------------
#psi4
#
memory 32 gb

molecule  {
0 1
  O        3.0945450    -0.5978990    -0.2227500
  N        0.8732720    -0.9469790     0.1890630
  C        0.1786250     1.7001670     0.9719610
  C        1.1438980     2.1917080    -0.1170310
  C       -0.8608580     0.7595260     0.4300750
  C        1.5465590     1.0555900    -1.0683300
  C       -0.4946954    -0.5853240     0.0793123
  C        1.9260440    -0.2179400    -0.3394640
  C       -2.2011530     1.1304640     0.2820740
  C       -1.4377800    -1.4595290    -0.4043930
  C        1.1800400    -2.2400020     0.7973640
  C       -3.1574580     0.2247240    -0.1803460
  C       -2.7731680    -1.0742070    -0.5192260
  H       -0.3080960     2.5514800     1.4609130
  H        0.7541300     1.1728590     1.7431030
  H        0.6757450     2.9910460    -0.7037420
  H        2.0370980     2.6179610     0.3539850
  H        2.4176540     1.3419220    -1.6627910
  H        0.7204100     0.8435550    -1.7555650
  H       -2.5026250     2.1373940     0.5668430
  H       -1.1292290    -2.4616270    -0.6921390
  H        1.2028300    -3.0439780     0.0536200
  H        0.4229280    -2.4619330     1.5509630
  H        2.1652810    -2.1715440     1.2577890
  H       -4.1964680     0.5304710    -0.2745970
  H       -3.5107020    -1.7878430    -0.8784520
units angstrom
no_reorient  #important for SAPT in psi4, default
symmetry c1  #important for SAPT in psi4, default
}

set PROPERTIES_ORIGIN ["COM"]
properties('MP2/aug-cc-pvtz', properties = ['dipole'])
--------------------------------------------------------------------------

    Molecular point group: c1
  Charge       = 0
  Multiplicity = 1
  Basis Set: AUG-CC-PVTZ
    Blend: AUG-CC-PVTZ
  Basis Set: (AUG-CC-PVTZ AUX)
    Blend: AUG-CC-PVTZ-JKFIT

    Orbital Energies [Eh]
    ---------------------

    Doubly Occupied:

       1A    -20.519065     2A    -15.593732     3A    -11.351045
       4A    -11.285759     5A    -11.256208     6A    -11.252876
       7A    -11.245961     8A    -11.244739     9A    -11.242521
      10A    -11.242308    11A    -11.240279    12A    -11.238806
      13A    -11.236817    14A     -1.374230    15A     -1.261198
      16A     -1.153099    17A     -1.099740    18A     -1.031612
      19A     -1.021383    20A     -0.975626    21A     -0.925451
      22A     -0.869173    23A     -0.836081    24A     -0.798657
      25A     -0.756665    26A     -0.690127    27A     -0.683577
      28A     -0.669837    29A     -0.652635    30A     -0.624227
      31A     -0.617871    32A     -0.611025    33A     -0.597933
      34A     -0.578022    35A     -0.571011    36A     -0.554688
      37A     -0.535998    38A     -0.523431    39A     -0.519237
      40A     -0.505143    41A     -0.496961    42A     -0.484806
      43A     -0.474485    44A     -0.421144    45A     -0.405389
      46A     -0.343231    47A     -0.317809

  @DF-RHF Final Energy:  -553.63497244807809

   => Energetics <=

    Nuclear Repulsion Energy =            796.9086032560260264
    One-Electron Energy =               -2333.2239118494367176
    Two-Electron Energy =                 982.6803361453326033
    Total Energy =                       -553.6349724480780878
  Basis Set: (AUG-CC-PVTZ AUX)
    Blend: AUG-CC-PVTZ-RI
    Molecular point group: c1

    Geometry (in Angstrom), charge = 0, multiplicity = 1:

       Center              X                  Y                   Z               Mass
    ------------   -----------------  -----------------  -----------------  -----------------
         O            3.088461122310    -0.582339918306    -0.218732075301    15.994914619570
         N            0.867188122310    -0.931419918306     0.193080924699    14.003074004430
         C            0.172541122310     1.715726081694     0.975978924699    12.000000000000
         C            1.137814122310     2.207267081694    -0.113013075301    12.000000000000
         C           -0.866941877690     0.775085081694     0.434092924699    12.000000000000
         C            1.540475122310     1.071149081694    -1.064312075301    12.000000000000
         C           -0.500779277690    -0.569764918306     0.083330224699    12.000000000000
         C            1.919960122310    -0.202380918306    -0.335446075301    12.000000000000
         C           -2.207236877690     1.146023081694     0.286091924699    12.000000000000
         C           -1.443863877690    -1.443969918306    -0.400375075301    12.000000000000
         C            1.173956122310    -2.224442918306     0.801381924699    12.000000000000
         C           -3.163541877690     0.240283081694    -0.176328075301    12.000000000000
         C           -2.779251877690    -1.058647918306    -0.515208075301    12.000000000000
         H           -0.314179877690     2.567039081694     1.464930924699     1.007825032230
         H            0.748046122310     1.188418081694     1.747120924699     1.007825032230
         H            0.669661122310     3.006605081694    -0.699724075301     1.007825032230
         H            2.031014122310     2.633520081694     0.358002924699     1.007825032230
         H            2.411570122310     1.357481081694    -1.658773075301     1.007825032230
         H            0.714326122310     0.859114081694    -1.751547075301     1.007825032230
         H           -2.508708877690     2.152953081694     0.570860924699     1.007825032230
         H           -1.135312877690    -2.446067918306    -0.688121075301     1.007825032230
         H            1.196746122310    -3.028418918306     0.057637924699     1.007825032230
         H            0.416844122310    -2.446373918306     1.554980924699     1.007825032230
         H            2.159197122310    -2.155984918306     1.261806924699     1.007825032230
         H           -4.202551877690     0.546030081694    -0.270579075301     1.007825032230
         H           -3.516785877690    -1.772283918306    -0.874434075301     1.007825032230

  Basis Set: AUG-CC-PVTZ
    Blend: AUG-CC-PVTZ
  Basis Set: (AUG-CC-PVTZ AUX)
    Blend: AUG-CC-PVTZ-JKFIT
	 Reference Energy          =    -553.6349724480780878 [Eh]
	 Singles Energy            =      -0.0000000000000000 [Eh]
	 Same-Spin Energy          =      -0.6035108570843231 [Eh]
	 Opposite-Spin Energy      =      -1.9028548424366449 [Eh]
	 Correlation Energy        =      -2.5063656995209680 [Eh]
	 Total Energy              =    -556.1413381475990718 [Eh]

	 ================> DF-SCS-MP2 Energies <==================
	-----------------------------------------------------------
	 SCS Same-Spin Scale       =       0.3333333333333333 [-]
	 SCS Opposite-Spin Scale   =       1.2000000000000000 [-]
	 SCS Same-Spin Energy      =      -0.2011702856947744 [Eh]
	 SCS Opposite-Spin Energy  =      -2.2834258109239740 [Eh]
	 SCS Correlation Energy    =      -2.4845960966187484 [Eh]
	 SCS Total Energy          =    -556.1195685446967900 [Eh]
	-----------------------------------------------------------

  Dipole Moment: [D]
     X:    -3.2272      Y:     0.5968      Z:     0.2555     Total:     3.2918

*** Psi4 exiting successfully. Buy a developer a beer!
