                               Psi4 1.4a3.dev225

  ==> Input File <==

--------------------------------------------------------------------------
#psi4
#
memory 32 gb

molecule  {
0 1
  O        3.0945450    -0.5978990    -0.2227500
  N        0.8732720    -0.9469790     0.1890630
  C        0.1786250     1.7001670     0.9719610
  C        1.1438980     2.1917080    -0.1170310
  C       -0.8608580     0.7595260     0.4300750
  C        1.5465590     1.0555900    -1.0683300
  C       -0.4811190    -0.5451200     0.0537530
  C        1.9260440    -0.2179400    -0.3394640
  C       -2.2011530     1.1304640     0.2820740
  C       -1.4377800    -1.4595290    -0.4043930
  C        1.1695452    -2.1957665     0.7765535
  C       -3.1574580     0.2247240    -0.1803460
  C       -2.7731680    -1.0742070    -0.5192260
  H       -0.3080960     2.5514800     1.4609130
  H        0.7541300     1.1728590     1.7431030
  H        0.6757450     2.9910460    -0.7037420
  H        2.0370980     2.6179610     0.3539850
  H        2.4176540     1.3419220    -1.6627910
  H        0.7204100     0.8435550    -1.7555650
  H       -2.5026250     2.1373940     0.5668430
  H       -1.1292290    -2.4616270    -0.6921390
  H        1.2028300    -3.0439780     0.0536200
  H        0.4229280    -2.4619330     1.5509630
  H        2.1652810    -2.1715440     1.2577890
  H       -4.1964680     0.5304710    -0.2745970
  H       -3.5107020    -1.7878430    -0.8784520
units angstrom
no_reorient  #important for SAPT in psi4, default
symmetry c1  #important for SAPT in psi4, default
}

set PROPERTIES_ORIGIN ["COM"]
properties('MP2/aug-cc-pvtz', properties = ['dipole'])
--------------------------------------------------------------------------

    Molecular point group: c1
  Charge       = 0
  Multiplicity = 1
  Basis Set: AUG-CC-PVTZ
    Blend: AUG-CC-PVTZ
  Basis Set: (AUG-CC-PVTZ AUX)
    Blend: AUG-CC-PVTZ-JKFIT

    Orbital Energies [Eh]
    ---------------------

    Doubly Occupied:

       1A    -20.520177     2A    -15.594892     3A    -11.351158
       4A    -11.286477     5A    -11.256803     6A    -11.251072
       7A    -11.246768     8A    -11.245844     9A    -11.245476
      10A    -11.243099    11A    -11.240953    12A    -11.239151
      13A    -11.237564    14A     -1.376844    15A     -1.269680
      16A     -1.156092    17A     -1.100676    18A     -1.033180
      19A     -1.020871    20A     -0.977817    21A     -0.923934
      22A     -0.868912    23A     -0.838256    24A     -0.800577
      25A     -0.756632    26A     -0.694273    27A     -0.686045
      28A     -0.671129    29A     -0.657915    30A     -0.624287
      31A     -0.618019    32A     -0.610568    33A     -0.600610
      34A     -0.578170    35A     -0.576618    36A     -0.546709
      37A     -0.532966    38A     -0.523288    39A     -0.515607
      40A     -0.507849    41A     -0.497393    42A     -0.486116
      43A     -0.474340    44A     -0.421864    45A     -0.403985
      46A     -0.342868    47A     -0.319618

  @DF-RHF Final Energy:  -553.63412313688445

   => Energetics <=

    Nuclear Repulsion Energy =            798.4103647968370296
    One-Electron Energy =               -2336.1426896285829571
    Two-Electron Energy =                 984.0982016948614728
    Total Energy =                       -553.6341231368844547
  Basis Set: (AUG-CC-PVTZ AUX)
    Blend: AUG-CC-PVTZ-RI
    Molecular point group: c1

    Geometry (in Angstrom), charge = 0, multiplicity = 1:

       Center              X                  Y                   Z               Mass
    ------------   -----------------  -----------------  -----------------  -----------------
         O            3.088249932930    -0.588126758139    -0.215554242584    15.994914619570
         N            0.866976932930    -0.937206758139     0.196258757416    14.003074004430
         C            0.172329932930     1.709939241861     0.979156757416    12.000000000000
         C            1.137602932930     2.201480241861    -0.109835242584    12.000000000000
         C           -0.867153067070     0.769298241861     0.437270757416    12.000000000000
         C            1.540263932930     1.065362241861    -1.061134242584    12.000000000000
         C           -0.487414067070    -0.535347758139     0.060948757416    12.000000000000
         C            1.919748932930    -0.208167758139    -0.332268242584    12.000000000000
         C           -2.207448067070     1.140236241861     0.289269757416    12.000000000000
         C           -1.444075067070    -1.449756758139    -0.397197242584    12.000000000000
         C            1.163250132930    -2.185994258139     0.783749257416    12.000000000000
         C           -3.163753067070     0.234496241861    -0.173150242584    12.000000000000
         C           -2.779463067070    -1.064434758139    -0.512030242584    12.000000000000
         H           -0.314391067070     2.561252241861     1.468108757416     1.007825032230
         H            0.747834932930     1.182631241861     1.750298757416     1.007825032230
         H            0.669449932930     3.000818241861    -0.696546242584     1.007825032230
         H            2.030802932930     2.627733241861     0.361180757416     1.007825032230
         H            2.411358932930     1.351694241861    -1.655595242584     1.007825032230
         H            0.714114932930     0.853327241861    -1.748369242584     1.007825032230
         H           -2.508920067070     2.147166241861     0.574038757416     1.007825032230
         H           -1.135524067070    -2.451854758139    -0.684943242584     1.007825032230
         H            1.196534932930    -3.034205758139     0.060815757416     1.007825032230
         H            0.416632932930    -2.452160758139     1.558158757416     1.007825032230
         H            2.158985932930    -2.161771758139     1.264984757416     1.007825032230
         H           -4.202763067070     0.540243241861    -0.267401242584     1.007825032230
         H           -3.516997067070    -1.778070758139    -0.871256242584     1.007825032230

  Basis Set: AUG-CC-PVTZ
    Blend: AUG-CC-PVTZ
  Basis Set: (AUG-CC-PVTZ AUX)
    Blend: AUG-CC-PVTZ-JKFIT
	 Reference Energy          =    -553.6341231368844547 [Eh]
	 Singles Energy            =      -0.0000000000000000 [Eh]
	 Same-Spin Energy          =      -0.6039831601581087 [Eh]
	 Opposite-Spin Energy      =      -1.9030314480467028 [Eh]
	 Correlation Energy        =      -2.5070146082048117 [Eh]
	 Total Energy              =    -556.1411377450892815 [Eh]

	 ================> DF-SCS-MP2 Energies <==================
	-----------------------------------------------------------
	 SCS Same-Spin Scale       =       0.3333333333333333 [-]
	 SCS Opposite-Spin Scale   =       1.2000000000000000 [-]
	 SCS Same-Spin Energy      =      -0.2013277200527029 [Eh]
	 SCS Opposite-Spin Energy  =      -2.2836377376560431 [Eh]
	 SCS Correlation Energy    =      -2.4849654577087459 [Eh]
	 SCS Total Energy          =    -556.1190885945932223 [Eh]
	-----------------------------------------------------------

  Dipole Moment: [D]
     X:    -3.2519      Y:     0.7148      Z:     0.2219     Total:     3.3369

*** Psi4 exiting successfully. Buy a developer a beer!
