                               Psi4 1.3.2 release

  ==> Input File <==

--------------------------------------------------------------------------
#psi4
#
memory 32 gb

molecule  {
0 1
  O        3.0945450    -0.5978990    -0.2227500
  N        0.8732720    -0.9469790     0.1890630
  C        0.1786250     1.7001670     0.9719610
  C        1.1438980     2.1917080    -0.1170310
  C       -0.8608580     0.7595260     0.4300750
  C        1.5465590     1.0555900    -1.0683300
  C       -0.5066052    -0.6259686     0.1050054
  C        1.9260440    -0.2179400    -0.3394640
  C       -2.2011530     1.1304640     0.2820740
  C       -1.4377800    -1.4595290    -0.4043930
  C        1.1800400    -2.2400020     0.7973640
  C       -3.1574580     0.2247240    -0.1803460
  C       -2.7731680    -1.0742070    -0.5192260
  H       -0.3080960     2.5514800     1.4609130
  H        0.7541300     1.1728590     1.7431030
  H        0.6757450     2.9910460    -0.7037420
  H        2.0370980     2.6179610     0.3539850
  H        2.4176540     1.3419220    -1.6627910
  H        0.7204100     0.8435550    -1.7555650
  H       -2.5026250     2.1373940     0.5668430
  H       -1.1292290    -2.4616270    -0.6921390
  H        1.2028300    -3.0439780     0.0536200
  H        0.4229280    -2.4619330     1.5509630
  H        2.1652810    -2.1715440     1.2577890
  H       -4.1964680     0.5304710    -0.2745970
  H       -3.5107020    -1.7878430    -0.8784520
units angstrom
no_reorient  #important for SAPT in psi4, default
symmetry c1  #important for SAPT in psi4, default
}

set PROPERTIES_ORIGIN ["COM"]
properties('MP2/aug-cc-pvtz', properties = ['dipole'])
--------------------------------------------------------------------------

    Molecular point group: c1
  Charge       = 0
  Multiplicity = 1
  Basis Set: AUG-CC-PVTZ
    Blend: AUG-CC-PVTZ
  Basis Set: (AUG-CC-PVTZ AUX)
    Blend: AUG-CC-PVTZ-JKFIT

    Orbital Energies [Eh]
    ---------------------

    Doubly Occupied:

       1A    -20.519708     2A    -15.593577     3A    -11.352277
       4A    -11.285997     5A    -11.255715     6A    -11.255030
       7A    -11.245891     8A    -11.244248     9A    -11.242698
      10A    -11.240402    11A    -11.240050    12A    -11.239218
      13A    -11.237021    14A     -1.374619    15A     -1.261144
      16A     -1.152713    17A     -1.100193    18A     -1.031963
      19A     -1.022904    20A     -0.974300    21A     -0.925620
      22A     -0.869994    23A     -0.834730    24A     -0.798051
      25A     -0.758590    26A     -0.690177    27A     -0.682778
      28A     -0.670462    29A     -0.651379    30A     -0.625150
      31A     -0.618151    32A     -0.611318    33A     -0.597897
      34A     -0.578143    35A     -0.569412    36A     -0.554831
      37A     -0.536287    38A     -0.523468    39A     -0.520537
      40A     -0.501818    41A     -0.497205    42A     -0.484211
      43A     -0.474385    44A     -0.421686    45A     -0.405729
      46A     -0.344407    47A     -0.316710

  @DF-RHF Final Energy:  -553.62933557927772

   => Energetics <=

    Nuclear Repulsion Energy =            796.5856671640088962
    One-Electron Energy =               -2332.5644138712877975
    Two-Electron Energy =                 982.3494111280010657
    Total Energy =                       -553.6293355792777220
  Basis Set: (AUG-CC-PVTZ AUX)
    Blend: AUG-CC-PVTZ-RI
    Molecular point group: c1

    Geometry (in Angstrom), charge = 0, multiplicity = 1:

       Center              X                  Y                   Z               Mass
    ------------   -----------------  -----------------  -----------------  -----------------
         O            3.089277329240    -0.579554447166    -0.220492884573    15.994914619570
         N            0.868004329240    -0.928634447166     0.191320115427    14.003074004430
         C            0.173357329240     1.718511552834     0.974218115427    12.000000000000
         C            1.138630329240     2.210052552834    -0.114773884573    12.000000000000
         C           -0.866125670760     0.777870552834     0.432332115427    12.000000000000
         C            1.541291329240     1.073934552834    -1.066072884573    12.000000000000
         C           -0.511872870760    -0.607624047166     0.107262515427    12.000000000000
         C            1.920776329240    -0.199595447166    -0.337206884573    12.000000000000
         C           -2.206420670760     1.148808552834     0.284331115427    12.000000000000
         C           -1.443047670760    -1.441184447166    -0.402135884573    12.000000000000
         C            1.174772329240    -2.221657447166     0.799621115427    12.000000000000
         C           -3.162725670760     0.243068552834    -0.178088884573    12.000000000000
         C           -2.778435670760    -1.055862447166    -0.516968884573    12.000000000000
         H           -0.313363670760     2.569824552834     1.463170115427     1.007825032230
         H            0.748862329240     1.191203552834     1.745360115427     1.007825032230
         H            0.670477329240     3.009390552834    -0.701484884573     1.007825032230
         H            2.031830329240     2.636305552834     0.356242115427     1.007825032230
         H            2.412386329240     1.360266552834    -1.660533884573     1.007825032230
         H            0.715142329240     0.861899552834    -1.753307884573     1.007825032230
         H           -2.507892670760     2.155738552834     0.569100115427     1.007825032230
         H           -1.134496670760    -2.443282447166    -0.689881884573     1.007825032230
         H            1.197562329240    -3.025633447166     0.055877115427     1.007825032230
         H            0.417660329240    -2.443588447166     1.553220115427     1.007825032230
         H            2.160013329240    -2.153199447166     1.260046115427     1.007825032230
         H           -4.201735670760     0.548815552834    -0.272339884573     1.007825032230
         H           -3.515969670760    -1.769498447166    -0.876194884573     1.007825032230

  Basis Set: AUG-CC-PVTZ
    Blend: AUG-CC-PVTZ
  Basis Set: (AUG-CC-PVTZ AUX)
    Blend: AUG-CC-PVTZ-JKFIT
	 Reference Energy          =    -553.6293355792777220 [Eh]
	 Singles Energy            =      -0.0000000000000000 [Eh]
	 Same-Spin Energy          =      -0.6034822914658975 [Eh]
	 Opposite-Spin Energy      =      -1.9032479853337574 [Eh]
	 Correlation Energy        =      -2.5067302767996549 [Eh]
	 Total Energy              =    -556.1360658560773800 [Eh]

	 ================> DF-SCS-MP2 Energies <==================
	-----------------------------------------------------------
	 SCS Same-Spin Scale       =       0.3333333333333333 [-]
	 SCS Opposite-Spin Scale   =       1.2000000000000000 [-]
	 SCS Same-Spin Energy      =      -0.2011607638219658 [Eh]
	 SCS Opposite-Spin Energy  =      -2.2838975824005088 [Eh]
	 SCS Correlation Energy    =      -2.4850583462224747 [Eh]
	 SCS Total Energy          =    -556.1143939255001669 [Eh]
	-----------------------------------------------------------

  Dipole Moment: [D]
     X:    -3.2330      Y:     0.6102      Z:     0.2417     Total:     3.2989

*** Psi4 exiting successfully. Buy a developer a beer!
