                               Psi4 1.3.2 release

  ==> Input File <==

--------------------------------------------------------------------------
#psi4
#
memory 32 gb

molecule  {
0 1
  O        3.0945450    -0.5978990    -0.2227500
  N        0.8732720    -0.9469790     0.1890630
  C        0.1786250     1.7001670     0.9719610
  C        1.1438980     2.1917080    -0.1170310
  C       -0.8608580     0.7595260     0.4300750
  C        1.5465590     1.0555900    -1.0683300
  C       -0.4737109    -0.5251986     0.0410332
  C        1.9260440    -0.2179400    -0.3394640
  C       -2.2011530     1.1304640     0.2820740
  C       -1.4377800    -1.4595290    -0.4043930
  C        1.1800400    -2.2400020     0.7973640
  C       -3.1574580     0.2247240    -0.1803460
  C       -2.7731680    -1.0742070    -0.5192260
  H       -0.3080960     2.5514800     1.4609130
  H        0.7541300     1.1728590     1.7431030
  H        0.6757450     2.9910460    -0.7037420
  H        2.0370980     2.6179610     0.3539850
  H        2.4176540     1.3419220    -1.6627910
  H        0.7204100     0.8435550    -1.7555650
  H       -2.5026250     2.1373940     0.5668430
  H       -1.1292290    -2.4616270    -0.6921390
  H        1.2028300    -3.0439780     0.0536200
  H        0.4229280    -2.4619330     1.5509630
  H        2.1652810    -2.1715440     1.2577890
  H       -4.1964680     0.5304710    -0.2745970
  H       -3.5107020    -1.7878430    -0.8784520
units angstrom
no_reorient  #important for SAPT in psi4, default
symmetry c1  #important for SAPT in psi4, default
}

set PROPERTIES_ORIGIN ["COM"]
properties('MP2/aug-cc-pvtz', properties = ['dipole'])
--------------------------------------------------------------------------

    Molecular point group: c1
  Charge       = 0
  Multiplicity = 1
  Basis Set: AUG-CC-PVTZ
    Blend: AUG-CC-PVTZ
  Basis Set: (AUG-CC-PVTZ AUX)
    Blend: AUG-CC-PVTZ-JKFIT

    Orbital Energies [Eh]
    ---------------------

    Doubly Occupied:

       1A    -20.517990     2A    -15.593862     3A    -11.349154
       4A    -11.285500     5A    -11.258055     6A    -11.248707
       7A    -11.246812     8A    -11.245507     9A    -11.245290
      10A    -11.242345    11A    -11.240128    12A    -11.238093
      13A    -11.236505    14A     -1.373583    15A     -1.261295
      16A     -1.153815    17A     -1.099155    18A     -1.032792
      19A     -1.017552    20A     -0.977373    21A     -0.925293
      22A     -0.867681    23A     -0.838392    24A     -0.799261
      25A     -0.753159    26A     -0.690421    27A     -0.684324
      28A     -0.668991    29A     -0.654741    30A     -0.622982
      31A     -0.617437    32A     -0.609727    33A     -0.597666
      34A     -0.578388    35A     -0.572899    36A     -0.554428
      37A     -0.535529    38A     -0.523537    39A     -0.516829
      40A     -0.509989    41A     -0.496210    42A     -0.485381
      43A     -0.473418    44A     -0.420324    45A     -0.404716
      46A     -0.342000    47A     -0.318847

  @DF-RHF Final Energy:  -553.63615436474481

   => Energetics <=

    Nuclear Repulsion Energy =            797.3520477318504618
    One-Electron Energy =               -2334.1242453230215688
    Two-Electron Energy =                 983.1360432264262954
    Total Energy =                       -553.6361543647448116
  Basis Set: (AUG-CC-PVTZ AUX)
    Blend: AUG-CC-PVTZ-RI
    Molecular point group: c1

    Geometry (in Angstrom), charge = 0, multiplicity = 1:

       Center              X                  Y                   Z               Mass
    ------------   -----------------  -----------------  -----------------  -----------------
         O            3.087023004599    -0.586460455018    -0.216108717504    15.994914619570
         N            0.865750004599    -0.935540455018     0.195704282496    14.003074004430
         C            0.171103004599     1.711605544982     0.978602282496    12.000000000000
         C            1.136376004599     2.203146544982    -0.110389717504    12.000000000000
         C           -0.868379995401     0.770964544982     0.436716282496    12.000000000000
         C            1.539037004599     1.067028544982    -1.061688717504    12.000000000000
         C           -0.481232895401    -0.513760055018     0.047674482496    12.000000000000
         C            1.918522004599    -0.206501455018    -0.332822717504    12.000000000000
         C           -2.208674995401     1.141902544982     0.288715282496    12.000000000000
         C           -1.445301995401    -1.448090455018    -0.397751717504    12.000000000000
         C            1.172518004599    -2.228563455018     0.804005282496    12.000000000000
         C           -3.164979995401     0.236162544982    -0.173704717504    12.000000000000
         C           -2.780689995401    -1.062768455018    -0.512584717504    12.000000000000
         H           -0.315617995401     2.562918544982     1.467554282496     1.007825032230
         H            0.746608004599     1.184297544982     1.749744282496     1.007825032230
         H            0.668223004599     3.002484544982    -0.697100717504     1.007825032230
         H            2.029576004599     2.629399544982     0.360626282496     1.007825032230
         H            2.410132004599     1.353360544982    -1.656149717504     1.007825032230
         H            0.712888004599     0.854993544982    -1.748923717504     1.007825032230
         H           -2.510146995401     2.148832544982     0.573484282496     1.007825032230
         H           -1.136750995401    -2.450188455018    -0.685497717504     1.007825032230
         H            1.195308004599    -3.032539455018     0.060261282496     1.007825032230
         H            0.415406004599    -2.450494455018     1.557604282496     1.007825032230
         H            2.157759004599    -2.160105455018     1.264430282496     1.007825032230
         H           -4.203989995401     0.541909544982    -0.267955717504     1.007825032230
         H           -3.518223995401    -1.776404455018    -0.871810717504     1.007825032230

  Basis Set: AUG-CC-PVTZ
    Blend: AUG-CC-PVTZ
  Basis Set: (AUG-CC-PVTZ AUX)
    Blend: AUG-CC-PVTZ-JKFIT
	 Reference Energy          =    -553.6361543647448116 [Eh]
	 Singles Energy            =      -0.0000000000000000 [Eh]
	 Same-Spin Energy          =      -0.6036338750472843 [Eh]
	 Opposite-Spin Energy      =      -1.9028972988972042 [Eh]
	 Correlation Energy        =      -2.5065311739444884 [Eh]
	 Total Energy              =    -556.1426855386893067 [Eh]

	 ================> DF-SCS-MP2 Energies <==================
	-----------------------------------------------------------
	 SCS Same-Spin Scale       =       0.3333333333333333 [-]
	 SCS Opposite-Spin Scale   =       1.2000000000000000 [-]
	 SCS Same-Spin Energy      =      -0.2012112916824281 [Eh]
	 SCS Opposite-Spin Energy  =      -2.2834767586766449 [Eh]
	 SCS Correlation Energy    =      -2.4846880503590731 [Eh]
	 SCS Total Energy          =    -556.1208424151038798 [Eh]
	-----------------------------------------------------------

  Dipole Moment: [D]
     X:    -3.2272      Y:     0.5763      Z:     0.2754     Total:     3.2898

*** Psi4 exiting successfully. Buy a developer a beer!
