                               Psi4 1.3.2 release

  ==> Input File <==

--------------------------------------------------------------------------
#psi4
#
memory 32 gb

molecule  {
0 1
  O        3.0945450    -0.5978990    -0.2227500
  N        0.8732720    -0.9469790     0.1890630
  C        0.1786250     1.7001670     0.9719610
  C        1.1438980     2.1917080    -0.1170310
  C       -0.8608580     0.7595260     0.4300750
  C        1.5465590     1.0555900    -1.0683300
  C       -0.4881146    -0.5651638     0.0665140
  C        1.9260440    -0.2179400    -0.3394640
  C       -2.2011530     1.1304640     0.2820740
  C       -1.4377800    -1.4595290    -0.4043930
  C        1.1800400    -2.2400020     0.7973640
  C       -3.1574580     0.2247240    -0.1803460
  C       -2.7731680    -1.0742070    -0.5192260
  H       -0.3080960     2.5514800     1.4609130
  H        0.7541300     1.1728590     1.7431030
  H        0.6757450     2.9910460    -0.7037420
  H        2.0370980     2.6179610     0.3539850
  H        2.4176540     1.3419220    -1.6627910
  H        0.7204100     0.8435550    -1.7555650
  H       -2.5026250     2.1373940     0.5668430
  H       -1.1292290    -2.4616270    -0.6921390
  H        1.2028300    -3.0439780     0.0536200
  H        0.4229280    -2.4619330     1.5509630
  H        2.1652810    -2.1715440     1.2577890
  H       -4.1964680     0.5304710    -0.2745970
  H       -3.5107020    -1.7878430    -0.8784520
units angstrom
no_reorient  #important for SAPT in psi4, default
symmetry c1  #important for SAPT in psi4, default
}

set PROPERTIES_ORIGIN ["COM"]
properties('MP2/aug-cc-pvtz', properties = ['dipole'])
--------------------------------------------------------------------------

    Molecular point group: c1
  Charge       = 0
  Multiplicity = 1
  Basis Set: AUG-CC-PVTZ
    Blend: AUG-CC-PVTZ
  Basis Set: (AUG-CC-PVTZ AUX)
    Blend: AUG-CC-PVTZ-JKFIT

    Orbital Energies [Eh]
    ---------------------

    Doubly Occupied:

       1A    -20.518721     2A    -15.593790     3A    -11.350419
       4A    -11.285662     5A    -11.256815     6A    -11.251458
       7A    -11.246007     8A    -11.244981     9A    -11.243644
      10A    -11.242331    11A    -11.240223    12A    -11.238579
      13A    -11.236713    14A     -1.374022    15A     -1.261229
      16A     -1.153319    17A     -1.099529    18A     -1.031844
      19A     -1.020241    20A     -0.976243    21A     -0.925385
      22A     -0.868712    23A     -0.836821    24A     -0.798912
      25A     -0.755560    26A     -0.690176    27A     -0.683889
      28A     -0.669537    29A     -0.653312    30A     -0.623785
      31A     -0.617729    32A     -0.610697    33A     -0.597901
      34A     -0.578054    35A     -0.571732    36A     -0.554609
      37A     -0.535847    38A     -0.523467    39A     -0.518452
      40A     -0.506848    41A     -0.496744    42A     -0.485035
      43A     -0.474264    44A     -0.420870    45A     -0.405186
      46A     -0.342734    47A     -0.318251

  @DF-RHF Final Energy:  -553.63634635355754

   => Energetics <=

    Nuclear Repulsion Energy =            797.0618158768755848
    One-Electron Energy =               -2333.5357640442807678
    Two-Electron Energy =                 982.8376018138475274
    Total Energy =                       -553.6363463535575420
  Basis Set: (AUG-CC-PVTZ AUX)
    Blend: AUG-CC-PVTZ-RI
    Molecular point group: c1

    Geometry (in Angstrom), charge = 0, multiplicity = 1:

       Center              X                  Y                   Z               Mass
    ------------   -----------------  -----------------  -----------------  -----------------
         O            3.088010124429    -0.583721544777    -0.217854977352    15.994914619570
         N            0.866737124429    -0.932801544777     0.193958022648    14.003074004430
         C            0.172090124429     1.714344455223     0.976856022648    12.000000000000
         C            1.137363124429     2.205885455223    -0.112135977352    12.000000000000
         C           -0.867392875571     0.773703455223     0.434970022648    12.000000000000
         C            1.540024124429     1.069767455223    -1.063434977352    12.000000000000
         C           -0.494649475571    -0.550986344777     0.071409022648    12.000000000000
         C            1.919509124429    -0.203762544777    -0.334568977352    12.000000000000
         C           -2.207687875571     1.144641455223     0.286969022648    12.000000000000
         C           -1.444314875571    -1.445351544777    -0.399497977352    12.000000000000
         C            1.173505124429    -2.225824544777     0.802259022648    12.000000000000
         C           -3.163992875571     0.238901455223    -0.175450977352    12.000000000000
         C           -2.779702875571    -1.060029544777    -0.514330977352    12.000000000000
         H           -0.314630875571     2.565657455223     1.465808022648     1.007825032230
         H            0.747595124429     1.187036455223     1.747998022648     1.007825032230
         H            0.669210124429     3.005223455223    -0.698846977352     1.007825032230
         H            2.030563124429     2.632138455223     0.358880022648     1.007825032230
         H            2.411119124429     1.356099455223    -1.657895977352     1.007825032230
         H            0.713875124429     0.857732455223    -1.750669977352     1.007825032230
         H           -2.509159875571     2.151571455223     0.571738022648     1.007825032230
         H           -1.135763875571    -2.447449544777    -0.687243977352     1.007825032230
         H            1.196295124429    -3.029800544777     0.058515022648     1.007825032230
         H            0.416393124429    -2.447755544777     1.555858022648     1.007825032230
         H            2.158746124429    -2.157366544777     1.262684022648     1.007825032230
         H           -4.203002875571     0.544648455223    -0.269701977352     1.007825032230
         H           -3.517236875571    -1.773665544777    -0.873556977352     1.007825032230

  Basis Set: AUG-CC-PVTZ
    Blend: AUG-CC-PVTZ
  Basis Set: (AUG-CC-PVTZ AUX)
    Blend: AUG-CC-PVTZ-JKFIT
	 Reference Energy          =    -553.6363463535575420 [Eh]
	 Singles Energy            =      -0.0000000000000000 [Eh]
	 Same-Spin Energy          =      -0.6035419988707786 [Eh]
	 Opposite-Spin Energy      =      -1.9027830392088867 [Eh]
	 Correlation Energy        =      -2.5063250380796651 [Eh]
	 Total Energy              =    -556.1426713916372364 [Eh]

	 ================> DF-SCS-MP2 Energies <==================
	-----------------------------------------------------------
	 SCS Same-Spin Scale       =       0.3333333333333333 [-]
	 SCS Opposite-Spin Scale   =       1.2000000000000000 [-]
	 SCS Same-Spin Energy      =      -0.2011806662902595 [Eh]
	 SCS Opposite-Spin Energy  =      -2.2833396470506639 [Eh]
	 SCS Correlation Energy    =      -2.4845203133409237 [Eh]
	 SCS Total Energy          =    -556.1208666668984506 [Eh]
	-----------------------------------------------------------

  Dipole Moment: [D]
     X:    -3.2260      Y:     0.5899      Z:     0.2622     Total:     3.2900

*** Psi4 exiting successfully. Buy a developer a beer!
