                               Psi4 1.3.2 release

  ==> Input File <==

--------------------------------------------------------------------------
#psi4
#
memory 32 gb

molecule  {
0 1
  O        3.0945450    -0.5978990    -0.2227500
  N        0.8732720    -0.9469790     0.1890630
  C        0.1786250     1.7001670     0.9719610
  C        1.1438980     2.1917080    -0.1170310
  C       -0.8608580     0.7595260     0.4300750
  C        1.5465590     1.0555900    -1.0683300
  C       -0.4811190    -0.5451200     0.0537530
  C        2.1153891    -0.2795090    -0.3205515
  C       -2.2011530     1.1304640     0.2820740
  C       -1.4377800    -1.4595290    -0.4043930
  C        1.1800400    -2.2400020     0.7973640
  C       -3.1574580     0.2247240    -0.1803460
  C       -2.7731680    -1.0742070    -0.5192260
  H       -0.3080960     2.5514800     1.4609130
  H        0.7541300     1.1728590     1.7431030
  H        0.6757450     2.9910460    -0.7037420
  H        2.0370980     2.6179610     0.3539850
  H        2.4176540     1.3419220    -1.6627910
  H        0.7204100     0.8435550    -1.7555650
  H       -2.5026250     2.1373940     0.5668430
  H       -1.1292290    -2.4616270    -0.6921390
  H        1.2028300    -3.0439780     0.0536200
  H        0.4229280    -2.4619330     1.5509630
  H        2.1652810    -2.1715440     1.2577890
  H       -4.1964680     0.5304710    -0.2745970
  H       -3.5107020    -1.7878430    -0.8784520
units angstrom
no_reorient  #important for SAPT in psi4, default
symmetry c1  #important for SAPT in psi4, default
}

set PROPERTIES_ORIGIN ["COM"]
properties('MP2/aug-cc-pvtz', properties = ['dipole'])
--------------------------------------------------------------------------

    Molecular point group: c1
  Charge       = 0
  Multiplicity = 1
  Basis Set: AUG-CC-PVTZ
    Blend: AUG-CC-PVTZ
  Basis Set: (AUG-CC-PVTZ AUX)
    Blend: AUG-CC-PVTZ-JKFIT

    Orbital Energies [Eh]
    ---------------------

    Doubly Occupied:

       1A    -20.562283     2A    -15.563864     3A    -11.345944
       4A    -11.277031     5A    -11.246754     6A    -11.239065
       7A    -11.237581     8A    -11.236602     9A    -11.234363
      10A    -11.233612    11A    -11.232626    12A    -11.230528
      13A    -11.230211    14A     -1.539256    15A     -1.237985
      16A     -1.141087    17A     -1.086167    18A     -1.018008
      19A     -1.007847    20A     -0.955257    21A     -0.904575
      22A     -0.853752    23A     -0.824861    24A     -0.790369
      25A     -0.750755    26A     -0.720941    27A     -0.685691
      28A     -0.677488    29A     -0.658683    30A     -0.636080
      31A     -0.624233    32A     -0.621400    33A     -0.596591
      34A     -0.584676    35A     -0.576605    36A     -0.565718
      37A     -0.547649    38A     -0.523373    39A     -0.518880
      40A     -0.503940    41A     -0.492929    42A     -0.477713
      43A     -0.474179    44A     -0.404054    45A     -0.391269
      46A     -0.333559    47A     -0.303816

  @DF-RHF Final Energy:  -553.56194594850103

   => Energetics <=

    Nuclear Repulsion Energy =            796.5353401867293996
    One-Electron Energy =               -2332.3948747970348450
    Two-Electron Energy =                 982.2975886618044115
    Total Energy =                       -553.5619459485010339
  Basis Set: (AUG-CC-PVTZ AUX)
    Blend: AUG-CC-PVTZ-RI
    Molecular point group: c1

    Geometry (in Angstrom), charge = 0, multiplicity = 1:

       Center              X                  Y                   Z               Mass
    ------------   -----------------  -----------------  -----------------  -----------------
         O            3.074554429125    -0.580875724024    -0.218276554283    15.994914619570
         N            0.853281429125    -0.929955724024     0.193536445717    14.003074004430
         C            0.158634429125     1.717190275976     0.976434445717    12.000000000000
         C            1.123907429125     2.208731275976    -0.112557554283    12.000000000000
         C           -0.880848570875     0.776549275976     0.434548445717    12.000000000000
         C            1.526568429125     1.072613275976    -1.063856554283    12.000000000000
         C           -0.501109570875    -0.528096724024     0.058226445717    12.000000000000
         C            2.095398529125    -0.262485724024    -0.316078054283    12.000000000000
         C           -2.221143570875     1.147487275976     0.286547445717    12.000000000000
         C           -1.457770570875    -1.442505724024    -0.399919554283    12.000000000000
         C            1.160049429125    -2.222978724024     0.801837445717    12.000000000000
         C           -3.177448570875     0.241747275976    -0.175872554283    12.000000000000
         C           -2.793158570875    -1.057183724024    -0.514752554283    12.000000000000
         H           -0.328086570875     2.568503275976     1.465386445717     1.007825032230
         H            0.734139429125     1.189882275976     1.747576445717     1.007825032230
         H            0.655754429125     3.008069275976    -0.699268554283     1.007825032230
         H            2.017107429125     2.634984275976     0.358458445717     1.007825032230
         H            2.397663429125     1.358945275976    -1.658317554283     1.007825032230
         H            0.700419429125     0.860578275976    -1.751091554283     1.007825032230
         H           -2.522615570875     2.154417275976     0.571316445717     1.007825032230
         H           -1.149219570875    -2.444603724024    -0.687665554283     1.007825032230
         H            1.182839429125    -3.026954724024     0.058093445717     1.007825032230
         H            0.402937429125    -2.444909724024     1.555436445717     1.007825032230
         H            2.145290429125    -2.154520724024     1.262262445717     1.007825032230
         H           -4.216458570875     0.547494275976    -0.270123554283     1.007825032230
         H           -3.530692570875    -1.770819724024    -0.873978554283     1.007825032230

  Basis Set: AUG-CC-PVTZ
    Blend: AUG-CC-PVTZ
  Basis Set: (AUG-CC-PVTZ AUX)
    Blend: AUG-CC-PVTZ-JKFIT
	 Reference Energy          =    -553.5619459485010339 [Eh]
	 Singles Energy            =      -0.0000000000000000 [Eh]
	 Same-Spin Energy          =      -0.6000764269316894 [Eh]
	 Opposite-Spin Energy      =      -1.8958993873878305 [Eh]
	 Correlation Energy        =      -2.4959758143195199 [Eh]
	 Total Energy              =    -556.0579217628205697 [Eh]

	 ================> DF-SCS-MP2 Energies <==================
	-----------------------------------------------------------
	 SCS Same-Spin Scale       =       0.3333333333333333 [-]
	 SCS Opposite-Spin Scale   =       1.2000000000000000 [-]
	 SCS Same-Spin Energy      =      -0.2000254756438964 [Eh]
	 SCS Opposite-Spin Energy  =      -2.2750792648653966 [Eh]
	 SCS Correlation Energy    =      -2.4751047405092930 [Eh]
	 SCS Total Energy          =    -556.0370506890103570 [Eh]
	-----------------------------------------------------------

  Dipole Moment: [D]
     X:    -1.1778      Y:     0.4126      Z:     0.1082     Total:     1.2527

*** Psi4 exiting successfully. Buy a developer a beer!
