                               Psi4 1.4a2.dev612

  ==> Input File <==

--------------------------------------------------------------------------
#psi4
#
memory 32 gb

molecule  {
0 1
  O        3.0945450    -0.5978990    -0.2227500
  N        0.8748868    -0.9360346     0.2120472
  C        0.1786250     1.7001670     0.9719610
  C        1.1438980     2.1917080    -0.1170310
  C       -0.8608580     0.7595260     0.4300750
  C        1.5465590     1.0555900    -1.0683300
  C       -0.4811190    -0.5451200     0.0537530
  C        1.9260440    -0.2179400    -0.3394640
  C       -2.2011530     1.1304640     0.2820740
  C       -1.4377800    -1.4595290    -0.4043930
  C        1.1800400    -2.2400020     0.7973640
  C       -3.1574580     0.2247240    -0.1803460
  C       -2.7731680    -1.0742070    -0.5192260
  H       -0.3080960     2.5514800     1.4609130
  H        0.7541300     1.1728590     1.7431030
  H        0.6757450     2.9910460    -0.7037420
  H        2.0370980     2.6179610     0.3539850
  H        2.4176540     1.3419220    -1.6627910
  H        0.7204100     0.8435550    -1.7555650
  H       -2.5026250     2.1373940     0.5668430
  H       -1.1292290    -2.4616270    -0.6921390
  H        1.2028300    -3.0439780     0.0536200
  H        0.4229280    -2.4619330     1.5509630
  H        2.1652810    -2.1715440     1.2577890
  H       -4.1964680     0.5304710    -0.2745970
  H       -3.5107020    -1.7878430    -0.8784520
units angstrom
no_reorient  #important for SAPT in psi4, default
symmetry c1  #important for SAPT in psi4, default
}

set PROPERTIES_ORIGIN ["COM"]
properties('MP2/aug-cc-pvtz', properties = ['dipole'])
--------------------------------------------------------------------------

    Molecular point group: c1
  Charge       = 0
  Multiplicity = 1
  Basis Set: AUG-CC-PVTZ
    Blend: AUG-CC-PVTZ
  Basis Set: (AUG-CC-PVTZ AUX)
    Blend: AUG-CC-PVTZ-JKFIT

    Orbital Energies [Eh]
    ---------------------

    Doubly Occupied:

       1A    -20.519035     2A    -15.593803     3A    -11.350263
       4A    -11.285416     5A    -11.257263     6A    -11.249667
       7A    -11.246265     8A    -11.245075     9A    -11.244905
      10A    -11.242243    11A    -11.240232    12A    -11.237995
      13A    -11.236828    14A     -1.374072    15A     -1.260993
      16A     -1.153381    17A     -1.099260    18A     -1.032289
      19A     -1.018751    20A     -0.976552    21A     -0.925283
      22A     -0.867786    23A     -0.837635    24A     -0.798692
      25A     -0.754413    26A     -0.690153    27A     -0.684279
      28A     -0.669669    29A     -0.653994    30A     -0.623192
      31A     -0.617444    32A     -0.610284    33A     -0.596890
      34A     -0.578300    35A     -0.572692    36A     -0.553918
      37A     -0.535806    38A     -0.523381    39A     -0.517391
      40A     -0.508107    41A     -0.496458    42A     -0.485461
      43A     -0.473976    44A     -0.420739    45A     -0.405541
      46A     -0.342348    47A     -0.318558

  @DF-RHF Final Energy:  -553.63640464409741

   => Energetics <=

    Nuclear Repulsion Energy =            797.2262562586969352
    One-Electron Energy =               -2333.8719641909847269
    Two-Electron Energy =                 983.0093032881902673
    Total Energy =                       -553.6364046440974107
  Basis Set: (AUG-CC-PVTZ AUX)
    Blend: AUG-CC-PVTZ-RI
    Molecular point group: c1

    Geometry (in Angstrom), charge = 0, multiplicity = 1:

       Center              X                  Y                   Z               Mass
    ------------   -----------------  -----------------  -----------------  -----------------
         O            3.087401560534    -0.585970439615    -0.218818528061    15.994914619570
         N            0.867743360534    -0.924106039615     0.215978671939    14.003074004430
         C            0.171481560534     1.712095560385     0.975892471939    12.000000000000
         C            1.136754560534     2.203636560385    -0.113099528061    12.000000000000
         C           -0.868001439466     0.771454560385     0.434006471939    12.000000000000
         C            1.539415560534     1.067518560385    -1.064398528061    12.000000000000
         C           -0.488262439466    -0.533191439615     0.057684471939    12.000000000000
         C            1.918900560534    -0.206011439615    -0.335532528061    12.000000000000
         C           -2.208296439466     1.142392560385     0.286005471939    12.000000000000
         C           -1.444923439466    -1.447600439615    -0.400461528061    12.000000000000
         C            1.172896560534    -2.228073439615     0.801295471939    12.000000000000
         C           -3.164601439466     0.236652560385    -0.176414528061    12.000000000000
         C           -2.780311439466    -1.062278439615    -0.515294528061    12.000000000000
         H           -0.315239439466     2.563408560385     1.464844471939     1.007825032230
         H            0.746986560534     1.184787560385     1.747034471939     1.007825032230
         H            0.668601560534     3.002974560385    -0.699810528061     1.007825032230
         H            2.029954560534     2.629889560385     0.357916471939     1.007825032230
         H            2.410510560534     1.353850560385    -1.658859528061     1.007825032230
         H            0.713266560534     0.855483560385    -1.751633528061     1.007825032230
         H           -2.509768439466     2.149322560385     0.570774471939     1.007825032230
         H           -1.136372439466    -2.449698439615    -0.688207528061     1.007825032230
         H            1.195686560534    -3.032049439615     0.057551471939     1.007825032230
         H            0.415784560534    -2.450004439615     1.554894471939     1.007825032230
         H            2.158137560534    -2.159615439615     1.261720471939     1.007825032230
         H           -4.203611439466     0.542399560385    -0.270665528061     1.007825032230
         H           -3.517845439466    -1.775914439615    -0.874520528061     1.007825032230

  Basis Set: AUG-CC-PVTZ
    Blend: AUG-CC-PVTZ
  Basis Set: (AUG-CC-PVTZ AUX)
    Blend: AUG-CC-PVTZ-JKFIT
	 Reference Energy          =    -553.6364046440974107 [Eh]
	 Singles Energy            =      -0.0000000000000000 [Eh]
	 Same-Spin Energy          =      -0.6036252524531107 [Eh]
	 Opposite-Spin Energy      =      -1.9029077808982366 [Eh]
	 Correlation Energy        =      -2.5065330333513476 [Eh]
	 Total Energy              =    -556.1429376774487991 [Eh]

	 ================> DF-SCS-MP2 Energies <==================
	-----------------------------------------------------------
	 SCS Same-Spin Scale       =       0.3333333333333333 [-]
	 SCS Opposite-Spin Scale   =       1.2000000000000000 [-]
	 SCS Same-Spin Energy      =      -0.2012084174843702 [Eh]
	 SCS Opposite-Spin Energy  =      -2.2834893370778837 [Eh]
	 SCS Correlation Energy    =      -2.4846977545622542 [Eh]
	 SCS Total Energy          =    -556.1211023986596729 [Eh]
	-----------------------------------------------------------

  Dipole Moment: [D]
     X:    -3.2045      Y:     0.5789      Z:     0.2399     Total:     3.2652

*** Psi4 exiting successfully. Buy a developer a beer!
