                               Psi4 1.4a3.dev225

  ==> Input File <==

--------------------------------------------------------------------------
#psi4
#
memory 32 gb

molecule  {
0 1
  O        3.0945450    -0.5978990    -0.2227500
  N        0.8732720    -0.9469790     0.1890630
  C        0.1786250     1.7001670     0.9719610
  C        1.1438980     2.1917080    -0.1170310
  C       -0.8608580     0.7595260     0.4300750
  C        1.5465590     1.0555900    -1.0683300
  C       -0.5002055    -0.5394569     0.0518462
  C        1.9260440    -0.2179400    -0.3394640
  C       -2.2011530     1.1304640     0.2820740
  C       -1.4377800    -1.4595290    -0.4043930
  C        1.1800400    -2.2400020     0.7973640
  C       -3.1574580     0.2247240    -0.1803460
  C       -2.7731680    -1.0742070    -0.5192260
  H       -0.3080960     2.5514800     1.4609130
  H        0.7541300     1.1728590     1.7431030
  H        0.6757450     2.9910460    -0.7037420
  H        2.0370980     2.6179610     0.3539850
  H        2.4176540     1.3419220    -1.6627910
  H        0.7204100     0.8435550    -1.7555650
  H       -2.5026250     2.1373940     0.5668430
  H       -1.1292290    -2.4616270    -0.6921390
  H        1.2028300    -3.0439780     0.0536200
  H        0.4229280    -2.4619330     1.5509630
  H        2.1652810    -2.1715440     1.2577890
  H       -4.1964680     0.5304710    -0.2745970
  H       -3.5107020    -1.7878430    -0.8784520
units angstrom
no_reorient  #important for SAPT in psi4, default
symmetry c1  #important for SAPT in psi4, default
}

set PROPERTIES_ORIGIN ["COM"]
properties('MP2/aug-cc-pvtz', properties = ['dipole'])
--------------------------------------------------------------------------

    Molecular point group: c1
  Charge       = 0
  Multiplicity = 1
  Basis Set: AUG-CC-PVTZ
    Blend: AUG-CC-PVTZ
  Basis Set: (AUG-CC-PVTZ AUX)
    Blend: AUG-CC-PVTZ-JKFIT

    Orbital Energies [Eh]
    ---------------------

    Doubly Occupied:

       1A    -20.517022     2A    -15.592549     3A    -11.348533
       4A    -11.285058     5A    -11.256387     6A    -11.249897
       7A    -11.246627     8A    -11.245757     9A    -11.244793
      10A    -11.242901    11A    -11.240184    12A    -11.238880
      13A    -11.236144    14A     -1.372147    15A     -1.256662
      16A     -1.155408    17A     -1.099587    18A     -1.033065
      19A     -1.020267    20A     -0.976091    21A     -0.924957
      22A     -0.866355    23A     -0.838245    24A     -0.799867
      25A     -0.752888    26A     -0.690103    27A     -0.683517
      28A     -0.668751    29A     -0.652477    30A     -0.623890
      31A     -0.617192    32A     -0.611298    33A     -0.597344
      34A     -0.578292    35A     -0.571869    36A     -0.553648
      37A     -0.535464    38A     -0.523823    39A     -0.516836
      40A     -0.508630    41A     -0.497283    42A     -0.485078
      43A     -0.474659    44A     -0.419233    45A     -0.403544
      46A     -0.343183    47A     -0.321124

  @DF-RHF Final Energy:  -553.63664309320905

   => Energetics <=

    Nuclear Repulsion Energy =            797.1553419481148239
    One-Electron Energy =               -2333.7489498112831825
    Two-Electron Energy =                 982.9569647699594270
    Total Energy =                       -553.6366430932090452
  Basis Set: (AUG-CC-PVTZ AUX)
    Blend: AUG-CC-PVTZ-RI
    Molecular point group: c1

    Geometry (in Angstrom), charge = 0, multiplicity = 1:

       Center              X                  Y                   Z               Mass
    ------------   -----------------  -----------------  -----------------  -----------------
         O            3.088838742573    -0.585483299795    -0.216849758120    15.994914619570
         N            0.867565742573    -0.934563299795     0.194963241880    14.003074004430
         C            0.172918742573     1.712582700205     0.977861241880    12.000000000000
         C            1.138191742573     2.204123700205    -0.111130758120    12.000000000000
         C           -0.866564257427     0.771941700205     0.435975241880    12.000000000000
         C            1.540852742573     1.068005700205    -1.062429758120    12.000000000000
         C           -0.505911757427    -0.527041199795     0.057746441880    12.000000000000
         C            1.920337742573    -0.205524299795    -0.333563758120    12.000000000000
         C           -2.206859257427     1.142879700205     0.287974241880    12.000000000000
         C           -1.443486257427    -1.447113299795    -0.398492758120    12.000000000000
         C            1.174333742573    -2.227586299795     0.803264241880    12.000000000000
         C           -3.163164257427     0.237139700205    -0.174445758120    12.000000000000
         C           -2.778874257427    -1.061791299795    -0.513325758120    12.000000000000
         H           -0.313802257427     2.563895700205     1.466813241880     1.007825032230
         H            0.748423742573     1.185274700205     1.749003241880     1.007825032230
         H            0.670038742573     3.003461700205    -0.697841758120     1.007825032230
         H            2.031391742573     2.630376700205     0.359885241880     1.007825032230
         H            2.411947742573     1.354337700205    -1.656890758120     1.007825032230
         H            0.714703742573     0.855970700205    -1.749664758120     1.007825032230
         H           -2.508331257427     2.149809700205     0.572743241880     1.007825032230
         H           -1.134935257427    -2.449211299795    -0.686238758120     1.007825032230
         H            1.197123742573    -3.031562299795     0.059520241880     1.007825032230
         H            0.417221742573    -2.449517299795     1.556863241880     1.007825032230
         H            2.159574742573    -2.159128299795     1.263689241880     1.007825032230
         H           -4.202174257427     0.542886700205    -0.268696758120     1.007825032230
         H           -3.516408257427    -1.775427299795    -0.872551758120     1.007825032230

  Basis Set: AUG-CC-PVTZ
    Blend: AUG-CC-PVTZ
  Basis Set: (AUG-CC-PVTZ AUX)
    Blend: AUG-CC-PVTZ-JKFIT
	 Reference Energy          =    -553.6366430932090452 [Eh]
	 Singles Energy            =      -0.0000000000000000 [Eh]
	 Same-Spin Energy          =      -0.6033828959408669 [Eh]
	 Opposite-Spin Energy      =      -1.9025700102378234 [Eh]
	 Correlation Energy        =      -2.5059529061786900 [Eh]
	 Total Energy              =    -556.1425959993877086 [Eh]

	 ================> DF-SCS-MP2 Energies <==================
	-----------------------------------------------------------
	 SCS Same-Spin Scale       =       0.3333333333333333 [-]
	 SCS Opposite-Spin Scale   =       1.2000000000000000 [-]
	 SCS Same-Spin Energy      =      -0.2011276319802890 [Eh]
	 SCS Opposite-Spin Energy  =      -2.2830840122853879 [Eh]
	 SCS Correlation Energy    =      -2.4842116442656770 [Eh]
	 SCS Total Energy          =    -556.1208547374747013 [Eh]
	-----------------------------------------------------------

  Dipole Moment: [D]
     X:    -3.3276      Y:     0.6041      Z:     0.2660     Total:     3.3925

*** Psi4 exiting successfully. Buy a developer a beer!
