                               Psi4 1.4a3.dev225

  ==> Input File <==

--------------------------------------------------------------------------
#psi4
#
memory 32 gb

molecule  {
0 1
  O        3.0945450    -0.5978990    -0.2227500
  N        0.8732720    -0.9469790     0.1890630
  C        0.1786250     1.7001670     0.9719610
  C        1.1438980     2.1917080    -0.1170310
  C       -0.8608580     0.7595260     0.4300750
  C        1.5465590     1.0555900    -1.0683300
  C       -0.5288352    -0.5309622     0.0489859
  C        1.9260440    -0.2179400    -0.3394640
  C       -2.2011530     1.1304640     0.2820740
  C       -1.4377800    -1.4595290    -0.4043930
  C        1.1800400    -2.2400020     0.7973640
  C       -3.1574580     0.2247240    -0.1803460
  C       -2.7731680    -1.0742070    -0.5192260
  H       -0.3080960     2.5514800     1.4609130
  H        0.7541300     1.1728590     1.7431030
  H        0.6757450     2.9910460    -0.7037420
  H        2.0370980     2.6179610     0.3539850
  H        2.4176540     1.3419220    -1.6627910
  H        0.7204100     0.8435550    -1.7555650
  H       -2.5026250     2.1373940     0.5668430
  H       -1.1292290    -2.4616270    -0.6921390
  H        1.2028300    -3.0439780     0.0536200
  H        0.4229280    -2.4619330     1.5509630
  H        2.1652810    -2.1715440     1.2577890
  H       -4.1964680     0.5304710    -0.2745970
  H       -3.5107020    -1.7878430    -0.8784520
units angstrom
no_reorient  #important for SAPT in psi4, default
symmetry c1  #important for SAPT in psi4, default
}

set PROPERTIES_ORIGIN ["COM"]
properties('MP2/aug-cc-pvtz', properties = ['dipole'])
--------------------------------------------------------------------------

    Molecular point group: c1
  Charge       = 0
  Multiplicity = 1
  Basis Set: AUG-CC-PVTZ
    Blend: AUG-CC-PVTZ
  Basis Set: (AUG-CC-PVTZ AUX)
    Blend: AUG-CC-PVTZ-JKFIT

    Orbital Energies [Eh]
    ---------------------

    Doubly Occupied:

       1A    -20.515067     2A    -15.590506     3A    -11.346672
       4A    -11.284461     5A    -11.254851     6A    -11.249669
       7A    -11.247452     8A    -11.246599     9A    -11.244724
      10A    -11.243713    11A    -11.240284    12A    -11.239625
      13A    -11.235460    14A     -1.369788    15A     -1.250379
      16A     -1.158142    17A     -1.100014    18A     -1.034377
      19A     -1.022194    20A     -0.975151    21A     -0.924311
      22A     -0.863973    23A     -0.839361    24A     -0.800879
      25A     -0.750557    26A     -0.690319    27A     -0.682311
      28A     -0.668130    29A     -0.650238    30A     -0.624728
      31A     -0.616732    32A     -0.612751    33A     -0.596544
      34A     -0.578417    35A     -0.571145    36A     -0.552441
      37A     -0.535279    38A     -0.524452    39A     -0.516391
      40A     -0.507782    41A     -0.498401    42A     -0.484726
      43A     -0.475498    44A     -0.417238    45A     -0.401288
      46A     -0.344508    47A     -0.324688

  @DF-RHF Final Energy:  -553.63469044446163

   => Energetics <=

    Nuclear Repulsion Energy =            797.0872234084929460
    One-Electron Energy =               -2333.6394017936231648
    Two-Electron Energy =                 982.9174879406685932
    Total Energy =                       -553.6346904444616257
  Basis Set: (AUG-CC-PVTZ AUX)
    Blend: AUG-CC-PVTZ-RI
    Molecular point group: c1

    Geometry (in Angstrom), charge = 0, multiplicity = 1:

       Center              X                  Y                   Z               Mass
    ------------   -----------------  -----------------  -----------------  -----------------
         O            3.090800804029    -0.586065461797    -0.216653734956    15.994914619570
         N            0.869527804029    -0.935145461797     0.195159265044    14.003074004430
         C            0.174880804029     1.712000538203     0.978057265044    12.000000000000
         C            1.140153804029     2.203541538203    -0.110934734956    12.000000000000
         C           -0.864602195971     0.771359538203     0.436171265044    12.000000000000
         C            1.542814804029     1.067423538203    -1.062233734956    12.000000000000
         C           -0.532579395971    -0.519128661797     0.055082165044    12.000000000000
         C            1.922299804029    -0.206106461797    -0.333367734956    12.000000000000
         C           -2.204897195971     1.142297538203     0.288170265044    12.000000000000
         C           -1.441524195971    -1.447695461797    -0.398296734956    12.000000000000
         C            1.176295804029    -2.228168461797     0.803460265044    12.000000000000
         C           -3.161202195971     0.236557538203    -0.174249734956    12.000000000000
         C           -2.776912195971    -1.062373461797    -0.513129734956    12.000000000000
         H           -0.311840195971     2.563313538203     1.467009265044     1.007825032230
         H            0.750385804029     1.184692538203     1.749199265044     1.007825032230
         H            0.672000804029     3.002879538203    -0.697645734956     1.007825032230
         H            2.033353804029     2.629794538203     0.360081265044     1.007825032230
         H            2.413909804029     1.353755538203    -1.656694734956     1.007825032230
         H            0.716665804029     0.855388538203    -1.749468734956     1.007825032230
         H           -2.506369195971     2.149227538203     0.572939265044     1.007825032230
         H           -1.132973195971    -2.449793461797    -0.686042734956     1.007825032230
         H            1.199085804029    -3.032144461797     0.059716265044     1.007825032230
         H            0.419183804029    -2.450099461797     1.557059265044     1.007825032230
         H            2.161536804029    -2.159710461797     1.263885265044     1.007825032230
         H           -4.200212195971     0.542304538203    -0.268500734956     1.007825032230
         H           -3.514446195971    -1.776009461797    -0.872355734956     1.007825032230

  Basis Set: AUG-CC-PVTZ
    Blend: AUG-CC-PVTZ
  Basis Set: (AUG-CC-PVTZ AUX)
    Blend: AUG-CC-PVTZ-JKFIT
	 Reference Energy          =    -553.6346904444616257 [Eh]
	 Singles Energy            =      -0.0000000000000000 [Eh]
	 Same-Spin Energy          =      -0.6031721156686639 [Eh]
	 Opposite-Spin Energy      =      -1.9023755079511051 [Eh]
	 Correlation Energy        =      -2.5055476236197691 [Eh]
	 Total Energy              =    -556.1402380680814304 [Eh]

	 ================> DF-SCS-MP2 Energies <==================
	-----------------------------------------------------------
	 SCS Same-Spin Scale       =       0.3333333333333333 [-]
	 SCS Opposite-Spin Scale   =       1.2000000000000000 [-]
	 SCS Same-Spin Energy      =      -0.2010573718895546 [Eh]
	 SCS Opposite-Spin Energy  =      -2.2828506095413261 [Eh]
	 SCS Correlation Energy    =      -2.4839079814308809 [Eh]
	 SCS Total Energy          =    -556.1185984258925146 [Eh]
	-----------------------------------------------------------

  Dipole Moment: [D]
     X:    -3.4754      Y:     0.6349      Z:     0.2621     Total:     3.5426

*** Psi4 exiting successfully. Buy a developer a beer!
