                               Psi4 1.3.2 release

  ==> Input File <==

--------------------------------------------------------------------------
#psi4
#
memory 32 gb

molecule  {
0 1
  O        3.0945450    -0.5978990    -0.2227500
  N        0.8732720    -0.9469790     0.1890630
  C        0.1786250     1.7001670     0.9719610
  C        1.1438980     2.1917080    -0.1170310
  C       -0.8608580     0.7595260     0.4300750
  C        1.5465590     1.0555900    -1.0683300
  C       -0.4811190    -0.5451200     0.0537530
  C        2.0207166    -0.2487245    -0.3300078
  C       -2.2011530     1.1304640     0.2820740
  C       -1.4377800    -1.4595290    -0.4043930
  C        1.1800400    -2.2400020     0.7973640
  C       -3.1574580     0.2247240    -0.1803460
  C       -2.7731680    -1.0742070    -0.5192260
  H       -0.3080960     2.5514800     1.4609130
  H        0.7541300     1.1728590     1.7431030
  H        0.6757450     2.9910460    -0.7037420
  H        2.0370980     2.6179610     0.3539850
  H        2.4176540     1.3419220    -1.6627910
  H        0.7204100     0.8435550    -1.7555650
  H       -2.5026250     2.1373940     0.5668430
  H       -1.1292290    -2.4616270    -0.6921390
  H        1.2028300    -3.0439780     0.0536200
  H        0.4229280    -2.4619330     1.5509630
  H        2.1652810    -2.1715440     1.2577890
  H       -4.1964680     0.5304710    -0.2745970
  H       -3.5107020    -1.7878430    -0.8784520
units angstrom
no_reorient  #important for SAPT in psi4, default
symmetry c1  #important for SAPT in psi4, default
}

set PROPERTIES_ORIGIN ["COM"]
properties('MP2/aug-cc-pvtz', properties = ['dipole'])
--------------------------------------------------------------------------

    Molecular point group: c1
  Charge       = 0
  Multiplicity = 1
  Basis Set: AUG-CC-PVTZ
    Blend: AUG-CC-PVTZ
  Basis Set: (AUG-CC-PVTZ AUX)
    Blend: AUG-CC-PVTZ-JKFIT

    Orbital Energies [Eh]
    ---------------------

    Doubly Occupied:

       1A    -20.539819     2A    -15.579428     3A    -11.348267
       4A    -11.281646     5A    -11.251932     6A    -11.244724
       7A    -11.241974     8A    -11.241052     9A    -11.239836
      10A    -11.237659    11A    -11.237017    12A    -11.234596
      13A    -11.233904    14A     -1.447145    15A     -1.252539
      16A     -1.147708    17A     -1.092649    18A     -1.025081
      19A     -1.013681    20A     -0.966015    21A     -0.914651
      22A     -0.861549    23A     -0.831156    24A     -0.793661
      25A     -0.750426    26A     -0.695509    27A     -0.681402
      28A     -0.673145    29A     -0.652147    30A     -0.628651
      31A     -0.620930    32A     -0.612405    33A     -0.594442
      34A     -0.583660    35A     -0.571689    36A     -0.557967
      37A     -0.547497    38A     -0.524584    39A     -0.518465
      40A     -0.507512    41A     -0.497128    42A     -0.480298
      43A     -0.477857    44A     -0.417621    45A     -0.403089
      46A     -0.338104    47A     -0.311956

  @DF-RHF Final Energy:  -553.62570339771037

   => Energetics <=

    Nuclear Repulsion Energy =            796.6845422802724670
    One-Electron Energy =               -2332.8121368075499049
    Two-Electron Energy =                 982.5018911295669568
    Total Energy =                       -553.6257033977103674
  Basis Set: (AUG-CC-PVTZ AUX)
    Blend: AUG-CC-PVTZ-RI
    Molecular point group: c1

    Geometry (in Angstrom), charge = 0, multiplicity = 1:

       Center              X                  Y                   Z               Mass
    ------------   -----------------  -----------------  -----------------  -----------------
         O            3.081042560794    -0.582985459051    -0.217628491545    15.994914619570
         N            0.859769560794    -0.932065459051     0.194184508455    14.003074004430
         C            0.165122560794     1.715080540949     0.977082508455    12.000000000000
         C            1.130395560794     2.206621540949    -0.111909491545    12.000000000000
         C           -0.874360439206     0.774439540949     0.435196508455    12.000000000000
         C            1.533056560794     1.070503540949    -1.063208491545    12.000000000000
         C           -0.494621439206    -0.530206459051     0.058874508455    12.000000000000
         C            2.007214160794    -0.233810959051    -0.324886291545    12.000000000000
         C           -2.214655439206     1.145377540949     0.287195508455    12.000000000000
         C           -1.451282439206    -1.444615459051    -0.399271491545    12.000000000000
         C            1.166537560794    -2.225088459051     0.802485508455    12.000000000000
         C           -3.170960439206     0.239637540949    -0.175224491545    12.000000000000
         C           -2.786670439206    -1.059293459051    -0.514104491545    12.000000000000
         H           -0.321598439206     2.566393540949     1.466034508455     1.007825032230
         H            0.740627560794     1.187772540949     1.748224508455     1.007825032230
         H            0.662242560794     3.005959540949    -0.698620491545     1.007825032230
         H            2.023595560794     2.632874540949     0.359106508455     1.007825032230
         H            2.404151560794     1.356835540949    -1.657669491545     1.007825032230
         H            0.706907560794     0.858468540949    -1.750443491545     1.007825032230
         H           -2.516127439206     2.152307540949     0.571964508455     1.007825032230
         H           -1.142731439206    -2.446713459051    -0.687017491545     1.007825032230
         H            1.189327560794    -3.029064459051     0.058741508455     1.007825032230
         H            0.409425560794    -2.447019459051     1.556084508455     1.007825032230
         H            2.151778560794    -2.156630459051     1.262910508455     1.007825032230
         H           -4.209970439206     0.545384540949    -0.269475491545     1.007825032230
         H           -3.524204439206    -1.772929459051    -0.873330491545     1.007825032230

  Basis Set: AUG-CC-PVTZ
    Blend: AUG-CC-PVTZ
  Basis Set: (AUG-CC-PVTZ AUX)
    Blend: AUG-CC-PVTZ-JKFIT
	 Reference Energy          =    -553.6257033977103674 [Eh]
	 Singles Energy            =      -0.0000000000000000 [Eh]
	 Same-Spin Energy          =      -0.6015622626078094 [Eh]
	 Opposite-Spin Energy      =      -1.8988912922397696 [Eh]
	 Correlation Energy        =      -2.5004535548475788 [Eh]
	 Total Energy              =    -556.1261569525579489 [Eh]

	 ================> DF-SCS-MP2 Energies <==================
	-----------------------------------------------------------
	 SCS Same-Spin Scale       =       0.3333333333333333 [-]
	 SCS Opposite-Spin Scale   =       1.2000000000000000 [-]
	 SCS Same-Spin Energy      =      -0.2005207542026031 [Eh]
	 SCS Opposite-Spin Energy  =      -2.2786695506877233 [Eh]
	 SCS Correlation Energy    =      -2.4791903048903263 [Eh]
	 SCS Total Energy          =    -556.1048937026007479 [Eh]
	-----------------------------------------------------------

  Dipole Moment: [D]
     X:    -2.2704      Y:     0.5153      Z:     0.1866     Total:     2.3356

*** Psi4 exiting successfully. Buy a developer a beer!
