                               Psi4 1.3.2 release

  ==> Input File <==

--------------------------------------------------------------------------
#psi4
#
memory 32 gb

molecule  {
0 1
  O        3.0945450    -0.5978990    -0.2227500
  N        0.8732720    -0.9469790     0.1890630
  C        0.1786250     1.7001670     0.9719610
  C        1.1438980     2.1917080    -0.1170310
  C       -0.8608580     0.7595260     0.4300750
  C        1.5465590     1.0555900    -1.0683300
  C       -0.4811190    -0.5451200     0.0537530
  C        1.8620121    -0.1498540    -0.3642472
  C       -2.2011530     1.1304640     0.2820740
  C       -1.4377800    -1.4595290    -0.4043930
  C        1.1800400    -2.2400020     0.7973640
  C       -3.1574580     0.2247240    -0.1803460
  C       -2.7731680    -1.0742070    -0.5192260
  H       -0.3080960     2.5514800     1.4609130
  H        0.7541300     1.1728590     1.7431030
  H        0.6757450     2.9910460    -0.7037420
  H        2.0370980     2.6179610     0.3539850
  H        2.4176540     1.3419220    -1.6627910
  H        0.7204100     0.8435550    -1.7555650
  H       -2.5026250     2.1373940     0.5668430
  H       -1.1292290    -2.4616270    -0.6921390
  H        1.2028300    -3.0439780     0.0536200
  H        0.4229280    -2.4619330     1.5509630
  H        2.1652810    -2.1715440     1.2577890
  H       -4.1964680     0.5304710    -0.2745970
  H       -3.5107020    -1.7878430    -0.8784520
units angstrom
no_reorient  #important for SAPT in psi4, default
symmetry c1  #important for SAPT in psi4, default
}

set PROPERTIES_ORIGIN ["COM"]
properties('MP2/aug-cc-pvtz', properties = ['dipole'])
--------------------------------------------------------------------------

    Molecular point group: c1
  Charge       = 0
  Multiplicity = 1
  Basis Set: AUG-CC-PVTZ
    Blend: AUG-CC-PVTZ
  Basis Set: (AUG-CC-PVTZ AUX)
    Blend: AUG-CC-PVTZ-JKFIT

    Orbital Energies [Eh]
    ---------------------

    Doubly Occupied:

       1A    -20.506024     2A    -15.600871     3A    -11.354942
       4A    -11.285820     5A    -11.259894     6A    -11.252218
       7A    -11.247742     8A    -11.247215     9A    -11.246160
      10A    -11.245555    11A    -11.243937    12A    -11.241501
      13A    -11.239205    14A     -1.336041    15A     -1.247397
      16A     -1.154323    17A     -1.109433    18A     -1.042024
      19A     -1.019387    20A     -0.985093    21A     -0.931327
      22A     -0.874299    23A     -0.838446    24A     -0.803157
      25A     -0.755639    26A     -0.694926    27A     -0.687641
      28A     -0.669761    29A     -0.655344    30A     -0.626258
      31A     -0.615345    32A     -0.607755    33A     -0.597507
      34A     -0.581905    35A     -0.567120    36A     -0.554377
      37A     -0.534742    38A     -0.528984    39A     -0.509062
      40A     -0.506988    41A     -0.494492    42A     -0.490045
      43A     -0.464106    44A     -0.416795    45A     -0.398271
      46A     -0.344145    47A     -0.319605

  @DF-RHF Final Energy:  -553.61501204905892

   => Energetics <=

    Nuclear Repulsion Energy =            797.5522958225947150
    One-Electron Energy =               -2334.4689686791061831
    Two-Electron Energy =                 983.3016608074525493
    Total Energy =                       -553.6150120490589188
  Basis Set: (AUG-CC-PVTZ AUX)
    Blend: AUG-CC-PVTZ-RI
    Molecular point group: c1

    Geometry (in Angstrom), charge = 0, multiplicity = 1:

       Center              X                  Y                   Z               Mass
    ------------   -----------------  -----------------  -----------------  -----------------
         O            3.091918957769    -0.589761289649    -0.215281984001    15.994914619570
         N            0.870645957769    -0.938841289649     0.196531015999    14.003074004430
         C            0.175998957769     1.708304710351     0.979429015999    12.000000000000
         C            1.141271957769     2.199845710351    -0.109562984001    12.000000000000
         C           -0.863484042231     0.767663710351     0.437543015999    12.000000000000
         C            1.543932957769     1.063727710351    -1.060861984001    12.000000000000
         C           -0.483745042231    -0.536982289649     0.061221015999    12.000000000000
         C            1.859386057769    -0.141716289649    -0.356779184001    12.000000000000
         C           -2.203779042231     1.138601710351     0.289542015999    12.000000000000
         C           -1.440406042231    -1.451391289649    -0.396924984001    12.000000000000
         C            1.177413957769    -2.231864289649     0.804832015999    12.000000000000
         C           -3.160084042231     0.232861710351    -0.172877984001    12.000000000000
         C           -2.775794042231    -1.066069289649    -0.511757984001    12.000000000000
         H           -0.310722042231     2.559617710351     1.468381015999     1.007825032230
         H            0.751503957769     1.180996710351     1.750571015999     1.007825032230
         H            0.673118957769     2.999183710351    -0.696273984001     1.007825032230
         H            2.034471957769     2.626098710351     0.361453015999     1.007825032230
         H            2.415027957769     1.350059710351    -1.655322984001     1.007825032230
         H            0.717783957769     0.851692710351    -1.748096984001     1.007825032230
         H           -2.505251042231     2.145531710351     0.574311015999     1.007825032230
         H           -1.131855042231    -2.453489289649    -0.684670984001     1.007825032230
         H            1.200203957769    -3.035840289649     0.061088015999     1.007825032230
         H            0.420301957769    -2.453795289649     1.558431015999     1.007825032230
         H            2.162654957769    -2.163406289649     1.265257015999     1.007825032230
         H           -4.199094042231     0.538608710351    -0.267128984001     1.007825032230
         H           -3.513328042231    -1.779705289649    -0.870983984001     1.007825032230

  Basis Set: AUG-CC-PVTZ
    Blend: AUG-CC-PVTZ
  Basis Set: (AUG-CC-PVTZ AUX)
    Blend: AUG-CC-PVTZ-JKFIT
	 Reference Energy          =    -553.6150120490589188 [Eh]
	 Singles Energy            =      -0.0000000000000000 [Eh]
	 Same-Spin Energy          =      -0.6063653276793914 [Eh]
	 Opposite-Spin Energy      =      -1.9078500473134288 [Eh]
	 Correlation Energy        =      -2.5142153749928200 [Eh]
	 Total Energy              =    -556.1292274240516917 [Eh]

	 ================> DF-SCS-MP2 Energies <==================
	-----------------------------------------------------------
	 SCS Same-Spin Scale       =       0.3333333333333333 [-]
	 SCS Opposite-Spin Scale   =       1.2000000000000000 [-]
	 SCS Same-Spin Energy      =      -0.2021217758931305 [Eh]
	 SCS Opposite-Spin Energy  =      -2.2894200567761143 [Eh]
	 SCS Correlation Energy    =      -2.4915418326692449 [Eh]
	 SCS Total Energy          =    -556.1065538817281322 [Eh]
	-----------------------------------------------------------

  Dipole Moment: [D]
     X:    -3.6602      Y:     0.7841      Z:     0.2313     Total:     3.7504

*** Psi4 exiting successfully. Buy a developer a beer!
