                               Psi4 1.3.2 release

  ==> Input File <==

--------------------------------------------------------------------------
#psi4
#
memory 32 gb

molecule  {
0 1
  O        3.0945450    -0.5978990    -0.2227500
  N        0.8732720    -0.9469790     0.1890630
  C        0.1786250     1.7001670     0.9719610
  C        1.1438980     2.1917080    -0.1170310
  C       -0.8608580     0.7595260     0.4300750
  C        1.5465590     1.0555900    -1.0683300
  C       -0.4484870    -0.4613702     0.0121119
  C        1.9260440    -0.2179400    -0.3394640
  C       -2.2011530     1.1304640     0.2820740
  C       -1.4377800    -1.4595290    -0.4043930
  C        1.1800400    -2.2400020     0.7973640
  C       -3.1574580     0.2247240    -0.1803460
  C       -2.7731680    -1.0742070    -0.5192260
  H       -0.3080960     2.5514800     1.4609130
  H        0.7541300     1.1728590     1.7431030
  H        0.6757450     2.9910460    -0.7037420
  H        2.0370980     2.6179610     0.3539850
  H        2.4176540     1.3419220    -1.6627910
  H        0.7204100     0.8435550    -1.7555650
  H       -2.5026250     2.1373940     0.5668430
  H       -1.1292290    -2.4616270    -0.6921390
  H        1.2028300    -3.0439780     0.0536200
  H        0.4229280    -2.4619330     1.5509630
  H        2.1652810    -2.1715440     1.2577890
  H       -4.1964680     0.5304710    -0.2745970
  H       -3.5107020    -1.7878430    -0.8784520
units angstrom
no_reorient  #important for SAPT in psi4, default
symmetry c1  #important for SAPT in psi4, default
}

set PROPERTIES_ORIGIN ["COM"]
properties('MP2/aug-cc-pvtz', properties = ['dipole'])
--------------------------------------------------------------------------

    Molecular point group: c1
  Charge       = 0
  Multiplicity = 1
  Basis Set: AUG-CC-PVTZ
    Blend: AUG-CC-PVTZ
  Basis Set: (AUG-CC-PVTZ AUX)
    Blend: AUG-CC-PVTZ-JKFIT

    Orbital Energies [Eh]
    ---------------------

    Doubly Occupied:

       1A    -20.516764     2A    -15.593865     3A    -11.347217
       4A    -11.285131     5A    -11.259987     6A    -11.251046
       7A    -11.246304     8A    -11.245394     9A    -11.243685
      10A    -11.242807    11A    -11.239994    12A    -11.237217
      13A    -11.236194    14A     -1.372850    15A     -1.261445
      16A     -1.155015    17A     -1.098706    18A     -1.035313
      19A     -1.012655    20A     -0.978791    21A     -0.925260
      22A     -0.865723    23A     -0.841490    24A     -0.799444
      25A     -0.749136    26A     -0.691157    27A     -0.684652
      28A     -0.668317    29A     -0.657079    30A     -0.622033
      31A     -0.616990    32A     -0.607841    33A     -0.596235
      34A     -0.579773    35A     -0.573816    36A     -0.554131
      37A     -0.535006    38A     -0.523733    39A     -0.516839
      40A     -0.511372    41A     -0.495167    42A     -0.485673
      43A     -0.471003    44A     -0.419584    45A     -0.403680
      46A     -0.341899    47A     -0.318958

  @DF-RHF Final Energy:  -553.62776961543545

   => Energetics <=

    Nuclear Repulsion Energy =            797.7974034089446604
    One-Electron Energy =               -2335.0175978638540073
    Two-Electron Energy =                 983.5924248394737788
    Total Energy =                       -553.6277696154354544
  Basis Set: (AUG-CC-PVTZ AUX)
    Blend: AUG-CC-PVTZ-RI
    Molecular point group: c1

    Geometry (in Angstrom), charge = 0, multiplicity = 1:

       Center              X                  Y                   Z               Mass
    ------------   -----------------  -----------------  -----------------  -----------------
         O            3.085294350719    -0.590834767130    -0.214126672006    15.994914619570
         N            0.864021350719    -0.939914767130     0.197686327994    14.003074004430
         C            0.169374350719     1.707231232870     0.980584327994    12.000000000000
         C            1.134647350719     2.198772232870    -0.108407672006    12.000000000000
         C           -0.870108649281     0.766590232870     0.438698327994    12.000000000000
         C            1.537308350719     1.062654232870    -1.059706672006    12.000000000000
         C           -0.457737649281    -0.454305967130     0.020735227994    12.000000000000
         C            1.916793350719    -0.210875767130    -0.330840672006    12.000000000000
         C           -2.210403649281     1.137528232870     0.290697327994    12.000000000000
         C           -1.447030649281    -1.452464767130    -0.395769672006    12.000000000000
         C            1.170789350719    -2.232937767130     0.805987327994    12.000000000000
         C           -3.166708649281     0.231788232870    -0.171722672006    12.000000000000
         C           -2.782418649281    -1.067142767130    -0.510602672006    12.000000000000
         H           -0.317346649281     2.558544232870     1.469536327994     1.007825032230
         H            0.744879350719     1.179923232870     1.751726327994     1.007825032230
         H            0.666494350719     2.998110232870    -0.695118672006     1.007825032230
         H            2.027847350719     2.625025232870     0.362608327994     1.007825032230
         H            2.408403350719     1.348986232870    -1.654167672006     1.007825032230
         H            0.711159350719     0.850619232870    -1.746941672006     1.007825032230
         H           -2.511875649281     2.144458232870     0.575466327994     1.007825032230
         H           -1.138479649281    -2.454562767130    -0.683515672006     1.007825032230
         H            1.193579350719    -3.036913767130     0.062243327994     1.007825032230
         H            0.413677350719    -2.454868767130     1.559586327994     1.007825032230
         H            2.156030350719    -2.164479767130     1.266412327994     1.007825032230
         H           -4.205718649281     0.537535232870    -0.265973672006     1.007825032230
         H           -3.519952649281    -1.780778767130    -0.869828672006     1.007825032230

  Basis Set: AUG-CC-PVTZ
    Blend: AUG-CC-PVTZ
  Basis Set: (AUG-CC-PVTZ AUX)
    Blend: AUG-CC-PVTZ-JKFIT
	 Reference Energy          =    -553.6277696154354544 [Eh]
	 Singles Energy            =      -0.0000000000000000 [Eh]
	 Same-Spin Energy          =      -0.6037884125087467 [Eh]
	 Opposite-Spin Energy      =      -1.9036579397362616 [Eh]
	 Correlation Energy        =      -2.5074463522450081 [Eh]
	 Total Energy              =    -556.1352159676804376 [Eh]

	 ================> DF-SCS-MP2 Energies <==================
	-----------------------------------------------------------
	 SCS Same-Spin Scale       =       0.3333333333333333 [-]
	 SCS Opposite-Spin Scale   =       1.2000000000000000 [-]
	 SCS Same-Spin Energy      =      -0.2012628041695822 [Eh]
	 SCS Opposite-Spin Energy  =      -2.2843895276835138 [Eh]
	 SCS Correlation Energy    =      -2.4856523318530961 [Eh]
	 SCS Total Energy          =    -556.1134219472885434 [Eh]
	-----------------------------------------------------------

  Dipole Moment: [D]
     X:    -3.2393      Y:     0.5594      Z:     0.2967     Total:     3.3006

*** Psi4 exiting successfully. Buy a developer a beer!
