                               Psi4 1.4a2.dev612

  ==> Input File <==

--------------------------------------------------------------------------
#psi4
#
memory 32 gb

molecule  {
0 1
  O        3.0945450    -0.5978990    -0.2227500
  N        0.8655608    -1.0207915     0.0552900
  C        0.1786250     1.7001670     0.9719610
  C        1.1438980     2.1917080    -0.1170310
  C       -0.8608580     0.7595260     0.4300750
  C        1.5465590     1.0555900    -1.0683300
  C       -0.4811190    -0.5451200     0.0537530
  C        1.9260440    -0.2179400    -0.3394640
  C       -2.2011530     1.1304640     0.2820740
  C       -1.4377800    -1.4595290    -0.4043930
  C        1.1800400    -2.2400020     0.7973640
  C       -3.1574580     0.2247240    -0.1803460
  C       -2.7731680    -1.0742070    -0.5192260
  H       -0.3080960     2.5514800     1.4609130
  H        0.7541300     1.1728590     1.7431030
  H        0.6757450     2.9910460    -0.7037420
  H        2.0370980     2.6179610     0.3539850
  H        2.4176540     1.3419220    -1.6627910
  H        0.7204100     0.8435550    -1.7555650
  H       -2.5026250     2.1373940     0.5668430
  H       -1.1292290    -2.4616270    -0.6921390
  H        1.2028300    -3.0439780     0.0536200
  H        0.4229280    -2.4619330     1.5509630
  H        2.1652810    -2.1715440     1.2577890
  H       -4.1964680     0.5304710    -0.2745970
  H       -3.5107020    -1.7878430    -0.8784520
units angstrom
no_reorient  #important for SAPT in psi4, default
symmetry c1  #important for SAPT in psi4, default
}

set PROPERTIES_ORIGIN ["COM"]
properties('MP2/aug-cc-pvtz', properties = ['dipole'])
--------------------------------------------------------------------------

    Molecular point group: c1
  Charge       = 0
  Multiplicity = 1
  Basis Set: AUG-CC-PVTZ
    Blend: AUG-CC-PVTZ
  Basis Set: (AUG-CC-PVTZ AUX)
    Blend: AUG-CC-PVTZ-JKFIT

    Orbital Energies [Eh]
    ---------------------

    Doubly Occupied:

       1A    -20.518067     2A    -15.593898     3A    -11.348748
       4A    -11.285897     5A    -11.256847     6A    -11.252466
       7A    -11.246106     8A    -11.245240     9A    -11.243266
      10A    -11.242564    11A    -11.240559    12A    -11.239959
      13A    -11.236417    14A     -1.373164    15A     -1.259118
      16A     -1.154111    17A     -1.099896    18A     -1.032059
      19A     -1.019001    20A     -0.977033    21A     -0.924190
      22A     -0.868964    23A     -0.835784    24A     -0.800609
      25A     -0.752112    26A     -0.690472    27A     -0.683311
      28A     -0.666281    29A     -0.653234    30A     -0.625124
      31A     -0.618865    32A     -0.609912    33A     -0.601102
      34A     -0.578039    35A     -0.569899    36A     -0.556600
      37A     -0.534549    38A     -0.523834    39A     -0.517997
      40A     -0.509764    41A     -0.496212    42A     -0.483603
      43A     -0.473565    44A     -0.421504    45A     -0.402157
      46A     -0.341921    47A     -0.319910

  @DF-RHF Final Energy:  -553.63211054641715

   => Energetics <=

    Nuclear Repulsion Energy =            796.5743369866871717
    One-Electron Energy =               -2332.5650356707174069
    Two-Electron Energy =                 982.3585881376129691
    Total Energy =                       -553.6321105464171524
  Basis Set: (AUG-CC-PVTZ AUX)
    Blend: AUG-CC-PVTZ-RI
    Molecular point group: c1

    Geometry (in Angstrom), charge = 0, multiplicity = 1:

       Center              X                  Y                   Z               Mass
    ------------   -----------------  -----------------  -----------------  -----------------
         O            3.088147379389    -0.579192260967    -0.206282341555    15.994914619570
         N            0.859163179389    -1.002084760967     0.071757658445    14.003074004430
         C            0.172227379389     1.718873739033     0.988428658445    12.000000000000
         C            1.137500379389     2.210414739033    -0.100563341555    12.000000000000
         C           -0.867255620611     0.778232739033     0.446542658445    12.000000000000
         C            1.540161379389     1.074296739033    -1.051862341555    12.000000000000
         C           -0.487516620611    -0.526413260967     0.070220658445    12.000000000000
         C            1.919646379389    -0.199233260967    -0.322996341555    12.000000000000
         C           -2.207550620611     1.149170739033     0.298541658445    12.000000000000
         C           -1.444177620611    -1.440822260967    -0.387925341555    12.000000000000
         C            1.173642379389    -2.221295260967     0.813831658445    12.000000000000
         C           -3.163855620611     0.243430739033    -0.163878341555    12.000000000000
         C           -2.779565620611    -1.055500260967    -0.502758341555    12.000000000000
         H           -0.314493620611     2.570186739033     1.477380658445     1.007825032230
         H            0.747732379389     1.191565739033     1.759570658445     1.007825032230
         H            0.669347379389     3.009752739033    -0.687274341555     1.007825032230
         H            2.030700379389     2.636667739033     0.370452658445     1.007825032230
         H            2.411256379389     1.360628739033    -1.646323341555     1.007825032230
         H            0.714012379389     0.862261739033    -1.739097341555     1.007825032230
         H           -2.509022620611     2.156100739033     0.583310658445     1.007825032230
         H           -1.135626620611    -2.442920260967    -0.675671341555     1.007825032230
         H            1.196432379389    -3.025271260967     0.070087658445     1.007825032230
         H            0.416530379389    -2.443226260967     1.567430658445     1.007825032230
         H            2.158883379389    -2.152837260967     1.274256658445     1.007825032230
         H           -4.202865620611     0.549177739033    -0.258129341555     1.007825032230
         H           -3.517099620611    -1.769136260967    -0.861984341555     1.007825032230

  Basis Set: AUG-CC-PVTZ
    Blend: AUG-CC-PVTZ
  Basis Set: (AUG-CC-PVTZ AUX)
    Blend: AUG-CC-PVTZ-JKFIT
	 Reference Energy          =    -553.6321105464171524 [Eh]
	 Singles Energy            =      -0.0000000000000000 [Eh]
	 Same-Spin Energy          =      -0.6034996628608653 [Eh]
	 Opposite-Spin Energy      =      -1.9030265022521644 [Eh]
	 Correlation Energy        =      -2.5065261651130299 [Eh]
	 Total Energy              =    -556.1386367115301255 [Eh]

	 ================> DF-SCS-MP2 Energies <==================
	-----------------------------------------------------------
	 SCS Same-Spin Scale       =       0.3333333333333333 [-]
	 SCS Opposite-Spin Scale   =       1.2000000000000000 [-]
	 SCS Same-Spin Energy      =      -0.2011665542869551 [Eh]
	 SCS Opposite-Spin Energy  =      -2.2836318027025970 [Eh]
	 SCS Correlation Energy    =      -2.4847983569895522 [Eh]
	 SCS Total Energy          =    -556.1169089034067383 [Eh]
	-----------------------------------------------------------

  Dipole Moment: [D]
     X:    -3.2603      Y:     0.6694      Z:     0.4009     Total:     3.3524

*** Psi4 exiting successfully. Buy a developer a beer!
