                               Psi4 1.3.2 release

  ==> Input File <==

--------------------------------------------------------------------------
#psi4
#
memory 32 gb

molecule  {
0 1
  O        3.0945450    -0.5978990    -0.2227500
  N        0.8732720    -0.9469790     0.1890630
  C        0.1786250     1.7001670     0.9719610
  C        1.1438980     2.1917080    -0.1170310
  C       -0.8608580     0.7595260     0.4300750
  C        1.5465590     1.0555900    -1.0683300
  C       -0.4811190    -0.5451200     0.0537530
  C        1.9260440    -0.2179400    -0.3394640
  C       -2.2011530     1.1304640     0.2820740
  C       -1.4377800    -1.4595290    -0.4043930
  C        1.1590504    -2.1515310     0.7557429
  C       -3.1574580     0.2247240    -0.1803460
  C       -2.7731680    -1.0742070    -0.5192260
  H       -0.3080960     2.5514800     1.4609130
  H        0.7541300     1.1728590     1.7431030
  H        0.6757450     2.9910460    -0.7037420
  H        2.0370980     2.6179610     0.3539850
  H        2.4176540     1.3419220    -1.6627910
  H        0.7204100     0.8435550    -1.7555650
  H       -2.5026250     2.1373940     0.5668430
  H       -1.1292290    -2.4616270    -0.6921390
  H        1.2028300    -3.0439780     0.0536200
  H        0.4229280    -2.4619330     1.5509630
  H        2.1652810    -2.1715440     1.2577890
  H       -4.1964680     0.5304710    -0.2745970
  H       -3.5107020    -1.7878430    -0.8784520
units angstrom
no_reorient  #important for SAPT in psi4, default
symmetry c1  #important for SAPT in psi4, default
}

set PROPERTIES_ORIGIN ["COM"]
properties('MP2/aug-cc-pvtz', properties = ['dipole'])
--------------------------------------------------------------------------

    Molecular point group: c1
  Charge       = 0
  Multiplicity = 1
  Basis Set: AUG-CC-PVTZ
    Blend: AUG-CC-PVTZ
  Basis Set: (AUG-CC-PVTZ AUX)
    Blend: AUG-CC-PVTZ-JKFIT

    Orbital Energies [Eh]
    ---------------------

    Doubly Occupied:

       1A    -20.522185     2A    -15.595626     3A    -11.352593
       4A    -11.287409     5A    -11.257017     6A    -11.252135
       7A    -11.247428     8A    -11.246509     9A    -11.246183
      10A    -11.243918    11A    -11.241776    12A    -11.240009
      13A    -11.238572    14A     -1.380521    15A     -1.279458
      16A     -1.158761    17A     -1.102089    18A     -1.034164
      19A     -1.023026    20A     -0.979323    21A     -0.922859
      22A     -0.869655    23A     -0.838851    24A     -0.802165
      25A     -0.758974    26A     -0.699316    27A     -0.688043
      28A     -0.673470    29A     -0.661350    30A     -0.625507
      31A     -0.618946    32A     -0.611446    33A     -0.603856
      34A     -0.579855    35A     -0.578428    36A     -0.541719
      37A     -0.530567    38A     -0.523281    39A     -0.511676
      40A     -0.505027    41A     -0.498289    42A     -0.486633
      43A     -0.474681    44A     -0.423343    45A     -0.401707
      46A     -0.343418    47A     -0.320474

  @DF-RHF Final Energy:  -553.62588185149514

   => Energetics <=

    Nuclear Repulsion Energy =            799.6540438947058647
    One-Electron Energy =               -2338.5153735598523781
    Two-Electron Energy =                 985.2354478136513762
    Total Energy =                       -553.6258818514951372
  Basis Set: (AUG-CC-PVTZ AUX)
    Blend: AUG-CC-PVTZ-RI
    Molecular point group: c1

    Geometry (in Angstrom), charge = 0, multiplicity = 1:

       Center              X                  Y                   Z               Mass
    ------------   -----------------  -----------------  -----------------  -----------------
         O            3.088969166543    -0.591158322199    -0.214128042653    15.994914619570
         N            0.867696166543    -0.940238322199     0.197684957347    14.003074004430
         C            0.173049166543     1.706907677801     0.980582957347    12.000000000000
         C            1.138322166543     2.198448677801    -0.108409042653    12.000000000000
         C           -0.866433833457     0.766266677801     0.438696957347    12.000000000000
         C            1.540983166543     1.062330677801    -1.059708042653    12.000000000000
         C           -0.486694833457    -0.538379322199     0.062374957347    12.000000000000
         C            1.920468166543    -0.211199322199    -0.330842042653    12.000000000000
         C           -2.206728833457     1.137204677801     0.290695957347    12.000000000000
         C           -1.443355833457    -1.452788322199    -0.395771042653    12.000000000000
         C            1.153474566543    -2.144790322199     0.764364857347    12.000000000000
         C           -3.163033833457     0.231464677801    -0.171724042653    12.000000000000
         C           -2.778743833457    -1.067466322199    -0.510604042653    12.000000000000
         H           -0.313671833457     2.558220677801     1.469534957347     1.007825032230
         H            0.748554166543     1.179599677801     1.751724957347     1.007825032230
         H            0.670169166543     2.997786677801    -0.695120042653     1.007825032230
         H            2.031522166543     2.624701677801     0.362606957347     1.007825032230
         H            2.412078166543     1.348662677801    -1.654169042653     1.007825032230
         H            0.714834166543     0.850295677801    -1.746943042653     1.007825032230
         H           -2.508200833457     2.144134677801     0.575464957347     1.007825032230
         H           -1.134804833457    -2.454886322199    -0.683517042653     1.007825032230
         H            1.197254166543    -3.037237322199     0.062241957347     1.007825032230
         H            0.417352166543    -2.455192322199     1.559584957347     1.007825032230
         H            2.159705166543    -2.164803322199     1.266410957347     1.007825032230
         H           -4.202043833457     0.537211677801    -0.265975042653     1.007825032230
         H           -3.516277833457    -1.781102322199    -0.869830042653     1.007825032230

  Basis Set: AUG-CC-PVTZ
    Blend: AUG-CC-PVTZ
  Basis Set: (AUG-CC-PVTZ AUX)
    Blend: AUG-CC-PVTZ-JKFIT
	 Reference Energy          =    -553.6258818514951372 [Eh]
	 Singles Energy            =      -0.0000000000000000 [Eh]
	 Same-Spin Energy          =      -0.6045916979666069 [Eh]
	 Opposite-Spin Energy      =      -1.9036034228497578 [Eh]
	 Correlation Energy        =      -2.5081951208163646 [Eh]
	 Total Energy              =    -556.1340769723115045 [Eh]

	 ================> DF-SCS-MP2 Energies <==================
	-----------------------------------------------------------
	 SCS Same-Spin Scale       =       0.3333333333333333 [-]
	 SCS Opposite-Spin Scale   =       1.2000000000000000 [-]
	 SCS Same-Spin Energy      =      -0.2015305659888690 [Eh]
	 SCS Opposite-Spin Energy  =      -2.2843241074197094 [Eh]
	 SCS Correlation Energy    =      -2.4858546734085785 [Eh]
	 SCS Total Energy          =    -556.1117365249036766 [Eh]
	-----------------------------------------------------------

  Dipole Moment: [D]
     X:    -3.2790      Y:     0.8596      Z:     0.1727     Total:     3.3942

*** Psi4 exiting successfully. Buy a developer a beer!
*** Psi4 exiting successfully. Buy a developer a beer!
