                               Psi4 1.3.2 release

  ==> Input File <==

--------------------------------------------------------------------------
#psi4
#
memory 32 gb

molecule  {
0 1
  O        3.0945450    -0.5978990    -0.2227500
  N        0.8732720    -0.9469790     0.1890630
  C        0.1786250     1.7001670     0.9719610
  C        1.1438980     2.1917080    -0.1170310
  C       -0.8608580     0.7595260     0.4300750
  C        1.5465590     1.0555900    -1.0683300
  C       -0.4811190    -0.5451200     0.0537530
  C        1.9849469    -0.2895778    -0.3121059
  C       -2.2011530     1.1304640     0.2820740
  C       -1.4377800    -1.4595290    -0.4043930
  C        1.1800400    -2.2400020     0.7973640
  C       -3.1574580     0.2247240    -0.1803460
  C       -2.7731680    -1.0742070    -0.5192260
  H       -0.3080960     2.5514800     1.4609130
  H        0.7541300     1.1728590     1.7431030
  H        0.6757450     2.9910460    -0.7037420
  H        2.0370980     2.6179610     0.3539850
  H        2.4176540     1.3419220    -1.6627910
  H        0.7204100     0.8435550    -1.7555650
  H       -2.5026250     2.1373940     0.5668430
  H       -1.1292290    -2.4616270    -0.6921390
  H        1.2028300    -3.0439780     0.0536200
  H        0.4229280    -2.4619330     1.5509630
  H        2.1652810    -2.1715440     1.2577890
  H       -4.1964680     0.5304710    -0.2745970
  H       -3.5107020    -1.7878430    -0.8784520
units angstrom
no_reorient  #important for SAPT in psi4, default
symmetry c1  #important for SAPT in psi4, default
}

set PROPERTIES_ORIGIN ["COM"]
properties('MP2/aug-cc-pvtz', properties = ['dipole'])
--------------------------------------------------------------------------

    Molecular point group: c1
  Charge       = 0
  Multiplicity = 1
  Basis Set: AUG-CC-PVTZ
    Blend: AUG-CC-PVTZ
  Basis Set: (AUG-CC-PVTZ AUX)
    Blend: AUG-CC-PVTZ-JKFIT

    Orbital Energies [Eh]
    ---------------------

    Doubly Occupied:

       1A    -20.530269     2A    -15.588496     3A    -11.345130
       4A    -11.285726     5A    -11.255772     6A    -11.248156
       7A    -11.244824     8A    -11.243635     9A    -11.243306
      10A    -11.240889    11A    -11.235281    12A    -11.234425
      13A    -11.230398    14A     -1.427017    15A     -1.266376
      16A     -1.152914    17A     -1.091410    18A     -1.023641
      19A     -1.018752    20A     -0.968190    21A     -0.919854
      22A     -0.862937    23A     -0.836417    24A     -0.795053
      25A     -0.753592    26A     -0.689036    27A     -0.683451
      28A     -0.672720    29A     -0.655035    30A     -0.626002
      31A     -0.621964    32A     -0.613350    33A     -0.594866
      34A     -0.581094    35A     -0.572124    36A     -0.555854
      37A     -0.546599    38A     -0.524566    39A     -0.518065
      40A     -0.509539    41A     -0.497909    42A     -0.479597
      43A     -0.476616    44A     -0.413503    45A     -0.404496
      46A     -0.340663    47A     -0.317351

  @DF-RHF Final Energy:  -553.62925977290615

   => Energetics <=

    Nuclear Repulsion Energy =            797.0929916999205034
    One-Electron Energy =               -2333.5707821755850091
    Two-Electron Energy =                 982.8485307027583531
    Total Energy =                       -553.6292597729061526
  Basis Set: (AUG-CC-PVTZ AUX)
    Blend: AUG-CC-PVTZ-RI
    Molecular point group: c1

    Geometry (in Angstrom), charge = 0, multiplicity = 1:

       Center              X                  Y                   Z               Mass
    ------------   -----------------  -----------------  -----------------  -----------------
         O            3.083493943438    -0.580185685204    -0.218855351344    15.994914619570
         N            0.862220943438    -0.929265685204     0.192957648656    14.003074004430
         C            0.167573943438     1.717880314796     0.975855648656    12.000000000000
         C            1.132846943438     2.209421314796    -0.113136351344    12.000000000000
         C           -0.871909056562     0.777239314796     0.433969648656    12.000000000000
         C            1.535507943438     1.073303314796    -1.064435351344    12.000000000000
         C           -0.492170056562    -0.527406685204     0.057647648656    12.000000000000
         C            1.973895843438    -0.271864485204    -0.308211251344    12.000000000000
         C           -2.212204056562     1.148177314796     0.285968648656    12.000000000000
         C           -1.448831056562    -1.441815685204    -0.400498351344    12.000000000000
         C            1.168988943438    -2.222288685204     0.801258648656    12.000000000000
         C           -3.168509056562     0.242437314796    -0.176451351344    12.000000000000
         C           -2.784219056562    -1.056493685204    -0.515331351344    12.000000000000
         H           -0.319147056562     2.569193314796     1.464807648656     1.007825032230
         H            0.743078943438     1.190572314796     1.746997648656     1.007825032230
         H            0.664693943438     3.008759314796    -0.699847351344     1.007825032230
         H            2.026046943438     2.635674314796     0.357879648656     1.007825032230
         H            2.406602943438     1.359635314796    -1.658896351344     1.007825032230
         H            0.709358943438     0.861268314796    -1.751670351344     1.007825032230
         H           -2.513676056562     2.155107314796     0.570737648656     1.007825032230
         H           -1.140280056562    -2.443913685204    -0.688244351344     1.007825032230
         H            1.191778943438    -3.026264685204     0.057514648656     1.007825032230
         H            0.411876943438    -2.444219685204     1.554857648656     1.007825032230
         H            2.154229943438    -2.153830685204     1.261683648656     1.007825032230
         H           -4.207519056562     0.548184314796    -0.270702351344     1.007825032230
         H           -3.521753056562    -1.770129685204    -0.874557351344     1.007825032230

  Basis Set: AUG-CC-PVTZ
    Blend: AUG-CC-PVTZ
  Basis Set: (AUG-CC-PVTZ AUX)
    Blend: AUG-CC-PVTZ-JKFIT
	 Reference Energy          =    -553.6292597729061526 [Eh]
	 Singles Energy            =      -0.0000000000000000 [Eh]
	 Same-Spin Energy          =      -0.6017267880958499 [Eh]
	 Opposite-Spin Energy      =      -1.8994240811575671 [Eh]
	 Correlation Energy        =      -2.5011508692534168 [Eh]
	 Total Energy              =    -556.1304106421595179 [Eh]

	 ================> DF-SCS-MP2 Energies <==================
	-----------------------------------------------------------
	 SCS Same-Spin Scale       =       0.3333333333333333 [-]
	 SCS Opposite-Spin Scale   =       1.2000000000000000 [-]
	 SCS Same-Spin Energy      =      -0.2005755960319500 [Eh]
	 SCS Opposite-Spin Energy  =      -2.2793088973890803 [Eh]
	 SCS Correlation Energy    =      -2.4798844934210305 [Eh]
	 SCS Total Energy          =    -556.1091442663272346 [Eh]
	-----------------------------------------------------------

  Dipole Moment: [D]
     X:    -2.7663      Y:     0.3035      Z:     0.3436     Total:     2.8040

*** Psi4 exiting successfully. Buy a developer a beer!
