                               Psi4 1.4a3.dev225

  ==> Input File <==

--------------------------------------------------------------------------
#psi4
#
memory 32 gb

molecule  {
0 1
  O        3.0945450    -0.5978990    -0.2227500
  N        0.8732720    -0.9469790     0.1890630
  C        0.1786250     1.7001670     0.9719610
  C        1.1438980     2.1917080    -0.1170310
  C       -0.8608580     0.7595260     0.4300750
  C        1.5465590     1.0555900    -1.0683300
  C       -0.4811190    -0.5451200     0.0537530
  C        1.9449785    -0.2240969    -0.3375728
  C       -2.2011530     1.1304640     0.2820740
  C       -1.4377800    -1.4595290    -0.4043930
  C        1.1800400    -2.2400020     0.7973640
  C       -3.1574580     0.2247240    -0.1803460
  C       -2.7731680    -1.0742070    -0.5192260
  H       -0.3080960     2.5514800     1.4609130
  H        0.7541300     1.1728590     1.7431030
  H        0.6757450     2.9910460    -0.7037420
  H        2.0370980     2.6179610     0.3539850
  H        2.4176540     1.3419220    -1.6627910
  H        0.7204100     0.8435550    -1.7555650
  H       -2.5026250     2.1373940     0.5668430
  H       -1.1292290    -2.4616270    -0.6921390
  H        1.2028300    -3.0439780     0.0536200
  H        0.4229280    -2.4619330     1.5509630
  H        2.1652810    -2.1715440     1.2577890
  H       -4.1964680     0.5304710    -0.2745970
  H       -3.5107020    -1.7878430    -0.8784520
units angstrom
no_reorient  #important for SAPT in psi4, default
symmetry c1  #important for SAPT in psi4, default
}

set PROPERTIES_ORIGIN ["COM"]
properties('MP2/aug-cc-pvtz', properties = ['dipole'])
--------------------------------------------------------------------------

    Molecular point group: c1
  Charge       = 0
  Multiplicity = 1
  Basis Set: AUG-CC-PVTZ
    Blend: AUG-CC-PVTZ
  Basis Set: (AUG-CC-PVTZ AUX)
    Blend: AUG-CC-PVTZ-JKFIT

    Orbital Energies [Eh]
    ---------------------

    Doubly Occupied:

       1A    -20.522631     2A    -15.591016     3A    -11.349609
       4A    -11.284834     5A    -11.256309     6A    -11.249016
       7A    -11.245327     8A    -11.244396     9A    -11.243824
      10A    -11.241406    11A    -11.239561    12A    -11.237615
      13A    -11.236155    14A     -1.386238    15A     -1.260597
      16A     -1.152455    17A     -1.097982    18A     -1.030827
      19A     -1.017936    20A     -0.974685    21A     -0.923155
      22A     -0.866969    23A     -0.836313    24A     -0.797955
      25A     -0.753507    26A     -0.689406    27A     -0.684177
      28A     -0.669469    29A     -0.653513    30A     -0.622906
      31A     -0.619372    32A     -0.610751    33A     -0.596938
      34A     -0.578263    35A     -0.573551    36A     -0.554001
      37A     -0.537381    38A     -0.523441    39A     -0.518112
      40A     -0.508479    41A     -0.497085    42A     -0.484102
      43A     -0.475452    44A     -0.421334    45A     -0.405351
      46A     -0.341499    47A     -0.317384

  @DF-RHF Final Energy:  -553.63760208894223

   => Energetics <=

    Nuclear Repulsion Energy =            797.0796213469103577
    One-Electron Energy =               -2333.5898798413072655
    Two-Electron Energy =                 982.8726564054547907
    Total Energy =                       -553.6376020889422307
  Basis Set: (AUG-CC-PVTZ AUX)
    Blend: AUG-CC-PVTZ-RI
    Molecular point group: c1

    Geometry (in Angstrom), charge = 0, multiplicity = 1:

       Center              X                  Y                   Z               Mass
    ------------   -----------------  -----------------  -----------------  -----------------
         O            3.086233072983    -0.584673247073    -0.217110044097    15.994914619570
         N            0.864960072983    -0.933753247073     0.194702955903    14.003074004430
         C            0.170313072983     1.713392752927     0.977600955903    12.000000000000
         C            1.135586072983     2.204933752927    -0.111391044097    12.000000000000
         C           -0.869169927017     0.772751752927     0.435714955903    12.000000000000
         C            1.538247072983     1.068815752927    -1.062690044097    12.000000000000
         C           -0.489430927017    -0.531894247073     0.059392955903    12.000000000000
         C            1.936666572983    -0.210871147073    -0.331932844097    12.000000000000
         C           -2.209464927017     1.143689752927     0.287713955903    12.000000000000
         C           -1.446091927017    -1.446303247073    -0.398753044097    12.000000000000
         C            1.171728072983    -2.226776247073     0.803003955903    12.000000000000
         C           -3.165769927017     0.237949752927    -0.174706044097    12.000000000000
         C           -2.781479927017    -1.060981247073    -0.513586044097    12.000000000000
         H           -0.316407927017     2.564705752927     1.466552955903     1.007825032230
         H            0.745818072983     1.186084752927     1.748742955903     1.007825032230
         H            0.667433072983     3.004271752927    -0.698102044097     1.007825032230
         H            2.028786072983     2.631186752927     0.359624955903     1.007825032230
         H            2.409342072983     1.355147752927    -1.657151044097     1.007825032230
         H            0.712098072983     0.856780752927    -1.749925044097     1.007825032230
         H           -2.510936927017     2.150619752927     0.572482955903     1.007825032230
         H           -1.137540927017    -2.448401247073    -0.686499044097     1.007825032230
         H            1.194518072983    -3.030752247073     0.059259955903     1.007825032230
         H            0.414616072983    -2.448707247073     1.556602955903     1.007825032230
         H            2.156969072983    -2.158318247073     1.263428955903     1.007825032230
         H           -4.204779927017     0.543696752927    -0.268957044097     1.007825032230
         H           -3.519013927017    -1.774617247073    -0.872812044097     1.007825032230

  Basis Set: AUG-CC-PVTZ
    Blend: AUG-CC-PVTZ
  Basis Set: (AUG-CC-PVTZ AUX)
    Blend: AUG-CC-PVTZ-JKFIT
	 Reference Energy          =    -553.6376020889422307 [Eh]
	 Singles Energy            =      -0.0000000000000000 [Eh]
	 Same-Spin Energy          =      -0.6031398268055577 [Eh]
	 Opposite-Spin Energy      =      -1.9019463539771255 [Eh]
	 Correlation Energy        =      -2.5050861807826834 [Eh]
	 Total Energy              =    -556.1426882697248857 [Eh]

	 ================> DF-SCS-MP2 Energies <==================
	-----------------------------------------------------------
	 SCS Same-Spin Scale       =       0.3333333333333333 [-]
	 SCS Opposite-Spin Scale   =       1.2000000000000000 [-]
	 SCS Same-Spin Energy      =      -0.2010466089351859 [Eh]
	 SCS Opposite-Spin Energy  =      -2.2823356247725504 [Eh]
	 SCS Correlation Energy    =      -2.4833822337077360 [Eh]
	 SCS Total Energy          =    -556.1209843226499743 [Eh]
	-----------------------------------------------------------

  Dipole Moment: [D]
     X:    -3.0465      Y:     0.5723      Z:     0.2521     Total:     3.1100

*** Psi4 exiting successfully. Buy a developer a beer!
