                               Psi4 1.3.2 release

  ==> Input File <==

--------------------------------------------------------------------------
#psi4
#
memory 32 gb

molecule  {
0 1
  O        3.0945450    -0.5978990    -0.2227500
  N        0.8732720    -0.9469790     0.1890630
  C        0.1786250     1.7001670     0.9719610
  C        1.1438980     2.1917080    -0.1170310
  C       -0.8608580     0.7595260     0.4300750
  C        1.5465590     1.0555900    -1.0683300
  C       -0.4811190    -0.5451200     0.0537530
  C        1.9105051    -0.2005722    -0.3459061
  C       -2.2011530     1.1304640     0.2820740
  C       -1.4377800    -1.4595290    -0.4043930
  C        1.1800400    -2.2400020     0.7973640
  C       -3.1574580     0.2247240    -0.1803460
  C       -2.7731680    -1.0742070    -0.5192260
  H       -0.3080960     2.5514800     1.4609130
  H        0.7541300     1.1728590     1.7431030
  H        0.6757450     2.9910460    -0.7037420
  H        2.0370980     2.6179610     0.3539850
  H        2.4176540     1.3419220    -1.6627910
  H        0.7204100     0.8435550    -1.7555650
  H       -2.5026250     2.1373940     0.5668430
  H       -1.1292290    -2.4616270    -0.6921390
  H        1.2028300    -3.0439780     0.0536200
  H        0.4229280    -2.4619330     1.5509630
  H        2.1652810    -2.1715440     1.2577890
  H       -4.1964680     0.5304710    -0.2745970
  H       -3.5107020    -1.7878430    -0.8784520
units angstrom
no_reorient  #important for SAPT in psi4, default
symmetry c1  #important for SAPT in psi4, default
}

set PROPERTIES_ORIGIN ["COM"]
properties('MP2/aug-cc-pvtz', properties = ['dipole'])
--------------------------------------------------------------------------

    Molecular point group: c1
  Charge       = 0
  Multiplicity = 1
  Basis Set: AUG-CC-PVTZ
    Blend: AUG-CC-PVTZ
  Basis Set: (AUG-CC-PVTZ AUX)
    Blend: AUG-CC-PVTZ-JKFIT

    Orbital Energies [Eh]
    ---------------------

    Doubly Occupied:

       1A    -20.515380     2A    -15.595474     3A    -11.351124
       4A    -11.285606     5A    -11.257996     6A    -11.250581
       7A    -11.246536     8A    -11.245698     9A    -11.245100
      10A    -11.242703    11A    -11.241501    12A    -11.239135
      13A    -11.237533    14A     -1.362528    15A     -1.258938
      16A     -1.153747    17A     -1.101624    18A     -1.034623
      19A     -1.019030    20A     -0.978963    21A     -0.926780
      22A     -0.869693    23A     -0.837832    24A     -0.800135
      25A     -0.754668    26A     -0.691332    27A     -0.684769
      28A     -0.669056    29A     -0.654168    30A     -0.623799
      31A     -0.616229    32A     -0.609430    33A     -0.598111
      34A     -0.578709    35A     -0.571453    36A     -0.554572
      37A     -0.534836    38A     -0.524481    39A     -0.516141
      40A     -0.507948    41A     -0.495792    42A     -0.486602
      43A     -0.472006    44A     -0.420835    45A     -0.403729
      46A     -0.342762    47A     -0.318880

  @DF-RHF Final Energy:  -553.63387880382345

   => Energetics <=

    Nuclear Repulsion Energy =            797.2735097179876220
    One-Electron Energy =               -2333.9576425130435382
    Two-Electron Energy =                 983.0502539912325801
    Total Energy =                       -553.6338788038234497
  Basis Set: (AUG-CC-PVTZ AUX)
    Blend: AUG-CC-PVTZ-RI
    Molecular point group: c1

    Geometry (in Angstrom), charge = 0, multiplicity = 1:

       Center              X                  Y                   Z               Mass
    ------------   -----------------  -----------------  -----------------  -----------------
         O            3.088595617104    -0.586285450734    -0.216538943221    15.994914619570
         N            0.867322617104    -0.935365450734     0.195274056779    14.003074004430
         C            0.172675617104     1.711780549266     0.978172056779    12.000000000000
         C            1.137948617104     2.203321549266    -0.110819943221    12.000000000000
         C           -0.866807382896     0.771139549266     0.436286056779    12.000000000000
         C            1.540609617104     1.067203549266    -1.062118943221    12.000000000000
         C           -0.487068382896    -0.533506450734     0.059964056779    12.000000000000
         C            1.904555717104    -0.188958650734    -0.339695043221    12.000000000000
         C           -2.207102382896     1.142077549266     0.288285056779    12.000000000000
         C           -1.443729382896    -1.447915450734    -0.398181943221    12.000000000000
         C            1.174090617104    -2.228388450734     0.803575056779    12.000000000000
         C           -3.163407382896     0.236337549266    -0.174134943221    12.000000000000
         C           -2.779117382896    -1.062593450734    -0.513014943221    12.000000000000
         H           -0.314045382896     2.563093549266     1.467124056779     1.007825032230
         H            0.748180617104     1.184472549266     1.749314056779     1.007825032230
         H            0.669795617104     3.002659549266    -0.697530943221     1.007825032230
         H            2.031148617104     2.629574549266     0.360196056779     1.007825032230
         H            2.411704617104     1.353535549266    -1.656579943221     1.007825032230
         H            0.714460617104     0.855168549266    -1.749353943221     1.007825032230
         H           -2.508574382896     2.149007549266     0.573054056779     1.007825032230
         H           -1.135178382896    -2.450013450734    -0.685927943221     1.007825032230
         H            1.196880617104    -3.032364450734     0.059831056779     1.007825032230
         H            0.416978617104    -2.450319450734     1.557174056779     1.007825032230
         H            2.159331617104    -2.159930450734     1.264000056779     1.007825032230
         H           -4.202417382896     0.542084549266    -0.268385943221     1.007825032230
         H           -3.516651382896    -1.776229450734    -0.872240943221     1.007825032230

  Basis Set: AUG-CC-PVTZ
    Blend: AUG-CC-PVTZ
  Basis Set: (AUG-CC-PVTZ AUX)
    Blend: AUG-CC-PVTZ-JKFIT
	 Reference Energy          =    -553.6338788038234497 [Eh]
	 Singles Energy            =      -0.0000000000000000 [Eh]
	 Same-Spin Energy          =      -0.6041997446105170 [Eh]
	 Opposite-Spin Energy      =      -1.9039194628449785 [Eh]
	 Correlation Energy        =      -2.5081192074554952 [Eh]
	 Total Energy              =    -556.1419980112789290 [Eh]

	 ================> DF-SCS-MP2 Energies <==================
	-----------------------------------------------------------
	 SCS Same-Spin Scale       =       0.3333333333333333 [-]
	 SCS Opposite-Spin Scale   =       1.2000000000000000 [-]
	 SCS Same-Spin Energy      =      -0.2013999148701723 [Eh]
	 SCS Opposite-Spin Energy  =      -2.2847033554139742 [Eh]
	 SCS Correlation Energy    =      -2.4861032702841466 [Eh]
	 SCS Total Energy          =    -556.1199820741076110 [Eh]
	-----------------------------------------------------------

  Dipole Moment: [D]
     X:    -3.3371      Y:     0.6389      Z:     0.2569     Total:     3.4074

*** Psi4 exiting successfully. Buy a developer a beer!
