                               Psi4 1.4a2.dev612

  ==> Input File <==

--------------------------------------------------------------------------
#psi4
#
memory 32 gb

molecule  {
0 1
  O        3.0945450    -0.5978990    -0.2227500
  N        0.8765945    -0.9254874     0.2352097
  C        0.1786250     1.7001670     0.9719610
  C        1.1438980     2.1917080    -0.1170310
  C       -0.8608580     0.7595260     0.4300750
  C        1.5465590     1.0555900    -1.0683300
  C       -0.4811190    -0.5451200     0.0537530
  C        1.9260440    -0.2179400    -0.3394640
  C       -2.2011530     1.1304640     0.2820740
  C       -1.4377800    -1.4595290    -0.4043930
  C        1.1800400    -2.2400020     0.7973640
  C       -3.1574580     0.2247240    -0.1803460
  C       -2.7731680    -1.0742070    -0.5192260
  H       -0.3080960     2.5514800     1.4609130
  H        0.7541300     1.1728590     1.7431030
  H        0.6757450     2.9910460    -0.7037420
  H        2.0370980     2.6179610     0.3539850
  H        2.4176540     1.3419220    -1.6627910
  H        0.7204100     0.8435550    -1.7555650
  H       -2.5026250     2.1373940     0.5668430
  H       -1.1292290    -2.4616270    -0.6921390
  H        1.2028300    -3.0439780     0.0536200
  H        0.4229280    -2.4619330     1.5509630
  H        2.1652810    -2.1715440     1.2577890
  H       -4.1964680     0.5304710    -0.2745970
  H       -3.5107020    -1.7878430    -0.8784520
units angstrom
no_reorient  #important for SAPT in psi4, default
symmetry c1  #important for SAPT in psi4, default
}

set PROPERTIES_ORIGIN ["COM"]
properties('MP2/aug-cc-pvtz', properties = ['dipole'])
--------------------------------------------------------------------------

    Molecular point group: c1
  Charge       = 0
  Multiplicity = 1
  Basis Set: AUG-CC-PVTZ
    Blend: AUG-CC-PVTZ
  Basis Set: (AUG-CC-PVTZ AUX)
    Blend: AUG-CC-PVTZ-JKFIT

    Orbital Energies [Eh]
    ---------------------

    Doubly Occupied:

       1A    -20.519875     2A    -15.593774     3A    -11.350812
       4A    -11.285229     5A    -11.257022     6A    -11.249280
       7A    -11.246371     8A    -11.245157     9A    -11.244792
      10A    -11.242171    11A    -11.240316    12A    -11.237638
      13A    -11.237096    14A     -1.374379    15A     -1.260544
      16A     -1.153182    17A     -1.099194    18A     -1.032320
      19A     -1.018515    20A     -0.976212    21A     -0.925167
      22A     -0.867274    23A     -0.837595    24A     -0.798227
      25A     -0.754336    26A     -0.690011    27A     -0.684420
      28A     -0.670048    29A     -0.653929    30A     -0.623037
      31A     -0.617369    32A     -0.610293    33A     -0.595858
      34A     -0.578460    35A     -0.572983    36A     -0.553245
      37A     -0.535903    38A     -0.523237    39A     -0.517092
      40A     -0.507679    41A     -0.496398    42A     -0.485695
      43A     -0.474054    44A     -0.420963    45A     -0.406141
      46A     -0.342369    47A     -0.318562

  @DF-RHF Final Energy:  -553.63575161227266

   => Energetics <=

    Nuclear Repulsion Energy =            797.2172182528521489
    One-Electron Energy =               -2333.8574950581783014
    Two-Electron Energy =                 983.0045251930536097
    Total Energy =                       -553.6357516122726565
  Basis Set: (AUG-CC-PVTZ AUX)
    Blend: AUG-CC-PVTZ-RI
    Molecular point group: c1

    Geometry (in Angstrom), charge = 0, multiplicity = 1:

       Center              X                  Y                   Z               Mass
    ------------   -----------------  -----------------  -----------------  -----------------
         O            3.087264992353    -0.586813920274    -0.220670879467    15.994914619570
         N            0.869314492353    -0.914402320274     0.237288820533    14.003074004430
         C            0.171344992353     1.711252079726     0.974040120533    12.000000000000
         C            1.136617992353     2.202793079726    -0.114951879467    12.000000000000
         C           -0.868138007647     0.770611079726     0.432154120533    12.000000000000
         C            1.539278992353     1.066675079726    -1.066250879467    12.000000000000
         C           -0.488399007647    -0.534034920274     0.055832120533    12.000000000000
         C            1.918763992353    -0.206854920274    -0.337384879467    12.000000000000
         C           -2.208433007647     1.141549079726     0.284153120533    12.000000000000
         C           -1.445060007647    -1.448443920274    -0.402313879467    12.000000000000
         C            1.172759992353    -2.228916920274     0.799443120533    12.000000000000
         C           -3.164738007647     0.235809079726    -0.178266879467    12.000000000000
         C           -2.780448007647    -1.063121920274    -0.517146879467    12.000000000000
         H           -0.315376007647     2.562565079726     1.462992120533     1.007825032230
         H            0.746849992353     1.183944079726     1.745182120533     1.007825032230
         H  920274    -0.690059879467     1.007825032230
         H            1.195549992353    -3.032892920274     0.055699120533     1.007825032230
         H            0.415647992353    -2.450847920274     1.553042120533     1.007825032230
         H            2.158000992353    -2.160458920274     1.259868120533     1.007825032230
         H           -4.203748007647     0.541556079726    -0.272517879467     1.007825032230
         H           -3.517982007647    -1.776757920274    -0.876372879467     1.007825032230

  Basis Set: AUG-CC-PVTZ
    Blend: AUG-CC-PVTZ
  Basis Set: (AUG-CC-PVTZ AUX)
    Blend: AUG-CC-PVTZ-JKFIT
	 Reference Energy          =    -553.6357516132311503 [Eh]
	 Singles Energy            =      -0.0000000000000000 [Eh]
	 Same-Spin Energy          =      -0.6036750746513162 [Eh]
	 Opposite-Spin Energy      =      -1.9030595145545453 [Eh]
	 Correlation Energy        =      -2.5067345892058617 [Eh]
	 Total Energy              =    -556.1424862024369986 [Eh]

	 ================> DF-SCS-MP2 Energies <==================
	-----------------------------------------------------------
	 SCS Same-Spin Scale       =       0.3333333333333333 [-]
	 SCS Opposite-Spin Scale   =       1.2000000000000000 [-]
	 SCS Same-Spin Energy      =      -0.2012250248837721 [Eh]
	 SCS Opposite-Spin Energy  =      -2.2836714174654542 [Eh]
	 SCS Correlation Energy    =      -2.4848964423492261 [Eh]
	 SCS Total Energy          =    -556.1206480555804319 [Eh]
	-----------------------------------------------------------

  Dipole Moment: [D]
     X:    -3.1790      Y:     0.5776      Z:     0.2089     Total:     3.2378

*** Psi4 exiting successfully. Buy a developer a beer!
*** Psi4 exiting successfully. Buy a developer a beer!
