                               Psi4 1.3.2 release

  ==> Input File <==

--------------------------------------------------------------------------
#psi4
#
memory 32 gb

molecule  {
0 1
  O        3.0945450    -0.5978990    -0.2227500
  N        0.8732720    -0.9469790     0.1890630
  C        0.1786250     1.7001670     0.9719610
  C        1.1438980     2.1917080    -0.1170310
  C       -0.8608580     0.7595260     0.4300750
  C        1.5465590     1.0555900    -1.0683300
  C       -0.6719837    -0.4884889     0.0346847
  C        1.9260440    -0.2179400    -0.3394640
  C       -2.2011530     1.1304640     0.2820740
  C       -1.4377800    -1.4595290    -0.4043930
  C        1.1800400    -2.2400020     0.7973640
  C       -3.1574580     0.2247240    -0.1803460
  C       -2.7731680    -1.0742070    -0.5192260
  H       -0.3080960     2.5514800     1.4609130
  H        0.7541300     1.1728590     1.7431030
  H        0.6757450     2.9910460    -0.7037420
  H        2.0370980     2.6179610     0.3539850
  H        2.4176540     1.3419220    -1.6627910
  H        0.7204100     0.8435550    -1.7555650
  H       -2.5026250     2.1373940     0.5668430
  H       -1.1292290    -2.4616270    -0.6921390
  H        1.2028300    -3.0439780     0.0536200
  H        0.4229280    -2.4619330     1.5509630
  H        2.1652810    -2.1715440     1.2577890
  H       -4.1964680     0.5304710    -0.2745970
  H       -3.5107020    -1.7878430    -0.8784520
units angstrom
no_reorient  #important for SAPT in psi4, default
symmetry c1  #important for SAPT in psi4, default
}

set PROPERTIES_ORIGIN ["COM"]
properties('MP2/aug-cc-pvtz', properties = ['dipole'])
--------------------------------------------------------------------------

    Molecular point group: c1
  Charge       = 0
  Multiplicity = 1
  Basis Set: AUG-CC-PVTZ
    Blend: AUG-CC-PVTZ
  Basis Set: (AUG-CC-PVTZ AUX)
    Blend: AUG-CC-PVTZ-JKFIT

    Orbital Energies [Eh]
    ---------------------

    Doubly Occupied:

       1A    -20.505380     2A    -15.576875     3A    -11.336953
       4A    -11.285598     5A    -11.252855     6A    -11.252228
       7A    -11.249296     8A    -11.247349     9A    -11.246989
      10A    -11.245095    11A    -11.244445    12A    -11.240061
      13A    -11.232010    14A     -1.358926    15A     -1.230849
      16A     -1.168738    17A     -1.103375    18A     -1.043393
      19A     -1.030145    20A     -0.972645    21A     -0.919724
      22A     -0.859089    23A     -0.846018    24A     -0.804433
      25A     -0.740175    26A     -0.695617    27A     -0.674849
      28A     -0.666720    29A     -0.643017    30A     -0.627545
      31A     -0.621067    32A     -0.611492    33A     -0.591484
      34A     -0.578115    35A     -0.568644    36A     -0.549147
      37A     -0.538359    38A     -0.528149    39A     -0.521803
      40A     -0.503384    41A     -0.493347    42A     -0.479211
      43A     -0.470457    44A     -0.407154    45A     -0.389629
      46A     -0.351787    47A     -0.338343

  @DF-RHF Final Energy:  -553.59717767948553

   => Energetics <=

    Nuclear Repulsion Energy =            796.9384266488365256
    One-Electron Energy =               -2333.3872878946190212
    Two-Electron Energy =                 982.8516835662970834
    Total Energy =                       -553.5971776794855259
  Basis Set: (AUG-CC-PVTZ AUX)
    Blend: AUG-CC-PVTZ-RI
    Molecular point group: c1

    Geometry (in Angstrom), charge = 0, multiplicity = 1:

       Center              X                  Y                   Z               Mass
    ------------   -----------------  -----------------  -----------------  -----------------
         O            3.100611111313    -0.588976258098    -0.215673639695    15.994914619570
         N            0.879338111313    -0.938056258098     0.196139360305    14.003074004430
         C            0.184691111313     1.709089741902     0.979037360305    12.000000000000
         C            1.149964111313     2.200630741902    -0.109954639695    12.000000000000
         C           -0.854791888687     0.768448741902     0.437151360305    12.000000000000
         C            1.552625111313     1.064512741902    -1.061253639695    12.000000000000
         C           -0.665917588687    -0.479566158098     0.041761060305    12.000000000000
         C            1.932110111313    -0.209017258098    -0.332387639695    12.000000000000
         C           -2.195086888687     1.139386741902     0.289150360305    12.000000000000
         C           -1.431713888687    -1.450606258098    -0.397316639695    12.000000000000
         C            1.186106111313    -2.231079258098     0.804440360305    12.000000000000
         C           -3.151391888687     0.233646741902    -0.173269639695    12.000000000000
         C           -2.767101888687    -1.065284258098    -0.512149639695    12.000000000000
         H           -0.302029888687     2.560402741902     1.467989360305     1.007825032230
         H            0.760196111313     1.181781741902     1.750179360305     1.007825032230
         H            0.681811111313     2.999968741902    -0.696665639695     1.007825032230
         H            2.043164111313     2.626883741902     0.361061360305     1.007825032230
         H            2.423720111313     1.350844741902    -1.655714639695     1.007825032230
         H            0.726476111313     0.852477741902    -1.748488639695     1.007825032230
         H           -2.496558888687     2.146316741902     0.573919360305     1.007825032230
         H           -1.123162888687    -2.452704258098    -0.685062639695     1.007825032230
         H            1.208896111313    -3.035055258098     0.060696360305     1.007825032230
         H            0.428994111313    -2.453010258098     1.558039360305     1.007825032230
         H            2.171347111313    -2.162621258098     1.264865360305     1.007825032230
         H           -4.190401888687     0.539393741902    -0.267520639695     1.007825032230
         H           -3.504635888687    -1.778920258098    -0.871375639695     1.007825032230

  Basis Set: AUG-CC-PVTZ
    Blend: AUG-CC-PVTZ
  Basis Set: (AUG-CC-PVTZ AUX)
    Blend: AUG-CC-PVTZ-JKFIT
	 Reference Energy          =    -553.5971776794855259 [Eh]
	 Singles Energy            =      -0.0000000000000000 [Eh]
	 Same-Spin Energy          =      -0.6036361192068106 [Eh]
	 Opposite-Spin Energy      =      -1.9037999621594788 [Eh]
	 Correlation Energy        =      -2.5074360813662895 [Eh]
	 Total Energy              =    -556.1046137608518620 [Eh]

	 ================> DF-SCS-MP2 Energies <==================
	-----------------------------------------------------------
	 SCS Same-Spin Scale       =       0.3333333333333333 [-]
	 SCS Opposite-Spin Scale   =       1.2000000000000000 [-]
	 SCS Same-Spin Energy      =      -0.2012120397356035 [Eh]
	 SCS Opposite-Spin Energy  =      -2.2845599545913746 [Eh]
	 SCS Correlation Energy    =      -2.4857719943269783 [Eh]
	 SCS Total Energy          =    -556.0829496738125499 [Eh]
	-----------------------------------------------------------

  Dipole Moment: [D]
     X:    -4.1796      Y:     0.7861      Z:     0.2452     Total:     4.2600

*** Psi4 exiting successfully. Buy a developer a beer!
