                               Psi4 1.4a3.dev225

  ==> Input File <==

--------------------------------------------------------------------------
#psi4
#
memory 32 gb

molecule  {
0 1
  O        3.0945450    -0.5978990    -0.2227500
  N        0.8732720    -0.9469790     0.1890630
  C        0.1786250     1.7001670     0.9719610
  C        1.1438980     2.1917080    -0.1170310
  C       -0.8608580     0.7595260     0.4300750
  C        1.5465590     1.0555900    -1.0683300
  C       -0.4811190    -0.5451200     0.0537530
  C        1.9071095    -0.2117831    -0.3413552
  C       -2.2011530     1.1304640     0.2820740
  C       -1.4377800    -1.4595290    -0.4043930
  C        1.1800400    -2.2400020     0.7973640
  C       -3.1574580     0.2247240    -0.1803460
  C       -2.7731680    -1.0742070    -0.5192260
  H       -0.3080960     2.5514800     1.4609130
  H        0.7541300     1.1728590     1.7431030
  H        0.6757450     2.9910460    -0.7037420
  H        2.0370980     2.6179610     0.3539850
  H        2.4176540     1.3419220    -1.6627910
  H        0.7204100     0.8435550    -1.7555650
  H       -2.5026250     2.1373940     0.5668430
  H       -1.1292290    -2.4616270    -0.6921390
  H        1.2028300    -3.0439780     0.0536200
  H        0.4229280    -2.4619330     1.5509630
  H        2.1652810    -2.1715440     1.2577890
  H       -4.1964680     0.5304710    -0.2745970
  H       -3.5107020    -1.7878430    -0.8784520
units angstrom
no_reorient  #important for SAPT in psi4, default
symmetry c1  #important for SAPT in psi4, default
}

set PROPERTIES_ORIGIN ["COM"]
properties('MP2/aug-cc-pvtz', properties = ['dipole'])
--------------------------------------------------------------------------

    Molecular point group: c1
  Charge       = 0
  Multiplicity = 1
  Basis Set: AUG-CC-PVTZ
    Blend: AUG-CC-PVTZ
  Basis Set: (AUG-CC-PVTZ AUX)
    Blend: AUG-CC-PVTZ-JKFIT

    Orbital Energies [Eh]
    ---------------------

    Doubly Occupied:

       1A    -20.514094     2A    -15.596625     3A    -11.349894
       4A    -11.286300     5A    -11.258562     6A    -11.251097
       7A    -11.246991     8A    -11.246025     9A    -11.245676
      10A    -11.243205    11A    -11.240777    12A    -11.239055
      13A    -11.237023    14A     -1.362921    15A     -1.260972
      16A     -1.154624    17A     -1.100690    18A     -1.033678
      19A     -1.019926    20A     -0.978952    21A     -0.927527
      22A     -0.869419    23A     -0.838869    24A     -0.800296
      25A     -0.755278    26A     -0.691471    27A     -0.684185
      28A     -0.669334    29A     -0.654510    30A     -0.624009
      31A     -0.616625    32A     -0.609176    33A     -0.598733
      34A     -0.578795    35A     -0.570293    36A     -0.555120
      37A     -0.534626    38A     -0.524178    39A     -0.516565
      40A     -0.508544    41A     -0.495825    42A     -0.486347
      43A     -0.472083    44A     -0.419216    45A     -0.404128
      46A     -0.343129    47A     -0.319762

  @DF-RHF Final Energy:  -553.63461350634964

   => Energetics <=

    Nuclear Repulsion Energy =            797.3506031307425701
    One-Electron Energy =               -2334.1001704634354610
    Two-Electron Energy =                 983.1149538263433669
    Total Energy =                       -553.6346135063496376
  Basis Set: (AUG-CC-PVTZ AUX)
    Blend: AUG-CC-PVTZ-RI
    Molecular point group: c1

    Geometry (in Angstrom), charge = 0, multiplicity = 1:

       Center              X                  Y                   Z               Mass
    ------------   -----------------  -----------------  -----------------  -----------------
         O            3.088828325651    -0.585517141084    -0.216850827226    15.994914619570
         N            0.867555325651    -0.934597141084     0.194962172774    14.003074004430
         C            0.172908325651     1.712548858916     0.977860172774    12.000000000000
         C            1.138181325651     2.204089858916    -0.111131827226    12.000000000000
         C           -0.866574674349     0.771907858916     0.435974172774    12.000000000000
         C            1.540842325651     1.067971858916    -1.062430827226    12.000000000000
         C           -0.486835674349    -0.532738141084     0.059652172774    12.000000000000
         C            1.901392825651    -0.199401241084    -0.335456027226    12.000000000000
         C           -2.206869674349     1.142845858916     0.287973172774    12.000000000000
         C           -1.443496674349    -1.447147141084    -0.398493827226    12.000000000000
         C            1.174323325651    -2.227620141084     0.803263172774    12.000000000000
         C           -3.163174674349     0.237105858916    -0.174446827226    12.000000000000
         C           -2.778884674349    -1.061825141084    -0.513326827226    12.000000000000
         H           -0.313812674349     2.563861858916     1.466812172774     1.007825032230
         H            0.748413325651     1.185240858916     1.749002172774     1.007825032230
         H            0.670028325651     3.003427858916    -0.697842827226     1.007825032230
         H            2.031381325651     2.630342858916     0.359884172774     1.007825032230
         H            2.411937325651     1.354303858916    -1.656891827226     1.007825032230
         H            0.714693325651     0.855936858916    -1.749665827226     1.007825032230
         H           -2.508341674349     2.149775858916     0.572742172774     1.007825032230
         H           -1.134945674349    -2.449245141084    -0.686239827226     1.007825032230
         H            1.197113325651    -3.031596141084     0.059519172774     1.007825032230
         H            0.417211325651    -2.449551141084     1.556862172774     1.007825032230
         H            2.159564325651    -2.159162141084     1.263688172774     1.007825032230
         H           -4.202184674349     0.542852858916    -0.268697827226     1.007825032230
         H           -3.516418674349    -1.775461141084    -0.872552827226     1.007825032230

  Basis Set: AUG-CC-PVTZ
    Blend: AUG-CC-PVTZ
  Basis Set: (AUG-CC-PVTZ AUX)
    Blend: AUG-CC-PVTZ-JKFIT
	 Reference Energy          =    -553.6346135063496376 [Eh]
	 Singles Energy            =      -0.0000000000000000 [Eh]
	 Same-Spin Energy          =      -0.6040419460162327 [Eh]
	 Opposite-Spin Energy      =      -1.9036754234834445 [Eh]
	 Correlation Energy        =      -2.5077173694996775 [Eh]
	 Total Energy              =    -556.1423308758493249 [Eh]

	 ================> DF-SCS-MP2 Energies <==================
	-----------------------------------------------------------
	 SCS Same-Spin Scale       =       0.3333333333333333 [-]
	 SCS Opposite-Spin Scale   =       1.2000000000000000 [-]
	 SCS Same-Spin Energy      =      -0.2013473153387442 [Eh]
	 SCS Opposite-Spin Energy  =      -2.2844105081801334 [Eh]
	 SCS Correlation Energy    =      -2.4857578235188775 [Eh]
	 SCS Total Energy          =    -556.1203713298684761 [Eh]
	-----------------------------------------------------------

  Dipole Moment: [D]
     X:    -3.4001      Y:     0.5926      Z:     0.2857     Total:     3.4632

*** Psi4 exiting successfully. Buy a developer a beer!
