                               Psi4 1.3.2 release

  ==> Input File <==

--------------------------------------------------------------------------
#psi4
#
memory 32 gb

molecule  {
0 1
  O        3.0945450    -0.5978990    -0.2227500
  N        0.8732720    -0.9469790     0.1890630
  C        0.1786250     1.7001670     0.9719610
  C        1.1438980     2.1917080    -0.1170310
  C       -0.8608580     0.7595260     0.4300750
  C        1.5465590     1.0555900    -1.0683300
  C       -0.4735739    -0.5239829     0.0432729
  C        1.9260440    -0.2179400    -0.3394640
  C       -2.2011530     1.1304640     0.2820740
  C       -1.4377800    -1.4595290    -0.4043930
  C        1.1800400    -2.2400020     0.7973640
  C       -3.1574580     0.2247240    -0.1803460
  C       -2.7731680    -1.0742070    -0.5192260
  H       -0.3080960     2.5514800     1.4609130
  H        0.7541300     1.1728590     1.7431030
  H        0.6757450     2.9910460    -0.7037420
  H        2.0370980     2.6179610     0.3539850
  H        2.4176540     1.3419220    -1.6627910
  H        0.7204100     0.8435550    -1.7555650
  H       -2.5026250     2.1373940     0.5668430
  H       -1.1292290    -2.4616270    -0.6921390
  H        1.2028300    -3.0439780     0.0536200
  H        0.4229280    -2.4619330     1.5509630
  H        2.1652810    -2.1715440     1.2577890
  H       -4.1964680     0.5304710    -0.2745970
  H       -3.5107020    -1.7878430    -0.8784520
units angstrom
no_reorient  #important for SAPT in psi4, default
symmetry c1  #important for SAPT in psi4, default
}

set PROPERTIES_ORIGIN ["COM"]
properties('MP2/aug-cc-pvtz', properties = ['dipole'])
--------------------------------------------------------------------------

    Molecular point group: c1
  Charge       = 0
  Multiplicity = 1
  Basis Set: AUG-CC-PVTZ
    Blend: AUG-CC-PVTZ
  Basis Set: (AUG-CC-PVTZ AUX)
    Blend: AUG-CC-PVTZ-JKFIT

    Orbital Energies [Eh]
    ---------------------

    Doubly Occupied:

       1A    -20.517976     2A    -15.593856     3A    -11.349142
       4A    -11.285482     5A    -11.258058     6A    -11.248526
       7A    -11.246931     8A    -11.245544     9A    -11.245324
      10A    -11.242358    11A    -11.240116    12A    -11.238069
      13A    -11.236498    14A     -1.373572    15A     -1.261295
      16A     -1.153869    17A     -1.099136    18A     -1.032897
      19A     -1.017398    20A     -0.977384    21A     -0.925281
      22A     -0.867655    23A     -0.838537    24A     -0.799299
      25A     -0.753091    26A     -0.690430    27A     -0.684347
      28A     -0.668959    29A     -0.654761    30A     -0.622967
      31A     -0.617437    32A     -0.609693    33A     -0.597631
      34A     -0.578406    35A     -0.572917    36A     -0.554436
      37A     -0.535525    38A     -0.523575    39A     -0.516764
      40A     -0.510095    41A     -0.496182    42A     -0.485377
      43A     -0.473381    44A     -0.420329    45A     -0.404685
      46A     -0.341976    47A     -0.318903

  @DF-RHF Final Energy:  -553.63611084572449

   => Energetics <=

    Nuclear Repulsion Energy =            797.3609593092540990
    One-Electron Energy =               -2334.1419953565446122
    Two-Electron Energy =                 983.1449252015659113
    Total Energy =                       -553.6361108457244882
  Basis Set: (AUG-CC-PVTZ AUX)
    Blend: AUG-CC-PVTZ-RI
    Molecular point group: c1

    Geometry (in Angstrom), charge = 0, multiplicity = 1:

       Center              X                  Y                   Z               Mass
    ------------   -----------------  -----------------  -----------------  -----------------
         O            3.087013615663    -0.586543769831    -0.216262209474    15.994914619570
         N            0.865740615663    -0.935623769831     0.195550790526    14.003074004430
         C            0.171093615663     1.711522230169     0.978448790526    12.000000000000
         C            1.136366615663     2.203063230169    -0.110543209474    12.000000000000
         C           -0.868389384337     0.770881230169     0.436562790526    12.000000000000
         C            1.539027615663     1.066945230169    -1.061842209474    12.000000000000
         C           -0.481105284337    -0.512627669831     0.049760690526    12.000000000000
         C            1.918512615663    -0.206584769831    -0.332976209474    12.000000000000
         C           -2.208684384337     1.141819230169     0.288561790526    12.000000000000
         C           -1.445311384337    -1.448173769831    -0.397905209474    12.000000000000
         C            1.172508615663    -2.228646769831     0.803851790526    12.000000000000
         C           -3.164989384337     0.236079230169    -0.173858209474    12.000000000000
         C           -2.780699384337    -1.062851769831    -0.512738209474    12.000000000000
         H           -0.315627384337     2.562835230169     1.467400790526     1.007825032230
         H            0.746598615663     1.184214230169     1.749590790526     1.007825032230
         H            0.668213615663     3.002401230169    -0.697254209474     1.007825032230
         H            2.029566615663     2.629316230169     0.360472790526     1.007825032230
         H            2.410122615663     1.353277230169    -1.656303209474     1.007825032230
         H            0.712878615663     0.854910230169    -1.749077209474     1.007825032230
         H           -2.510156384337     2.148749230169     0.573330790526     1.007825032230
         H           -1.136760384337    -2.450271769831    -0.685651209474     1.007825032230
         H            1.195298615663    -3.032622769831     0.060107790526     1.007825032230
         H            0.415396615663    -2.450577769831     1.557450790526     1.007825032230
         H            2.157749615663    -2.160188769831     1.264276790526     1.007825032230
         H           -4.203999384337     0.541826230169    -0.268109209474     1.007825032230
         H           -3.518233384337    -1.776487769831    -0.871964209474     1.007825032230

  Basis Set: AUG-CC-PVTZ
    Blend: AUG-CC-PVTZ
  Basis Set: (AUG-CC-PVTZ AUX)
    Blend: AUG-CC-PVTZ-JKFIT
	 Reference Energy          =    -553.6361108457244882 [Eh]
	 Singles Energy            =      -0.0000000000000000 [Eh]
	 Same-Spin Energy          =      -0.6036286152228133 [Eh]
	 Opposite-Spin Energy      =      -1.9028894225493107 [Eh]
	 Correlation Energy        =      -2.5065180377721239 [Eh]
	 Total Energy              =    -556.1426288834966272 [Eh]

	 ================> DF-SCS-MP2 Energies <==================
	-----------------------------------------------------------
	 SCS Same-Spin Scale       =       0.3333333333333333 [-]
	 SCS Opposite-Spin Scale   =       1.2000000000000000 [-]
	 SCS Same-Spin Energy      =      -0.2012095384076044 [Eh]
	 SCS Opposite-Spin Energy  =      -2.2834673070591727 [Eh]
	 SCS Correlation Energy    =      -2.4846768454667769 [Eh]
	 SCS Total Energy          =    -556.1207876911912535 [Eh]
	-----------------------------------------------------------

  Dipole Moment: [D]
     X:    -3.2283      Y:     0.5767      Z:     0.2760     Total:     3.2910

*** Psi4 exiting successfully. Buy a developer a beer!
