                               Psi4 1.3.2 release

  ==> Input File <==

--------------------------------------------------------------------------
#psi4
#
memory 32 gb

molecule  {
0 1
  O        3.0945450    -0.5978990    -0.2227500
  N        0.8732720    -0.9469790     0.1890630
  C        0.1786250     1.7001670     0.9719610
  C        1.1438980     2.1917080    -0.1170310
  C       -0.8608580     0.7595260     0.4300750
  C        1.5465590     1.0555900    -1.0683300
  C       -0.4811190    -0.5451200     0.0537530
  C        1.9260440    -0.2179400    -0.3394640
  C       -2.2011530     1.1304640     0.2820740
  C       -1.4377800    -1.4595290    -0.4043930
  C        1.2220193    -2.4169440     0.8806062
  C       -3.1574580     0.2247240    -0.1803460
  C       -2.7731680    -1.0742070    -0.5192260
  H       -0.3080960     2.5514800     1.4609130
  H        0.7541300     1.1728590     1.7431030
  H        0.6757450     2.9910460    -0.7037420
  H        2.0370980     2.6179610     0.3539850
  H        2.4176540     1.3419220    -1.6627910
  H        0.7204100     0.8435550    -1.7555650
  H       -2.5026250     2.1373940     0.5668430
  H       -1.1292290    -2.4616270    -0.6921390
  H        1.2028300    -3.0439780     0.0536200
  H        0.4229280    -2.4619330     1.5509630
  H        2.1652810    -2.1715440     1.2577890
  H       -4.1964680     0.5304710    -0.2745970
  H       -3.5107020    -1.7878430    -0.8784520
units angstrom
no_reorient  #important for SAPT in psi4, default
symmetry c1  #important for SAPT in psi4, default
}

set PROPERTIES_ORIGIN ["COM"]
properties('MP2/aug-cc-pvtz', properties = ['dipole'])
--------------------------------------------------------------------------

    Molecular point group: c1
  Charge       = 0
  Multiplicity = 1
  Basis Set: AUG-CC-PVTZ
    Blend: AUG-CC-PVTZ
  Basis Set: (AUG-CC-PVTZ AUX)
    Blend: AUG-CC-PVTZ-JKFIT

    Orbital Energies [Eh]
    ---------------------

    Doubly Occupied:

       1A    -20.512132     2A    -15.585789     3A    -11.344330
       4A    -11.281822     5A    -11.269186     6A    -11.246077
       7A    -11.243790     8A    -11.242652     9A    -11.241673
      10A    -11.239122    11A    -11.237115    12A    -11.235196
      13A    -11.232838    14A     -1.364883    15A     -1.237540
      16A     -1.144613    17A     -1.094310    18A     -1.028700
      19A     -1.012745    20A     -0.978080    21A     -0.930623
      22A     -0.865023    23A     -0.834286    24A     -0.793927
      25A     -0.746610    26A     -0.682027    27A     -0.677242
      28A     -0.664856    29A     -0.642700    30A     -0.627209
      31A     -0.623037    32A     -0.609791    33A     -0.593261
      34A     -0.587637    35A     -0.575700    36A     -0.546674
      37A     -0.542095    38A     -0.521897    39A     -0.516166
      40A     -0.503773    41A     -0.492569    42A     -0.476673
      43A     -0.471343    44A     -0.416052    45A     -0.401110
      46A     -0.339924    47A     -0.313334

  @DF-RHF Final Energy:  -553.60995476277253

   => Energetics <=

    Nuclear Repulsion Energy =            792.7215749327223193
    One-Electron Energy =               -2325.1267922439119502
    Two-Electron Energy =                 978.7952625484169857
    Total Energy =                       -553.6099547627725315
  Basis Set: (AUG-CC-PVTZ AUX)
    Blend: AUG-CC-PVTZ-RI
    Molecular point group: c1

    Geometry (in Angstrom), charge = 0, multiplicity = 1:

       Center              X                  Y                   Z               Mass
    ------------   -----------------  -----------------  -----------------  -----------------
         O            3.084653758011    -0.572968937839    -0.222685221677    15.994914619570
         N            0.863380758011    -0.922048937839     0.189127778323    14.003074004430
         C            0.168733758011     1.725097062161     0.972025778323    12.000000000000
         C            1.134006758011     2.216638062161    -0.116966221677    12.000000000000
         C           -0.870749241989     0.784456062161     0.430139778323    12.000000000000
         C            1.536667758011     1.080520062161    -1.068265221677    12.000000000000
         C           -0.491010241989    -0.520189937839     0.053817778323    12.000000000000
         C            1.916152758011    -0.193009937839    -0.339399221677    12.000000000000
         C           -2.211044241989     1.155394062161     0.282138778323    12.000000000000
         C           -1.447671241989    -1.434598937839    -0.404328221677    12.000000000000
         C            1.212128058011    -2.392013937839     0.880670978323    12.000000000000
         C           -3.167349241989     0.249654062161    -0.180281221677    12.000000000000
         C           -2.783059241989    -1.049276937839    -0.519161221677    12.000000000000
         H           -0.317987241989     2.576410062161     1.460977778323     1.007825032230
         H            0.744238758011     1.197789062161     1.743167778323     1.007825032230
         H            0.665853758011     3.015976062161    -0.703677221677     1.007825032230
         H            2.027206758011     2.642891062161     0.354049778323     1.007825032230
         H            2.407762758011     1.366852062161    -1.662726221677     1.007825032230
         H            0.710518758011     0.868485062161    -1.755500221677     1.007825032230
         H           -2.512516241989     2.162324062161     0.566907778323     1.007825032230
         H           -1.139120241989    -2.436696937839    -0.692074221677     1.007825032230
         H            1.192938758011    -3.019047937839     0.053684778323     1.007825032230
         H            0.413036758011    -2.437002937839     1.551027778323     1.007825032230
         H            2.155389758011    -2.146613937839     1.257853778323     1.007825032230
         H           -4.206359241989     0.555401062161    -0.274532221677     1.007825032230
         H           -3.520593241989    -1.762912937839    -0.878387221677     1.007825032230

  Basis Set: AUG-CC-PVTZ
    Blend: AUG-CC-PVTZ
  Basis Set: (AUG-CC-PVTZ AUX)
    Blend: AUG-CC-PVTZ-JKFIT
	 Reference Energy          =    -553.6099547627725315 [Eh]
	 Singles Energy            =      -0.0000000000000000 [Eh]
	 Same-Spin Energy          =      -0.6036794181815326 [Eh]
	 Opposite-Spin Energy      =      -1.9045247562085070 [Eh]
	 Correlation Energy        =      -2.5082041743900394 [Eh]
	 Total Energy              =    -556.1181589371625478 [Eh]

	 ================> DF-SCS-MP2 Energies <==================
	-----------------------------------------------------------
	 SCS Same-Spin Scale       =       0.3333333333333333 [-]
	 SCS Opposite-Spin Scale   =       1.2000000000000000 [-]
	 SCS Same-Spin Energy      =      -0.2012264727271775 [Eh]
	 SCS Opposite-Spin Energy  =      -2.2854297074502083 [Eh]
	 SCS Correlation Energy    =      -2.4866561801773859 [Eh]
	 SCS Total Energy          =    -556.0966109429499511 [Eh]
	-----------------------------------------------------------

  Dipole Moment: [D]
     X:    -3.1314      Y:     0.1497      Z:     0.4414     Total:     3.1659

*** Psi4 exiting successfully. Buy a developer a beer!
