                               Psi4 1.3.2 release

  ==> Input File <==

--------------------------------------------------------------------------
#psi4
#
memory 32 gb

molecule  {
0 1
  O        3.0945450    -0.5978990    -0.2227500
  N        0.8732720    -0.9469790     0.1890630
  C        0.1786250     1.7001670     0.9719610
  C        1.1438980     2.1917080    -0.1170310
  C       -0.8608580     0.7595260     0.4300750
  C        1.5465590     1.0555900    -1.0683300
  C       -0.4297450    -0.4203574    -0.0083979
  C        1.9260440    -0.2179400    -0.3394640
  C       -2.2011530     1.1304640     0.2820740
  C       -1.4377800    -1.4595290    -0.4043930
  C        1.1800400    -2.2400020     0.7973640
  C       -3.1574580     0.2247240    -0.1803460
  C       -2.7731680    -1.0742070    -0.5192260
  H       -0.3080960     2.5514800     1.4609130
  H        0.7541300     1.1728590     1.7431030
  H        0.6757450     2.9910460    -0.7037420
  H        2.0370980     2.6179610     0.3539850
  H        2.4176540     1.3419220    -1.6627910
  H        0.7204100     0.8435550    -1.7555650
  H       -2.5026250     2.1373940     0.5668430
  H       -1.1292290    -2.4616270    -0.6921390
  H        1.2028300    -3.0439780     0.0536200
  H        0.4229280    -2.4619330     1.5509630
  H        2.1652810    -2.1715440     1.2577890
  H       -4.1964680     0.5304710    -0.2745970
  H       -3.5107020    -1.7878430    -0.8784520
units angstrom
no_reorient  #important for SAPT in psi4, default
symmetry c1  #important for SAPT in psi4, default
}

set PROPERTIES_ORIGIN ["COM"]
properties('MP2/aug-cc-pvtz', properties = ['dipole'])
--------------------------------------------------------------------------

    Molecular point group: c1
  Charge       = 0
  Multiplicity = 1
  Basis Set: AUG-CC-PVTZ
    Blend: AUG-CC-PVTZ
  Basis Set: (AUG-CC-PVTZ AUX)
    Blend: AUG-CC-PVTZ-JKFIT

    Orbital Energies [Eh]
    ---------------------

    Doubly Occupied:

       1A    -20.515927     2A    -15.593840     3A    -11.345966
       4A    -11.284903     5A    -11.261299     6A    -11.253683
       7A    -11.246499     8A    -11.245144     9A    -11.243351
      10A    -11.240932    11A    -11.239963    12A    -11.236648
      13A    -11.236035    14A     -1.372372    15A     -1.261596
      16A     -1.155929    17A     -1.098579    18A     -1.037072
      19A     -1.009689    20A     -0.979507    21A     -0.925366
      22A     -0.864241    23A     -0.843455    24A     -0.799158
      25A     -0.746600    26A     -0.691748    27A     -0.684713
      28A     -0.668202    29A     -0.658561    30A     -0.621570
      31A     -0.616714    32A     -0.607001    33A     -0.594313
      34A     -0.580989    35A     -0.573981    36A     -0.553887
      37A     -0.534645    38A     -0.523774    39A     -0.519179
      40A     -0.509212    41A     -0.494444    42A     -0.485805
      43A     -0.468713    44A     -0.419161    45A     -0.402814
      46A     -0.342508    47A     -0.318344

  @DF-RHF Final Energy:  -553.61701909761985

   => Energetics <=

    Nuclear Repulsion Energy =            798.0729963534573699
    One-Electron Energy =               -2335.5639728822002326
    Two-Electron Energy =                 983.8739574311231308
    Total Energy =                       -553.6170190976198455
  Basis Set: (AUG-CC-PVTZ AUX)
    Blend: AUG-CC-PVTZ-RI
    Molecular point group: c1

    Geometry (in Angstrom), charge = 0, multiplicity = 1:

       Center              X                  Y                   Z               Mass
    ------------   -----------------  -----------------  -----------------  -----------------
         O            3.084009916868    -0.593645471892    -0.212721086615    15.994914619570
         N            0.862736916868    -0.942725471892     0.199091913385    14.003074004430
         C            0.168089916868     1.704420528108     0.981989913385    12.000000000000
         C            1.133362916868     2.195961528108    -0.107002086615    12.000000000000
         C           -0.871393083132     0.763779528108     0.440103913385    12.000000000000
         C            1.536023916868     1.059843528108    -1.058301086615    12.000000000000
         C           -0.440280083132    -0.416103871892     0.001631013385    12.000000000000
         C            1.915508916868    -0.213686471892    -0.329435086615    12.000000000000
         C           -2.211688083132     1.134717528108     0.292102913385    12.000000000000
         C           -1.448315083132    -1.455275471892    -0.394364086615    12.000000000000
         C            1.169504916868    -2.235748471892     0.807392913385    12.000000000000
         C           -3.167993083132     0.228977528108    -0.170317086615    12.000000000000
         C           -2.783703083132    -1.069953471892    -0.509197086615    12.000000000000
         H           -0.318631083132     2.555733528108     1.470941913385     1.007825032230
         H            0.743594916868     1.177112528108     1.753131913385     1.007825032230
         H            0.665209916868     2.995299528108    -0.693713086615     1.007825032230
         H            2.026562916868     2.622214528108     0.364013913385     1.007825032230
         H            2.407118916868     1.346175528108    -1.652762086615     1.007825032230
         H            0.709874916868     0.847808528108    -1.745536086615     1.007825032230
         H           -2.513160083132     2.141647528108     0.576871913385     1.007825032230
         H           -1.139764083132    -2.457373471892    -0.682110086615     1.007825032230
         H            1.192294916868    -3.039724471892     0.063648913385     1.007825032230
         H            0.412392916868    -2.457679471892     1.560991913385     1.007825032230
         H            2.154745916868    -2.167290471892     1.267817913385     1.007825032230
         H           -4.207003083132     0.534724528108    -0.264568086615     1.007825032230
         H           -3.521237083132    -1.783589471892    -0.868423086615     1.007825032230

  Basis Set: AUG-CC-PVTZ
    Blend: AUG-CC-PVTZ
  Basis Set: (AUG-CC-PVTZ AUX)
    Blend: AUG-CC-PVTZ-JKFIT
	 Reference Energy          =    -553.6170190976198455 [Eh]
	 Singles Energy            =      -0.0000000000000000 [Eh]
	 Same-Spin Energy          =      -0.6039429429785399 [Eh]
	 Opposite-Spin Energy      =      -1.9045679774161797 [Eh]
	 Correlation Energy        =      -2.5085109203947198 [Eh]
	 Total Energy              =    -556.1255300180146151 [Eh]

	 ================> DF-SCS-MP2 Energies <==================
	-----------------------------------------------------------
	 SCS Same-Spin Scale       =       0.3333333333333333 [-]
	 SCS Opposite-Spin Scale   =       1.2000000000000000 [-]
	 SCS Same-Spin Energy      =      -0.2013143143261800 [Eh]
	 SCS Opposite-Spin Energy  =      -2.2854815728994153 [Eh]
	 SCS Correlation Energy    =      -2.4867958872255951 [Eh]
	 SCS Total Energy          =    -556.1038149848454850 [Eh]
	-----------------------------------------------------------

  Dipole Moment: [D]
     X:    -3.2490      Y:     0.5509      Z:     0.3100     Total:     3.3099

*** Psi4 exiting successfully. Buy a developer a beer!
