                               Psi4 1.3.2 release

  ==> Input File <==

--------------------------------------------------------------------------
#psi4
#
memory 32 gb

molecule  {
0 1
  O        3.0945450    -0.5978990    -0.2227500
  N        0.8732720    -0.9469790     0.1890630
  C        0.1786250     1.7001670     0.9719610
  C        1.1438980     2.1917080    -0.1170310
  C       -0.8608580     0.7595260     0.4300750
  C        1.5465590     1.0555900    -1.0683300
  C       -0.4811190    -0.5451200     0.0537530
  C        1.9260440    -0.2179400    -0.3394640
  C       -2.2011530     1.1304640     0.2820740
  C       -1.4377800    -1.4595290    -0.4043930
  C        1.2010296    -2.3284730     0.8389851
  C       -3.1574580     0.2247240    -0.1803460
  C       -2.7731680    -1.0742070    -0.5192260
  H       -0.3080960     2.5514800     1.4609130
  H        0.7541300     1.1728590     1.7431030
  H        0.6757450     2.9910460    -0.7037420
  H        2.0370980     2.6179610     0.3539850
  H        2.4176540     1.3419220    -1.6627910
  H        0.7204100     0.8435550    -1.7555650
  H       -2.5026250     2.1373940     0.5668430
  H       -1.1292290    -2.4616270    -0.6921390
  H        1.2028300    -3.0439780     0.0536200
  H        0.4229280    -2.4619330     1.5509630
  H        2.1652810    -2.1715440     1.2577890
  H       -4.1964680     0.5304710    -0.2745970
  H       -3.5107020    -1.7878430    -0.8784520
units angstrom
no_reorient  #important for SAPT in psi4, default
symmetry c1  #important for SAPT in psi4, default
}

set PROPERTIES_ORIGIN ["COM"]
properties('MP2/aug-cc-pvtz', properties = ['dipole'])
--------------------------------------------------------------------------

    Molecular point group: c1
  Charge       = 0
  Multiplicity = 1
  Basis Set: AUG-CC-PVTZ
    Blend: AUG-CC-PVTZ
  Basis Set: (AUG-CC-PVTZ AUX)
    Blend: AUG-CC-PVTZ-JKFIT

    Orbital Energies [Eh]
    ---------------------

    Doubly Occupied:

       1A    -20.515105     2A    -15.590559     3A    -11.347095
       4A    -11.283758     5A    -11.261452     6A    -11.248088
       7A    -11.244988     8A    -11.243964     9A    -11.243279
      10A    -11.240746    11A    -11.238655    12A    -11.236774
      13A    -11.234743    14A     -1.368902    15A     -1.247774
      16A     -1.148867    17A     -1.096776    18A     -1.030483
      19A     -1.015603    20A     -0.976449    21A     -0.928325
      22A     -0.866730    23A     -0.836058    24A     -0.796437
      25A     -0.750274    26A     -0.685111    27A     -0.680469
      28A     -0.666575    29A     -0.646659    30A     -0.622715
      31A     -0.619650    32A     -0.610334    33A     -0.594653
      34A     -0.578900    35A     -0.571568    36A     -0.560195
      37A     -0.540251    38A     -0.523390    39A     -0.517687
      40A     -0.507117    41A     -0.494614    42A     -0.482137
      43A     -0.472765    44A     -0.418346    45A     -0.404157
      46A     -0.341174    47A     -0.316182

  @DF-RHF Final Energy:  -553.62910248896537

   => Energetics <=

    Nuclear Repulsion Energy =            794.9130298133484303
    One-Electron Energy =               -2329.3912033064611933
    Two-Electron Energy =                 980.8490710041473903
    Total Energy =                       -553.6291024889653727
  Basis Set: (AUG-CC-PVTZ AUX)
    Blend: AUG-CC-PVTZ-RI
    Molecular point group: c1

    Geometry (in Angstrom), charge = 0, multiplicity = 1:

       Center              X                  Y                   Z               Mass
    ------------   -----------------  -----------------  -----------------  -----------------
         O            3.086092232091    -0.579032065959    -0.219832828669    15.994914619570
         N            0.864819232091    -0.928112065959     0.191980171331    14.003074004430
         C            0.170172232091     1.719033934041     0.974878171331    12.000000000000
         C            1.135445232091     2.210574934041    -0.114113828669    12.000000000000
         C           -0.869310767909     0.778392934041     0.432992171331    12.000000000000
         C            1.538106232091     1.074456934041    -1.065412828669    12.000000000000
         C           -0.489571767909    -0.526253065959     0.056670171331    12.000000000000
         C            1.917591232091    -0.199073065959    -0.336546828669    12.000000000000
         C           -2.209605767909     1.149330934041     0.284991171331    12.000000000000
         C           -1.446232767909    -1.440662065959    -0.401475828669    12.000000000000
         C            1.192576832091    -2.309606065959     0.841902271331    12.000000000000
         C           -3.165910767909     0.243590934041    -0.177428828669    12.000000000000
         C           -2.781620767909    -1.055340065959    -0.516308828669    12.000000000000
         H           -0.316548767909     2.570346934041     1.463830171331     1.007825032230
         H            0.745677232091     1.191725934041     1.746020171331     1.007825032230
         H            0.667292232091     3.009912934041    -0.700824828669     1.007825032230
         H            2.028645232091     2.636827934041     0.356902171331     1.007825032230
         H            2.409201232091     1.360788934041    -1.659873828669     1.007825032230
         H            0.711957232091     0.862421934041    -1.752647828669     1.007825032230
         H           -2.511077767909     2.156260934041     0.569760171331     1.007825032230
         H           -1.137681767909    -2.442760065959    -0.689221828669     1.007825032230
         H            1.194377232091    -3.025111065959     0.056537171331     1.007825032230
         H            0.414475232091    -2.443066065959     1.553880171331     1.007825032230
         H            2.156828232091    -2.152677065959     1.260706171331     1.007825032230
         H           -4.204920767909     0.549337934041    -0.271679828669     1.007825032230
         H           -3.519154767909    -1.768976065959    -0.875534828669     1.007825032230

  Basis Set: AUG-CC-PVTZ
    Blend: AUG-CC-PVTZ
  Basis Set: (AUG-CC-PVTZ AUX)
    Blend: AUG-CC-PVTZ-JKFIT
	 Reference Energy          =    -553.6291024889653727 [Eh]
	 Singles Energy            =      -0.0000000000000000 [Eh]
	 Same-Spin Energy          =      -0.6033322379588077 [Eh]
	 Opposite-Spin Energy      =      -1.9031955174518407 [Eh]
	 Correlation Energy        =      -2.5065277554106484 [Eh]
	 Total Energy              =    -556.1356302443759887 [Eh]

	 ================> DF-SCS-MP2 Energies <==================
	-----------------------------------------------------------
	 SCS Same-Spin Scale       =       0.3333333333333333 [-]
	 SCS Opposite-Spin Scale   =       1.2000000000000000 [-]
	 SCS Same-Spin Energy      =      -0.2011107459862692 [Eh]
	 SCS Opposite-Spin Energy  =      -2.2838346209422089 [Eh]
	 SCS Correlation Energy    =      -2.4849453669284780 [Eh]
	 SCS Total Energy          =    -556.1140478558938867 [Eh]
	-----------------------------------------------------------

  Dipole Moment: [D]
     X:    -3.1766      Y:     0.3480      Z:     0.3590     Total:     3.2157

*** Psi4 exiting successfully. Buy a developer a beer!
