                               Psi4 1.4a2.dev612

  ==> Input File <==

--------------------------------------------------------------------------
#psi4
#
memory 32 gb

molecule  {
0 1
  O        3.0945450    -0.5978990    -0.2227500
  N        0.8677518    -0.9946601     0.0990483
  C        0.1786250     1.7001670     0.9719610
  C        1.1438980     2.1917080    -0.1170310
  C       -0.8608580     0.7595260     0.4300750
  C        1.5465590     1.0555900    -1.0683300
  C       -0.4811190    -0.5451200     0.0537530
  C        1.9260440    -0.2179400    -0.3394640
  C       -2.2011530     1.1304640     0.2820740
  C       -1.4377800    -1.4595290    -0.4043930
  C        1.1800400    -2.2400020     0.7973640
  C       -3.1574580     0.2247240    -0.1803460
  C       -2.7731680    -1.0742070    -0.5192260
  H       -0.3080960     2.5514800     1.4609130
  H        0.7541300     1.1728590     1.7431030
  H        0.6757450     2.9910460    -0.7037420
  H        2.0370980     2.6179610     0.3539850
  H        2.4176540     1.3419220    -1.6627910
  H        0.7204100     0.8435550    -1.7555650
  H       -2.5026250     2.1373940     0.5668430
  H       -1.1292290    -2.4616270    -0.6921390
  H        1.2028300    -3.0439780     0.0536200
  H        0.4229280    -2.4619330     1.5509630
  H        2.1652810    -2.1715440     1.2577890
  H       -4.1964680     0.5304710    -0.2745970
  H       -3.5107020    -1.7878430    -0.8784520
units angstrom
no_reorient  #important for SAPT in psi4, default
symmetry c1  #important for SAPT in psi4, default
}

set PROPERTIES_ORIGIN ["COM"]
properties('MP2/aug-cc-pvtz', properties = ['dipole'])
--------------------------------------------------------------------------

    Molecular point group: c1
  Charge       = 0
  Multiplicity = 1
  Basis Set: AUG-CC-PVTZ
    Blend: AUG-CC-PVTZ
  Basis Set: (AUG-CC-PVTZ AUX)
    Blend: AUG-CC-PVTZ-JKFIT

    Orbital Energies [Eh]
    ---------------------

    Doubly Occupied:

       1A    -20.517440     2A    -15.593895     3A    -11.348736
       4A    -11.285917     5A    -11.257348     6A    -11.251666
       7A    -11.245891     8A    -11.245573     9A    -11.243822
      10A    -11.242524    11A    -11.240243    12A    -11.239550
      13A    -11.236261    14A     -1.373189    15A     -1.260536
      16A     -1.154027    17A     -1.099686    18A     -1.032121
      19A     -1.019198    20A     -0.977236    21A     -0.924852
      22A     -0.869041    23A     -0.836666    24A     -0.800333
      25A     -0.753251    26A     -0.690520    27A     -0.683581
      28A     -0.667319    29A     -0.653658    30A     -0.624374
      31A     -0.618499    32A     -0.610037    33A     -0.600418
      34A     -0.577952    35A     -0.570824    36A     -0.556208
      37A     -0.535013    38A     -0.523816    39A     -0.518053
      40A     -0.509529    41A     -0.496396    42A     -0.484203
      43A     -0.473657    44A     -0.420870    45A     -0.402952
      46A     -0.342100    47A     -0.319273

  @DF-RHF Final Energy:  -553.63493981807937

   => Energetics <=

    Nuclear Repulsion Energy =            796.8868039876895182
    One-Electron Energy =               -2333.1869826932079377
    Two-Electron Energy =                 982.6652388874390454
    Total Energy =                       -553.6349398180793742
  Basis Set: (AUG-CC-PVTZ AUX)
    Blend: AUG-CC-PVTZ-RI
    Molecular point group: c1

    Geometry (in Angstrom), charge = 0, multiplicity = 1:

       Center              X                  Y                   Z               Mass
    ------------   -----------------  -----------------  -----------------  -----------------
         O            3.087972160741    -0.581282041239    -0.209781780241    15.994914619570
         N            0.861178960741    -0.978043141239     0.112016519759    14.003074004430
         C            0.172052160741     1.716783958761     0.984929219759    12.000000000000
         C            1.137325160741     2.208324958761    -0.104062780241    12.000000000000
         C           -0.867430839259     0.776142958761     0.443043219759    12.000000000000
         C            1.539986160741     1.072206958761    -1.055361780241    12.000000000000
         C           -0.487691839259    -0.528503041239     0.066721219759    12.000000000000
         C            1.919471160741    -0.201323041239    -0.326495780241    12.000000000000
         C           -2.207725839259     1.147080958761     0.295042219759    12.000000000000
         C           -1.444352839259    -1.442912041239    -0.391424780241    12.000000000000
         C            1.173467160741    -2.223385041239     0.810332219759    12.000000000000
         C           -3.164030839259     0.241340958761    -0.167377780241    12.000000000000
         C           -2.779740839259    -1.057590041239    -0.506257780241    12.000000000000
         H           -0.314668839259     2.568096958761     1.473881219759     1.007825032230
         H            0.747557160741     1.189475958761     1.756071219759     1.007825032230
         H            0.669172160741     3.007662958761    -0.690773780241     1.007825032230
         H            2.030525160741     2.634577958761     0.366953219759     1.007825032230
         H            2.411081160741     1.358538958761    -1.649822780241     1.007825032230
         H            0.713837160741     0.860171958761    -1.742596780241     1.007825032230
         H           -2.509197839259     2.154010958761     0.579811219759     1.007825032230
         H           -1.135801839259    -2.445010041239    -0.679170780241     1.007825032230
         H            1.196257160741    -3.027361041239     0.066588219759     1.007825032230
         H            0.416355160741    -2.445316041239     1.563931219759     1.007825032230
         H            2.158708160741    -2.154927041239     1.270757219759     1.007825032230
         H           -4.203040839259     0.547087958761    -0.261628780241     1.007825032230
         H           -3.517274839259    -1.771226041239    -0.865483780241     1.007825032230

  Basis Set: AUG-CC-PVTZ
    Blend: AUG-CC-PVTZ
  Basis Set: (AUG-CC-PVTZ AUX)
    Blend: AUG-CC-PVTZ-JKFIT
	 Reference Energy          =    -553.6349398180793742 [Eh]
	 Singles Energy            =      -0.0000000000000000 [Eh]
	 Same-Spin Energy          =      -0.6034931090240089 [Eh]
	 Opposite-Spin Energy      =      -1.9027754975348561 [Eh]
	 Correlation Energy        =      -2.5062686065588649 [Eh]
	 Total Energy              =    -556.1412084246381937 [Eh]

	 ================> DF-SCS-MP2 Energies <==================
	-----------------------------------------------------------
	 SCS Same-Spin Scale       =       0.3333333333333333 [-]
	 SCS Opposite-Spin Scale   =       1.2000000000000000 [-]
	 SCS Same-Spin Energy      =      -0.2011643696746696 [Eh]
	 SCS Opposite-Spin Energy  =      -2.2833305970418274 [Eh]
	 SCS Correlation Energy    =      -2.4844949667164968 [Eh]
	 SCS Total Energy          =    -556.1194347847958852 [Eh]
	-----------------------------------------------------------

  Dipole Moment: [D]
     X:    -3.2677      Y:     0.6286      Z:     0.3642     Total:     3.3475

*** Psi4 exiting successfully. Buy a developer a beer!
