                               Psi4 1.4a3.dev225

  ==> Input File <==

--------------------------------------------------------------------------
#psi4
#
memory 32 gb

molecule  {
0 1
  O        3.0945450    -0.5978990    -0.2227500
  N        0.8732720    -0.9469790     0.1890630
  C        0.1786250     1.7001670     0.9719610
  C        1.1438980     2.1917080    -0.1170310
  C       -0.8608580     0.7595260     0.4300750
  C        1.5465590     1.0555900    -1.0683300
  C       -0.4811190    -0.5451200     0.0537530
  C        1.8787077    -0.2025478    -0.3441921
  C       -2.2011530     1.1304640     0.2820740
  C       -1.4377800    -1.4595290    -0.4043930
  C        1.1800400    -2.2400020     0.7973640
  C       -3.1574580     0.2247240    -0.1803460
  C       -2.7731680    -1.0742070    -0.5192260
  H       -0.3080960     2.5514800     1.4609130
  H        0.7541300     1.1728590     1.7431030
  H        0.6757450     2.9910460    -0.7037420
  H        2.0370980     2.6179610     0.3539850
  H        2.4176540     1.3419220    -1.6627910
  H        0.7204100     0.8435550    -1.7555650
  H       -2.5026250     2.1373940     0.5668430
  H       -1.1292290    -2.4616270    -0.6921390
  H        1.2028300    -3.0439780     0.0536200
  H        0.4229280    -2.4619330     1.5509630
  H        2.1652810    -2.1715440     1.2577890
  H       -4.1964680     0.5304710    -0.2745970
  H       -3.5107020    -1.7878430    -0.8784520
units angstrom
no_reorient  #important for SAPT in psi4, default
symmetry c1  #important for SAPT in psi4, default
}

set PROPERTIES_ORIGIN ["COM"]
properties('MP2/aug-cc-pvtz', properties = ['dipole'])
--------------------------------------------------------------------------

    Molecular point group: c1
  Charge       = 0
  Multiplicity = 1
  Basis Set: AUG-CC-PVTZ
    Blend: AUG-CC-PVTZ
  Basis Set: (AUG-CC-PVTZ AUX)
    Blend: AUG-CC-PVTZ-JKFIT

    Orbital Energies [Eh]
    ---------------------

    Doubly Occupied:

       1A    -20.507688     2A    -15.600769     3A    -11.349901
       4A    -11.287352     5A    -11.260270     6A    -11.252632
       7A    -11.248245     8A    -11.247241     9A    -11.246985
      10A    -11.244523    11A    -11.241670    12A    -11.240109
      13A    -11.237578    14A     -1.350062    15A     -1.258188
      16A     -1.156145    17A     -1.102731    18A     -1.035787
      19A     -1.021353    20A     -0.982104    21A     -0.930850
      22A     -0.871150    23A     -0.840764    24A     -0.802086
      25A     -0.756629    26A     -0.693521    27A     -0.684567
      28A     -0.669946    29A     -0.655213    30A     -0.625156
      31A     -0.616674    32A     -0.607014    33A     -0.600076
      34A     -0.580221    35A     -0.566552    36A     -0.555944
      37A     -0.533775    38A     -0.525985    39A     -0.514009
      40A     -0.508816    41A     -0.494926    42A     -0.487954
      43A     -0.469159    44A     -0.416070    45A     -0.401993
      46A     -0.344321    47A     -0.321394

  @DF-RHF Final Energy:  -553.62927532187041

   => Energetics <=

    Nuclear Repulsion Energy =            797.5811634355983415
    One-Electron Energy =               -2334.5286793047789615
    Two-Electron Energy =                 983.3182405473103245
    Total Energy =                       -553.6292753218704092
  Basis Set: (AUG-CC-PVTZ AUX)
    Blend: AUG-CC-PVTZ-RI
    Molecular point group: c1

    Geometry (in Angstrom), charge = 0, multiplicity = 1:

       Center              X                  Y                   Z               Mass
    ------------   -----------------  -----------------  -----------------  -----------------
         O            3.090774768578    -0.586150058166    -0.216656407719    15.994914619570
         N            0.869501768578    -0.935230058166     0.195156592281    14.003074004430
         C            0.174854768578     1.711915941834     0.978054592281    12.000000000000
         C            1.140127768578     2.203456941834    -0.110937407719    12.000000000000
         C           -0.864628231422     0.771274941834     0.436168592281    12.000000000000
         C            1.542788768578     1.067338941834    -1.062236407719    12.000000000000
         C           -0.484889231422    -0.533371058166     0.059846592281    12.000000000000
         C            1.874937468578    -0.190798858166    -0.338098507719    12.000000000000
         C           -2.204923231422     1.142212941834     0.288167592281    12.000000000000
         C           -1.441550231422    -1.447780058166    -0.398299407719    12.000000000000
         C            1.176269768578    -2.228253058166     0.803457592281    12.000000000000
         C           -3.161228231422     0.236472941834    -0.174252407719    12.000000000000
         C           -2.776938231422    -1.062458058166    -0.513132407719    12.000000000000
         H           -0.311866231422     2.563228941834     1.467006592281     1.007825032230
         H            0.750359768578     1.184607941834     1.749196592281     1.007825032230
         H            0.671974768578     3.002794941834    -0.697648407719     1.007825032230
         H            2.033327768578     2.629709941834     0.360078592281     1.007825032230
         H            2.413883768578     1.353670941834    -1.656697407719     1.007825032230
         H            0.716639768578     0.855303941834    -1.749471407719     1.007825032230
         H           -2.506395231422     2.149142941834     0.572936592281     1.007825032230
         H           -1.132999231422    -2.449878058166    -0.686045407719     1.007825032230
         H            1.199059768578    -3.032229058166     0.059713592281     1.007825032230
         H            0.419157768578    -2.450184058166     1.557056592281     1.007825032230
         H            2.161510768578    -2.159795058166     1.263882592281     1.007825032230
         H           -4.200238231422     0.542219941834    -0.268503407719     1.007825032230
         H           -3.514472231422    -1.776094058166    -0.872358407719     1.007825032230

  Basis Set: AUG-CC-PVTZ
    Blend: AUG-CC-PVTZ
  Basis Set: (AUG-CC-PVTZ AUX)
    Blend: AUG-CC-PVTZ-JKFIT
	 Reference Energy          =    -553.6292753218704092 [Eh]
	 Singles Energy            =      -0.0000000000000000 [Eh]
	 Same-Spin Energy          =      -0.6047538381616840 [Eh]
	 Opposite-Spin Energy      =      -1.9050350109809633 [Eh]
	 Correlation Energy        =      -2.5097888491426472 [Eh]
	 Total Energy              =    -556.1390641710130467 [Eh]

	 ================> DF-SCS-MP2 Energies <==================
	-----------------------------------------------------------
	 SCS Same-Spin Scale       =       0.3333333333333333 [-]
	 SCS Opposite-Spin Scale   =       1.2000000000000000 [-]
	 SCS Same-Spin Energy      =      -0.2015846127205613 [Eh]
	 SCS Opposite-Spin Energy  =      -2.2860420131771559 [Eh]
	 SCS Correlation Energy    =      -2.4876266258977173 [Eh]
	 SCS Total Energy          =    -556.1169019477681559 [Eh]
	-----------------------------------------------------------

  Dipole Moment: [D]
     X:    -3.6516      Y:     0.6051      Z:     0.3110     Total:     3.7144

*** Psi4 exiting successfully. Buy a developer a beer!
