                               Psi4 1.3.2 release

  ==> Input File <==

--------------------------------------------------------------------------
#psi4
#
memory 32 gb

molecule  {
0 1
  O        3.0945450    -0.5978990    -0.2227500
  N        0.8732720    -0.9469790     0.1890630
  C        0.1786250     1.7001670     0.9719610
  C        1.1438980     2.1917080    -0.1170310
  C       -0.8608580     0.7595260     0.4300750
  C        1.5465590     1.0555900    -1.0683300
  C       -0.4811190    -0.5451200     0.0537530
  C        1.8946503    -0.1834318    -0.3521853
  C       -2.2011530     1.1304640     0.2820740
  C       -1.4377800    -1.4595290    -0.4043930
  C        1.1800400    -2.2400020     0.7973640
  C       -3.1574580     0.2247240    -0.1803460
  C       -2.7731680    -1.0742070    -0.5192260
  H       -0.3080960     2.5514800     1.4609130
  H        0.7541300     1.1728590     1.7431030
  H        0.6757450     2.9910460    -0.7037420
  H        2.0370980     2.6179610     0.3539850
  H        2.4176540     1.3419220    -1.6627910
  H        0.7204100     0.8435550    -1.7555650
  H       -2.5026250     2.1373940     0.5668430
  H       -1.1292290    -2.4616270    -0.6921390
  H        1.2028300    -3.0439780     0.0536200
  H        0.4229280    -2.4619330     1.5509630
  H        2.1652810    -2.1715440     1.2577890
  H       -4.1964680     0.5304710    -0.2745970
  H       -3.5107020    -1.7878430    -0.8784520
units angstrom
no_reorient  #important for SAPT in psi4, default
symmetry c1  #important for SAPT in psi4, default
}

set PROPERTIES_ORIGIN ["COM"]
properties('MP2/aug-cc-pvtz', properties = ['dipole'])
--------------------------------------------------------------------------

    Molecular point group: c1
  Charge       = 0
  Multiplicity = 1
  Basis Set: AUG-CC-PVTZ
    Blend: AUG-CC-PVTZ
  Basis Set: (AUG-CC-PVTZ AUX)
    Blend: AUG-CC-PVTZ-JKFIT

    Orbital Energies [Eh]
    ---------------------

    Doubly Occupied:

       1A    -20.512342     2A    -15.597204     3A    -11.352450
       4A    -11.285658     5A    -11.258600     6A    -11.251115
       7A    -11.246927     8A    -11.246195     9A    -11.245446
      10A    -11.243105    11A    -11.242835    12A    -11.239924
      13A    -11.238257    14A     -1.352378    15A     -1.255930
      16A     -1.153939    17A     -1.104066    18A     -1.037051
      19A     -1.019135    20A     -0.981060    21A     -0.928263
      22A     -0.871208    23A     -0.838052    24A     -0.801150
      25A     -0.754974    26A     -0.692473    27A     -0.685582
      28A     -0.669104    29A     -0.654456    30A     -0.624430
      31A     -0.615482    32A     -0.608590    33A     -0.598102
      34A     -0.579586    35A     -0.570199    36A     -0.554594
      37A     -0.534489    38A     -0.525818    39A     -0.514238
      40A     -0.507493    41A     -0.495149    42A     -0.487907
      43A     -0.469654    44A     -0.420230    45A     -0.402204
      46A     -0.343214    47A     -0.319143

  @DF-RHF Final Energy:  -553.62925732468273

   => Energetics <=

    Nuclear Repulsion Energy =            797.3518678662796901
    One-Electron Energy =               -2334.1034494503442147
    Two-Electron Energy =                 983.1223242593817986
    Total Energy =                       -553.6292573246827260
  Basis Set: (AUG-CC-PVTZ AUX)
    Blend: AUG-CC-PVTZ-RI
    Molecular point group: c1

    Geometry (in Angstrom), charge = 0, multiplicity = 1:

       Center              X                  Y                   Z               Mass
    ------------   -----------------  -----------------  -----------------  -----------------
         O            3.089682184270    -0.587460123127    -0.216108614706    15.994914619570
         N            0.868409184270    -0.936540123127     0.195704385294    14.003074004430
         C            0.173762184270     1.710605876873     0.978602385294    12.000000000000
         C            1.139035184270     2.202146876873    -0.110389614706    12.000000000000
         C           -0.865720815730     0.769964876873     0.436716385294    12.000000000000
         C            1.541696184270     1.066028876873    -1.061688614706    12.000000000000
         C           -0.485981815730    -0.534681123127     0.060394385294    12.000000000000
         C            1.889787484270    -0.172992923127    -0.345543914706    12.000000000000
         C           -2.206015815730     1.140902876873     0.288715385294    12.000000000000
         C           -1.442642815730    -1.449090123127    -0.397751614706    12.000000000000
         C            1.175177184270    -2.229563123127     0.804005385294    12.000000000000
         C           -3.162320815730     0.235162876873    -0.173704614706    12.000000000000
         C           -2.778030815730    -1.063768123127    -0.512584614706    12.000000000000
         H           -0.312958815730     2.561918876873     1.467554385294     1.007825032230
         H            0.749267184270     1.183297876873     1.749744385294     1.007825032230
         H            0.670882184270     3.001484876873    -0.697100614706     1.007825032230
         H            2.032235184270     2.628399876873     0.360626385294     1.007825032230
         H            2.412791184270     1.352360876873    -1.656149614706     1.007825032230
         H            0.715547184270     0.853993876873    -1.748923614706     1.007825032230
         H           -2.507487815730     2.147832876873     0.573484385294     1.007825032230
         H           -1.134091815730    -2.451188123127    -0.685497614706     1.007825032230
         H            1.197967184270    -3.033539123127     0.060261385294     1.007825032230
         H            0.418065184270    -2.451494123127     1.557604385294     1.007825032230
         H            2.160418184270    -2.161105123127     1.264430385294     1.007825032230
         H           -4.201330815730     0.540909876873    -0.267955614706     1.007825032230
         H           -3.515564815730    -1.777404123127    -0.871810614706     1.007825032230

  Basis Set: AUG-CC-PVTZ
    Blend: AUG-CC-PVTZ
  Basis Set: (AUG-CC-PVTZ AUX)
    Blend: AUG-CC-PVTZ-JKFIT
	 Reference Energy          =    -553.6292573246827260 [Eh]
	 Singles Energy            =      -0.0000000000000000 [Eh]
	 Same-Spin Energy          =      -0.6048719763998438 [Eh]
	 Opposite-Spin Energy      =      -1.9051418305656473 [Eh]
	 Correlation Energy        =      -2.5100138069654911 [Eh]
	 Total Energy              =    -556.1392711316482291 [Eh]

	 ================> DF-SCS-MP2 Energies <==================
	-----------------------------------------------------------
	 SCS Same-Spin Scale       =       0.3333333333333333 [-]
	 SCS Opposite-Spin Scale   =       1.2000000000000000 [-]
	 SCS Same-Spin Energy      =      -0.2016239921332812 [Eh]
	 SCS Opposite-Spin Energy  =      -2.2861701966787766 [Eh]
	 SCS Correlation Energy    =      -2.4877941888120580 [Eh]
	 SCS Total Energy          =    -556.1170515134947436 [Eh]
	-----------------------------------------------------------

  Dipole Moment: [D]
     X:    -3.4464      Y:     0.6906      Z:     0.2468     Total:     3.5235

*** Psi4 exiting successfully. Buy a developer a beer!
