                               Psi4 1.3.2 release

  ==> Input File <==

--------------------------------------------------------------------------
#psi4
#
memory 32 gb

molecule  {
0 1
  O        3.0945450    -0.5978990    -0.2227500
  N        0.8732720    -0.9469790     0.1890630
  C        0.1786250     1.7001670     0.9719610
  C        1.1438980     2.1917080    -0.1170310
  C       -0.8608580     0.7595260     0.4300750
  C        1.5465590     1.0555900    -1.0683300
  C       -0.4811190    -0.5451200     0.0537530
  C        1.9412622    -0.2355298    -0.3328609
  C       -2.2011530     1.1304640     0.2820740
  C       -1.4377800    -1.4595290    -0.4043930
  C        1.1800400    -2.2400020     0.7973640
  C       -3.1574580     0.2247240    -0.1803460
  C       -2.7731680    -1.0742070    -0.5192260
  H       -0.3080960     2.5514800     1.4609130
  H        0.7541300     1.1728590     1.7431030
  H        0.6757450     2.9910460    -0.7037420
  H        2.0370980     2.6179610     0.3539850
  H        2.4176540     1.3419220    -1.6627910
  H        0.7204100     0.8435550    -1.7555650
  H       -2.5026250     2.1373940     0.5668430
  H       -1.1292290    -2.4616270    -0.6921390
  H        1.2028300    -3.0439780     0.0536200
  H        0.4229280    -2.4619330     1.5509630
  H        2.1652810    -2.1715440     1.2577890
  H       -4.1964680     0.5304710    -0.2745970
  H       -3.5107020    -1.7878430    -0.8784520
units angstrom
no_reorient  #important for SAPT in psi4, default
symmetry c1  #important for SAPT in psi4, default
}

set PROPERTIES_ORIGIN ["COM"]
properties('MP2/aug-cc-pvtz', properties = ['dipole'])
--------------------------------------------------------------------------

    Molecular point group: c1
  Charge       = 0
  Multiplicity = 1
  Basis Set: AUG-CC-PVTZ
    Blend: AUG-CC-PVTZ
  Basis Set: (AUG-CC-PVTZ AUX)
    Blend: AUG-CC-PVTZ-JKFIT

    Orbital Energies [Eh]
    ---------------------

    Doubly Occupied:

       1A    -20.521313     2A    -15.592297     3A    -11.348480
       4A    -11.285571     5A    -11.256916     6A    -11.249558
       7A    -11.245796     8A    -11.244742     9A    -11.244436
      10A    -11.241932    11A    -11.238844    12A    -11.237531
      13A    -11.235460    14A     -1.386046    15A     -1.263042
      16A     -1.153377    17A     -1.097182    18A     -1.029966
      19A     -1.018874    20A     -0.974665    21A     -0.923917
      22A     -0.866785    23A     -0.837337    24A     -0.798097
      25A     -0.754130    26A     -0.689349    27A     -0.683718
      28A     -0.669737    29A     -0.654019    30A     -0.623197
      31A     -0.619329    32A     -0.610963    33A     -0.597278
      34A     -0.578131    35A     -0.572842    36A     -0.554507
      37A     -0.537261    38A     -0.523133    39A     -0.518526
      40A     -0.509006    41A     -0.497123    42A     -0.483812
      43A     -0.475290    44A     -0.419500    45A     -0.405882
      46A     -0.341887    47A     -0.318307

  @DF-RHF Final Energy:  -553.63777666794840

   => Energetics <=

    Nuclear Repulsion Energy =            797.1599859021034717
    One-Electron Energy =               -2333.7373453762802455
    Two-Electron Energy =                 982.9395828062283726
    Total Energy =                       -553.6377766679484012
  Basis Set: (AUG-CC-PVTZ AUX)
    Blend: AUG-CC-PVTZ-RI
    Molecular point group: c1

    Geometry (in Angstrom), charge = 0, multiplicity = 1:

       Center              X                  Y                   Z               Mass
    ------------   -----------------  -----------------  -----------------  -----------------
         O            3.086487759864    -0.583889723235    -0.217432961814    15.994914619570
         N            0.865214759864    -0.932969723235     0.194380038186    14.003074004430
         C            0.170567759864     1.714176276765     0.977278038186    12.000000000000
         C            1.135840759864     2.205717276765    -0.111713961814    12.000000000000
         C           -0.868915240136     0.773535276765     0.435392038186    12.000000000000
         C            1.538501759864     1.069599276765    -1.063012961814    12.000000000000
         C           -0.489176240136    -0.531110723235     0.059070038186    12.000000000000
         C            1.933204959864    -0.221520523235    -0.327543861814    12.000000000000
         C           -2.209210240136     1.144473276765     0.287391038186    12.000000000000
         C           -1.445837240136    -1.445519723235    -0.399075961814    12.000000000000
         C            1.171982759864    -2.225992723235     0.802681038186    12.000000000000
         C           -3.165515240136     0.238733276765    -0.175028961814    12.000000000000
         C           -2.781225240136    -1.060197723235    -0.513908961814    12.000000000000
         H           -0.316153240136     2.565489276765     1.466230038186     1.007825032230
         H            0.746072759864     1.186868276765     1.748420038186     1.007825032230
         H            0.667687759864     3.005055276765    -0.698424961814     1.007825032230
         H            2.029040759864     2.631970276765     0.359302038186     1.007825032230
         H            2.409596759864     1.355931276765    -1.657473961814     1.007825032230
         H            0.712352759864     0.857564276765    -1.750247961814     1.007825032230
         H           -2.510682240136     2.151403276765     0.572160038186     1.007825032230
         H           -1.137286240136    -2.447617723235    -0.686821961814     1.007825032230
         H            1.194772759864    -3.029968723235     0.058937038186     1.007825032230
         H            0.414870759864    -2.447923723235     1.556280038186     1.007825032230
         H            2.157223759864    -2.157534723235     1.263106038186     1.007825032230
         H           -4.204525240136     0.544480276765    -0.269279961814     1.007825032230
         H           -3.518759240136    -1.773833723235    -0.873134961814     1.007825032230

  Basis Set: AUG-CC-PVTZ
    Blend: AUG-CC-PVTZ
  Basis Set: (AUG-CC-PVTZ AUX)
    Blend: AUG-CC-PVTZ-JKFIT
	 Reference Energy          =    -553.6377766679484012 [Eh]
	 Singles Energy            =      -0.0000000000000000 [Eh]
	 Same-Spin Energy          =      -0.6030252944880166 [Eh]
	 Opposite-Spin Energy      =      -1.9017815790570083 [Eh]
	 Correlation Energy        =      -2.5048068735450251 [Eh]
	 Total Energy              =    -556.1425835414934227 [Eh]

	 ================> DF-SCS-MP2 Energies <==================
	-----------------------------------------------------------
	 SCS Same-Spin Scale       =       0.3333333333333333 [-]
	 SCS Opposite-Spin Scale   =       1.2000000000000000 [-]
	 SCS Same-Spin Energy      =      -0.2010084314960055 [Eh]
	 SCS Opposite-Spin Energy  =      -2.2821378948684097 [Eh]
	 SCS Correlation Energy    =      -2.4831463263644151 [Eh]
	 SCS Total Energy          =    -556.1209229943127639 [Eh]
	-----------------------------------------------------------

  Dipole Moment: [D]
     X:    -3.1133      Y:     0.5223      Z:     0.2831     Total:     3.1695

*** Psi4 exiting successfully. Buy a developer a beer!
