                               Psi4 1.3.2 release

  ==> Input File <==

--------------------------------------------------------------------------
#psi4
#
memory 32 gb

molecule  {
0 1
  O        3.0945450    -0.5978990    -0.2227500
  N        0.8732720    -0.9469790     0.1890630
  C        0.1786250     1.7001670     0.9719610
  C        1.1438980     2.1917080    -0.1170310
  C       -0.8608580     0.7595260     0.4300750
  C        1.5465590     1.0555900    -1.0683300
  C       -0.4811190    -0.5451200     0.0537530
  C        2.0123842    -0.3266203    -0.2975025
  C       -2.2011530     1.1304640     0.2820740
  C       -1.4377800    -1.4595290    -0.4043930
  C        1.1800400    -2.2400020     0.7973640
  C       -3.1574580     0.2247240    -0.1803460
  C       -2.7731680    -1.0742070    -0.5192260
  H       -0.3080960     2.5514800     1.4609130
  H        0.7541300     1.1728590     1.7431030
  H        0.6757450     2.9910460    -0.7037420
  H        2.0370980     2.6179610     0.3539850
  H        2.4176540     1.3419220    -1.6627910
  H        0.7204100     0.8435550    -1.7555650
  H       -2.5026250     2.1373940     0.5668430
  H       -1.1292290    -2.4616270    -0.6921390
  H        1.2028300    -3.0439780     0.0536200
  H        0.4229280    -2.4619330     1.5509630
  H        2.1652810    -2.1715440     1.2577890
  H       -4.1964680     0.5304710    -0.2745970
  H       -3.5107020    -1.7878430    -0.8784520
units angstrom
no_reorient  #important for SAPT in psi4, default
symmetry c1  #important for SAPT in psi4, default
}

set PROPERTIES_ORIGIN ["COM"]
properties('MP2/aug-cc-pvtz', properties = ['dipole'])
--------------------------------------------------------------------------

    Molecular point group: c1
  Charge       = 0
  Multiplicity = 1
  Basis Set: AUG-CC-PVTZ
    Blend: AUG-CC-PVTZ
  Basis Set: (AUG-CC-PVTZ AUX)
    Blend: AUG-CC-PVTZ-JKFIT

    Orbital Energies [Eh]
    ---------------------

    Doubly Occupied:

       1A    -20.536656     2A    -15.586832     3A    -11.343828
       4A    -11.286000     5A    -11.255459     6A    -11.247331
       7A    -11.244317     8A    -11.243137     9A    -11.242457
      10A    -11.240290    11A    -11.233486    12A    -11.231409
      13A    -11.225399    14A     -1.456679    15A     -1.267845
      16A     -1.152712    17A     -1.087983    18A     -1.020430
      19A     -1.018204    20A     -0.964066    21A     -0.917253
      22A     -0.860892    23A     -0.835638    24A     -0.793064
      25A     -0.753495    26A     -0.693922    27A     -0.682738
      28A     -0.674963    29A     -0.656678    30A     -0.628268
      31A     -0.622614    32A     -0.616035    33A     -0.593293
      34A     -0.584497    35A     -0.571234    36A     -0.561032
      37A     -0.551829    38A     -0.525404    39A     -0.516980
      40A     -0.508982    41A     -0.497493    42A     -0.476988
      43A     -0.475483    44A     -0.412644    45A     -0.395520
      46A     -0.339918    47A     -0.316642

  @DF-RHF Final Energy:  -553.61334787920964

   => Energetics <=

    Nuclear Repulsion Energy =            797.1108081706022404
    One-Electron Energy =               -2333.5522725716023160
    Two-Electron Energy =                 982.8281165217904345
    Total Energy =                       -553.6133478792096412
  Basis Set: (AUG-CC-PVTZ AUX)
    Blend: AUG-CC-PVTZ-RI
    Molecular point group: c1

    Geometry (in Angstrom), charge = 0, multiplicity = 1:

       Center              X                  Y                   Z               Mass
    ------------   -----------------  -----------------  -----------------  -----------------
         O            3.081613599991    -0.577647074548    -0.219856157091    15.994914619570
         N            0.860340599991    -0.926727074548     0.191956842909    14.003074004430
         C            0.165693599991     1.720418925452     0.974854842909    12.000000000000
         C            1.130966599991     2.211959925452    -0.114137157091    12.000000000000
         C           -0.873789400009     0.779777925452     0.432968842909    12.000000000000
         C            1.533627599991     1.075841925452    -1.065436157091    12.000000000000
         C           -0.494050400009    -0.524868074548     0.056646842909    12.000000000000
         C            1.999452799991    -0.306368374548    -0.294608657091    12.000000000000
         C           -2.214084400009     1.150715925452     0.284967842909    12.000000000000
         C           -1.450711400009    -1.439277074548    -0.401499157091    12.000000000000
         C            1.167108599991    -2.219750074548     0.800257842909    12.000000000000
         C           -3.170389400009     0.244975925452    -0.177452157091    12.000000000000
         C           -2.786099400009    -1.053955074548    -0.516332157091    12.000000000000
         H           -0.321027400009     2.571731925452     1.463806842909     1.007825032230
         H            0.741198599991     1.193110925452     1.745996842909     1.007825032230
         H            0.662813599991     3.011297925452    -0.700848157091     1.007825032230
         H            2.024166599991     2.638212925452     0.356878842909     1.007825032230
         H            2.404722599991     1.362173925452    -1.659897157091     1.007825032230
         H            0.707478599991     0.863806925452    -1.752671157091     1.007825032230
         H           -2.515556400009     2.157645925452     0.569736842909     1.007825032230
         H           -1.142160400009    -2.441375074548    -0.689245157091     1.007825032230
         H            1.189898599991    -3.023726074548     0.056513842909     1.007825032230
         H            0.409996599991    -2.441681074548     1.553856842909     1.007825032230
         H            2.152349599991    -2.151292074548     1.260682842909     1.007825032230
         H           -4.209399400009     0.550722925452    -0.271703157091     1.007825032230
         H           -3.523633400009    -1.767591074548    -0.875558157091     1.007825032230

  Basis Set: AUG-CC-PVTZ
    Blend: AUG-CC-PVTZ
  Basis Set: (AUG-CC-PVTZ AUX)
    Blend: AUG-CC-PVTZ-JKFIT
	 Reference Energy          =    -553.6133478792096412 [Eh]
	 Singles Energy            =      -0.0000000000000000 [Eh]
	 Same-Spin Energy          =      -0.6011798000934859 [Eh]
	 Opposite-Spin Energy      =      -1.8984399032772532 [Eh]
	 Correlation Energy        =      -2.4996197033707390 [Eh]
	 Total Energy              =    -556.1129675825803815 [Eh]

	 ================> DF-SCS-MP2 Energies <==================
	-----------------------------------------------------------
	 SCS Same-Spin Scale       =       0.3333333333333333 [-]
	 SCS Opposite-Spin Scale   =       1.2000000000000000 [-]
	 SCS Same-Spin Energy      =      -0.2003932666978286 [Eh]
	 SCS Opposite-Spin Energy  =      -2.2781278839327039 [Eh]
	 SCS Correlation Energy    =      -2.4785211506305327 [Eh]
	 SCS Total Energy          =    -556.0918690298401543 [Eh]
	-----------------------------------------------------------

  Dipole Moment: [D]
     X:    -2.5307      Y:     0.1206      Z:     0.4021     Total:     2.5653

*** Psi4 exiting successfully. Buy a developer a beer!
