                               Psi4 1.3.2 release

  ==> Input File <==

--------------------------------------------------------------------------
#psi4
#
memory 32 gb

molecule  {
0 1
  O        3.0945450    -0.5978990    -0.2227500
  N        0.8732720    -0.9469790     0.1890630
  C        0.1786250     1.7001670     0.9719610
  C        1.1438980     2.1917080    -0.1170310
  C       -0.8608580     0.7595260     0.4300750
  C        1.5465590     1.0555900    -1.0683300
  C       -0.4811190    -0.5451200     0.0537530
  C        1.8500502    -0.2705653    -0.3013126
  C       -2.2011530     1.1304640     0.2820740
  C       -1.4377800    -1.4595290    -0.4043930
  C        1.1800400    -2.2400020     0.7973640
  C       -3.1574580     0.2247240    -0.1803460
  C       -2.7731680    -1.0742070    -0.5192260
  H       -0.3080960     2.5514800     1.4609130
  H        0.7541300     1.1728590     1.7431030
  H        0.6757450     2.9910460    -0.7037420
  H        2.0370980     2.6179610     0.3539850
  H        2.4176540     1.3419220    -1.6627910
  H        0.7204100     0.8435550    -1.7555650
  H       -2.5026250     2.1373940     0.5668430
  H       -1.1292290    -2.4616270    -0.6921390
  H        1.2028300    -3.0439780     0.0536200
  H        0.4229280    -2.4619330     1.5509630
  H        2.1652810    -2.1715440     1.2577890
  H       -4.1964680     0.5304710    -0.2745970
  H       -3.5107020    -1.7878430    -0.8784520
units angstrom
no_reorient  #important for SAPT in psi4, default
symmetry c1  #important for SAPT in psi4, default
}

set PROPERTIES_ORIGIN ["COM"]
properties('MP2/aug-cc-pvtz', properties = ['dipole'])
--------------------------------------------------------------------------

    Molecular point group: c1
  Charge       = 0
  Multiplicity = 1
  Basis Set: AUG-CC-PVTZ
    Blend: AUG-CC-PVTZ
  Basis Set: (AUG-CC-PVTZ AUX)
    Blend: AUG-CC-PVTZ-JKFIT

    Orbital Energies [Eh]
    ---------------------

    Doubly Occupied:

       1A    -20.497099     2A    -15.608996     3A    -11.341169
       4A    -11.292518     5A    -11.264675     6A    -11.256632
       7A    -11.252703     8A    -11.250567     9A    -11.249728
      10A    -11.248179    11A    -11.240189    12A    -11.236843
      13A    -11.234631    14A     -1.357647    15A     -1.265300
      16A     -1.162553    17A     -1.098279    18A     -1.030689
      19A     -1.028486    20A     -0.985668    21A     -0.934914
      22A     -0.871840    23A     -0.846771    24A     -0.802780
      25A     -0.761388    26A     -0.697160    27A     -0.683272
      28A     -0.672608    29A     -0.654729    30A     -0.627280
      31A     -0.620771    32A     -0.606986    33A     -0.601834
      34A     -0.581086    35A     -0.561001    36A     -0.558131
      37A     -0.532387    38A     -0.525365    39A     -0.513386
      40A     -0.512524    41A     -0.494049    42A     -0.486349
      43A     -0.470428    44A     -0.406843    45A     -0.397210
      46A     -0.347265    47A     -0.327347

  @DF-RHF Final Energy:  -553.62257991399292

   => Energetics <=

    Nuclear Repulsion Energy =            798.2589962017532343
    One-Electron Energy =               -2335.7666416248848691
    Two-Electron Energy =                 983.8850655091387125
    Total Energy =                       -553.6225799139929222
  Basis Set: (AUG-CC-PVTZ AUX)
    Blend: AUG-CC-PVTZ-RI
    Molecular point group: c1

    Geometry (in Angstrom), charge = 0, multiplicity = 1:

       Center              X                  Y                   Z               Mass
    ------------   -----------------  -----------------  -----------------  -----------------
         O            3.092738735235    -0.581488657064    -0.219595041873    15.994914619570
         N            0.871465735235    -0.930568657064     0.192217958127    14.003074004430
         C            0.176818735235     1.716577342936     0.975115958127    12.000000000000
         C            1.142091735235     2.208118342936    -0.113876041873    12.000000000000
         C           -0.862664264765     0.775936342936     0.433229958127    12.000000000000
         C            1.544752735235     1.072000342936    -1.065175041873    12.000000000000
         C           -0.482925264765    -0.528709657064     0.056907958127    12.000000000000
         C            1.848243935235    -0.254154957064    -0.298157641873    12.000000000000
         C           -2.202959264765     1.146874342936     0.285228958127    12.000000000000
         C           -1.439586264765    -1.443118657064    -0.401238041873    12.000000000000
         C            1.178233735235    -2.223591657064     0.800518958127    12.000000000000
         C           -3.159264264765     0.241134342936    -0.177191041873    12.000000000000
         C           -2.774974264765    -1.057796657064    -0.516071041873    12.000000000000
         H           -0.309902264765     2.567890342936     1.464067958127     1.007825032230
         H            0.752323735235     1.189269342936     1.746257958127     1.007825032230
         H            0.673938735235     3.007456342936    -0.700587041873     1.007825032230
         H            2.035291735235     2.634371342936     0.357139958127     1.007825032230
         H            2.415847735235     1.358332342936    -1.659636041873     1.007825032230
         H            0.718603735235     0.859965342936    -1.752410041873     1.007825032230
         H           -2.504431264765     2.153804342936     0.569997958127     1.007825032230
         H           -1.131035264765    -2.445216657064    -0.688984041873     1.007825032230
         H            1.201023735235    -3.027567657064     0.056774958127     1.007825032230
         H            0.421121735235    -2.445522657064     1.554117958127     1.007825032230
         H            2.163474735235    -2.155133657064     1.260943958127     1.007825032230
         H           -4.198274264765     0.546881342936    -0.271442041873     1.007825032230
         H           -3.512508264765    -1.771432657064    -0.875297041873     1.007825032230

  Basis Set: AUG-CC-PVTZ
    Blend: AUG-CC-PVTZ
  Basis Set: (AUG-CC-PVTZ AUX)
    Blend: AUG-CC-PVTZ-JKFIT
	 Reference Energy          =    -553.6225799139929222 [Eh]
	 Singles Energy            =      -0.0000000000000000 [Eh]
	 Same-Spin Energy          =      -0.6041036368505225 [Eh]
	 Opposite-Spin Energy      =      -1.9041818770685259 [Eh]
	 Correlation Energy        =      -2.5082855139190485 [Eh]
	 Total Energy              =    -556.1308654279119992 [Eh]

	 ================> DF-SCS-MP2 Energies <==================
	-----------------------------------------------------------
	 SCS Same-Spin Scale       =       0.3333333333333333 [-]
	 SCS Opposite-Spin Scale   =       1.2000000000000000 [-]
	 SCS Same-Spin Energy      =      -0.2013678789501742 [Eh]
	 SCS Opposite-Spin Energy  =      -2.2850182524822311 [Eh]
	 SCS Correlation Energy    =      -2.4863861314324054 [Eh]
	 SCS Total Energy          =    -556.1089660454252908 [Eh]
	-----------------------------------------------------------

  Dipole Moment: [D]
     X:    -4.1412      Y:     0.3142      Z:     0.5097     Total:     4.1843

*** Psi4 exiting successfully. Buy a developer a beer!
