                               Psi4 1.4a3.dev225

  ==> Input File <==

--------------------------------------------------------------------------
#psi4
#
memory 32 gb

molecule  {
0 1
  O        3.0945450    -0.5978990    -0.2227500
  N        0.8732720    -0.9469790     0.1890630
  C        0.1786250     1.7001670     0.9719610
  C        1.1438980     2.1917080    -0.1170310
  C       -0.8608580     0.7595260     0.4300750
  C        1.5465590     1.0555900    -1.0683300
  C       -0.4811190    -0.5451200     0.0537530
  C        1.9108452    -0.2284651    -0.3318337
  C       -2.2011530     1.1304640     0.2820740
  C       -1.4377800    -1.4595290    -0.4043930
  C        1.1800400    -2.2400020     0.7973640
  C       -3.1574580     0.2247240    -0.1803460
  C       -2.7731680    -1.0742070    -0.5192260
  H       -0.3080960     2.5514800     1.4609130
  H        0.7541300     1.1728590     1.7431030
  H        0.6757450     2.9910460    -0.7037420
  H        2.0370980     2.6179610     0.3539850
  H        2.4176540     1.3419220    -1.6627910
  H        0.7204100     0.8435550    -1.7555650
  H       -2.5026250     2.1373940     0.5668430
  H       -1.1292290    -2.4616270    -0.6921390
  H        1.2028300    -3.0439780     0.0536200
  H        0.4229280    -2.4619330     1.5509630
  H        2.1652810    -2.1715440     1.2577890
  H       -4.1964680     0.5304710    -0.2745970
  H       -3.5107020    -1.7878430    -0.8784520
units angstrom
no_reorient  #important for SAPT in psi4, default
symmetry c1  #important for SAPT in psi4, default
}

set PROPERTIES_ORIGIN ["COM"]
properties('MP2/aug-cc-pvtz', properties = ['dipole'])
--------------------------------------------------------------------------

    Molecular point group: c1
  Charge       = 0
  Multiplicity = 1
  Basis Set: AUG-CC-PVTZ
    Blend: AUG-CC-PVTZ
  Basis Set: (AUG-CC-PVTZ AUX)
    Blend: AUG-CC-PVTZ-JKFIT

    Orbital Energies [Eh]
    ---------------------

    Doubly Occupied:

       1A    -20.514192     2A    -15.597032     3A    -11.348242
       4A    -11.286979     5A    -11.258872     6A    -11.251358
       7A    -11.247292     8A    -11.246189     9A    -11.245987
      10A    -11.243493    11A    -11.239540    12A    -11.238626
      13A    -11.236088    14A     -1.367822    15A     -1.264179
      16A     -1.155381    17A     -1.098989    18A     -1.031850
      19A     -1.020766    20A     -0.978096    21A     -0.927545
      22A     -0.868625    23A     -0.839659    24A     -0.799943
      25A     -0.755759    26A     -0.691261    27A     -0.683389
      28A     -0.669615    29A     -0.654790    30A     -0.624077
      31A     -0.617392    32A     -0.609590    33A     -0.599010
      34A     -0.578592    35A     -0.569757    36A     -0.555617
      37A     -0.534781    38A     -0.523326    39A     -0.517675
      40A     -0.509305    41A     -0.496155    42A     -0.485505
      43A     -0.472908    44A     -0.417550    45A     -0.405059
      46A     -0.343292    47A     -0.320426

  @DF-RHF Final Energy:  -553.63602003236235

   => Energetics <=

    Nuclear Repulsion Energy =            797.4054311281770424
    One-Electron Energy =               -2334.1997474433555908
    Two-Electron Energy =                 983.1582962828161953
    Total Energy =                       -553.6360200323623530
  Basis Set: (AUG-CC-PVTZ AUX)
    Blend: AUG-CC-PVTZ-RI
    Molecular point group: c1

    Geometry (in Angstrom), charge = 0, multiplicity = 1:

       Center              X                  Y                   Z               Mass
    ------------   -----------------  -----------------  -----------------  -----------------
         O            3.088572309242    -0.584373883935    -0.217503358274    15.994914619570
         N            0.867299309242    -0.933453883935     0.194309641726    14.003074004430
         C            0.172652309242     1.713692116065     0.977207641726    12.000000000000
         C            1.137925309242     2.205233116065    -0.111784358274    12.000000000000
         C           -0.866830690758     0.773051116065     0.435321641726    12.000000000000
         C            1.540586309242     1.069115116065    -1.063083358274    12.000000000000
         C           -0.487091690758    -0.531594883935     0.058999641726    12.000000000000
         C            1.904872509242    -0.214939983935    -0.326587058274    12.000000000000
         C           -2.207125690758     1.143989116065     0.287320641726    12.000000000000
         C           -1.443752690758    -1.446003883935    -0.399146358274    12.000000000000
         C            1.174067309242    -2.226476883935     0.802610641726    12.000000000000
         C           -3.163430690758     0.238249116065    -0.175099358274    12.000000000000
         C           -2.779140690758    -1.060681883935    -0.513979358274    12.000000000000
         H           -0.314068690758     2.565005116065     1.466159641726     1.007825032230
         H            0.748157309242     1.186384116065     1.748349641726     1.007825032230
         H            0.669772309242     3.004571116065    -0.698495358274     1.007825032230
         H            2.031125309242     2.631486116065     0.359231641726     1.007825032230
         H            2.411681309242     1.355447116065    -1.657544358274     1.007825032230
         H            0.714437309242     0.857080116065    -1.750318358274     1.007825032230
         H           -2.508597690758     2.150919116065     0.572089641726     1.007825032230
         H           -1.135201690758    -2.448101883935    -0.686892358274     1.007825032230
         H            1.196857309242    -3.030452883935     0.058866641726     1.007825032230
         H            0.416955309242    -2.448407883935     1.556209641726     1.007825032230
         H            2.159308309242    -2.158018883935     1.263035641726     1.007825032230
         H           -4.202440690758     0.543996116065    -0.269350358274     1.007825032230
         H           -3.516674690758    -1.774317883935    -0.873205358274     1.007825032230

  Basis Set: AUG-CC-PVTZ
    Blend: AUG-CC-PVTZ
  Basis Set: (AUG-CC-PVTZ AUX)
    Blend: AUG-CC-PVTZ-JKFIT
	 Reference Energy          =    -553.6360200323623530 [Eh]
	 Singles Energy            =      -0.0000000000000000 [Eh]
	 Same-Spin Energy          =      -0.6036648899013929 [Eh]
	 Opposite-Spin Energy      =      -1.9030257078140642 [Eh]
	 Correlation Energy        =      -2.5066905977154570 [Eh]
	 Total Energy              =    -556.1427106300777723 [Eh]

	 ================> DF-SCS-MP2 Energies <==================
	-----------------------------------------------------------
	 SCS Same-Spin Scale       =       0.3333333333333333 [-]
	 SCS Opposite-Spin Scale   =       1.2000000000000000 [-]
	 SCS Same-Spin Energy      =      -0.2012216299671309 [Eh]
	 SCS Opposite-Spin Energy  =      -2.2836308493768769 [Eh]
	 SCS Correlation Energy    =      -2.4848524793440077 [Eh]
	 SCS Total Energy          =    -556.1208725117063523 [Eh]
	-----------------------------------------------------------

  Dipole Moment: [D]
     X:    -3.4107      Y:     0.5247      Z:     0.3194     Total:     3.4656

*** Psi4 exiting successfully. Buy a developer a beer!
