                               Psi4 1.3.2 release

  ==> Input File <==

--------------------------------------------------------------------------
#psi4
#
memory 32 gb

molecule  {
0 1
  O        3.0945450    -0.5978990    -0.2227500
  N        0.8732720    -0.9469790     0.1890630
  C        0.1786250     1.7001670     0.9719610
  C        1.1438980     2.1917080    -0.1170310
  C       -0.8608580     0.7595260     0.4300750
  C        1.5465590     1.0555900    -1.0683300
  C       -0.4811190    -0.5451200     0.0537530
  C        1.8281694    -0.1172472    -0.3756349
  C       -2.2011530     1.1304640     0.2820740
  C       -1.4377800    -1.4595290    -0.4043930
  C        1.1800400    -2.2400020     0.7973640
  C       -3.1574580     0.2247240    -0.1803460
  C       -2.7731680    -1.0742070    -0.5192260
  H       -0.3080960     2.5514800     1.4609130
  H        0.7541300     1.1728590     1.7431030
  H        0.6757450     2.9910460    -0.7037420
  H        2.0370980     2.6179610     0.3539850
  H        2.4176540     1.3419220    -1.6627910
  H        0.7204100     0.8435550    -1.7555650
  H       -2.5026250     2.1373940     0.5668430
  H       -1.1292290    -2.4616270    -0.6921390
  H        1.2028300    -3.0439780     0.0536200
  H        0.4229280    -2.4619330     1.5509630
  H        2.1652810    -2.1715440     1.2577890
  H       -4.1964680     0.5304710    -0.2745970
  H       -3.5107020    -1.7878430    -0.8784520
units angstrom
no_reorient  #important for SAPT in psi4, default
symmetry c1  #important for SAPT in psi4, default
}

set PROPERTIES_ORIGIN ["COM"]
properties('MP2/aug-cc-pvtz', properties = ['dipole'])
--------------------------------------------------------------------------

    Molecular point group: c1
  Charge       = 0
  Multiplicity = 1
  Basis Set: AUG-CC-PVTZ
    Blend: AUG-CC-PVTZ
  Basis Set: (AUG-CC-PVTZ AUX)
    Blend: AUG-CC-PVTZ-JKFIT

    Orbital Energies [Eh]
    ---------------------

    Doubly Occupied:

       1A    -20.499302     2A    -15.604729     3A    -11.357032
       4A    -11.286048     5A    -11.261252     6A    -11.253359
       7A    -11.248593     8A    -11.248401     9A    -11.248263
      10A    -11.246893    11A    -11.244792    12A    -11.243099
      13A    -11.239643    14A     -1.325269    15A     -1.235448
      16A     -1.154698    17A     -1.115391    18A     -1.046999
      19A     -1.019678    20A     -0.988867    21A     -0.934502
      22A     -0.877402    23A     -0.838781    24A     -0.805117
      25A     -0.756353    26A     -0.697536    27A     -0.690147
      28A     -0.670938    29A     -0.656497    30A     -0.628881
      31A     -0.616040    32A     -0.608082    33A     -0.597470
      34A     -0.584459    35A     -0.564270    36A     -0.553746
      37A     -0.535878    38A     -0.532153    39A     -0.507259
      40A     -0.501401    41A     -0.495192    42A     -0.490485
      43A     -0.458462    44A     -0.411043    45A     -0.393178
      46A     -0.345105    47A     -0.319962

  @DF-RHF Final Energy:  -553.59453638000025

   => Energetics <=

    Nuclear Repulsion Energy =            797.8105888187794790
    One-Electron Energy =               -2334.9340652570135717
    Two-Electron Energy =                 983.5289400582338430
    Total Energy =                       -553.5945363800002497
  Basis Set: (AUG-CC-PVTZ AUX)
    Blend: AUG-CC-PVTZ-RI
    Molecular point group: c1

    Geometry (in Angstrom), charge = 0, multiplicity = 1:

       Center              X                  Y                   Z               Mass
    ------------   -----------------  -----------------  -----------------  -----------------
         O            3.094238278518    -0.591995911231    -0.214501557826    15.994914619570
         N            0.872965278518    -0.941075911231     0.197311442174    14.003074004430
         C            0.178318278518     1.706070088769     0.980209442174    12.000000000000
         C            1.143591278518     2.197611088769    -0.108782557826    12.000000000000
         C           -0.861164721482     0.765429088769     0.438323442174    12.000000000000
         C            1.546252278518     1.061493088769    -1.060081557826    12.000000000000
         C           -0.481425721482    -0.539216911231     0.062001442174    12.000000000000
         C            1.827862678518    -0.111344111231    -0.367386457826    12.000000000000
         C           -2.201459721482     1.136367088769     0.290322442174    12.000000000000
         C           -1.438086721482    -1.453625911231    -0.396144557826    12.000000000000
         C            1.179733278518    -2.234098911231     0.805612442174    12.000000000000
         C           -3.157764721482     0.230627088769    -0.172097557826    12.000000000000
         C           -2.773474721482    -1.068303911231    -0.510977557826    12.000000000000
         H           -0.308402721482     2.557383088769     1.469161442174     1.007825032230
         H            0.753823278518     1.178762088769     1.751351442174     1.007825032230
         H            0.675438278518     2.996949088769    -0.695493557826     1.007825032230
         H            2.036791278518     2.623864088769     0.362233442174     1.007825032230
         H            2.417347278518     1.347825088769    -1.654542557826     1.007825032230
         H            0.720103278518     0.849458088769    -1.747316557826     1.007825032230
         H           -2.502931721482     2.143297088769     0.575091442174     1.007825032230
         H           -1.129535721482    -2.455723911231    -0.683890557826     1.007825032230
         H            1.202523278518    -3.038074911231     0.061868442174     1.007825032230
         H            0.422621278518    -2.456029911231     1.559211442174     1.007825032230
         H            2.164974278518    -2.165640911231     1.266037442174     1.007825032230
         H           -4.196774721482     0.536374088769    -0.266348557826     1.007825032230
         H           -3.511008721482    -1.781939911231    -0.870203557826     1.007825032230

  Basis Set: AUG-CC-PVTZ
    Blend: AUG-CC-PVTZ
  Basis Set: (AUG-CC-PVTZ AUX)
    Blend: AUG-CC-PVTZ-JKFIT
	 Reference Energy          =    -553.5945363800002497 [Eh]
	 Singles Energy            =      -0.0000000000000000 [Eh]
	 Same-Spin Energy          =      -0.6080193283776034 [Eh]
	 Opposite-Spin Energy      =      -1.9108361361675932 [Eh]
	 Correlation Energy        =      -2.5188554645451964 [Eh]
	 Total Energy              =    -556.1133918445453901 [Eh]

	 ================> DF-SCS-MP2 Energies <==================
	-----------------------------------------------------------
	 SCS Same-Spin Scale       =       0.3333333333333333 [-]
	 SCS Opposite-Spin Scale   =       1.2000000000000000 [-]
	 SCS Same-Spin Energy      =      -0.2026731094592011 [Eh]
	 SCS Opposite-Spin Energy  =      -2.2930033634011115 [Eh]
	 SCS Correlation Energy    =      -2.4956764728603127 [Eh]
	 SCS Total Energy          =    -556.0902128528605317 [Eh]
	-----------------------------------------------------------

  Dipole Moment: [D]
     X:    -3.8709      Y:     0.8693      Z:     0.2200     Total:     3.9734

*** Psi4 exiting successfully. Buy a developer a beer!
