                               Psi4 1.3.2 release

  ==> Input File <==

--------------------------------------------------------------------------
#psi4
#
memory 32 gb

molecule  {
0 1
  O        3.0945450    -0.5978990    -0.2227500
  N        0.8732720    -0.9469790     0.1890630
  C        0.1786250     1.7001670     0.9719610
  C        1.1438980     2.1917080    -0.1170310
  C       -0.8608580     0.7595260     0.4300750
  C        1.5465590     1.0555900    -1.0683300
  C       -0.4305652    -0.4276385    -0.0218124
  C        1.9260440    -0.2179400    -0.3394640
  C       -2.2011530     1.1304640     0.2820740
  C       -1.4377800    -1.4595290    -0.4043930
  C        1.1800400    -2.2400020     0.7973640
  C       -3.1574580     0.2247240    -0.1803460
  C       -2.7731680    -1.0742070    -0.5192260
  H       -0.3080960     2.5514800     1.4609130
  H        0.7541300     1.1728590     1.7431030
  H        0.6757450     2.9910460    -0.7037420
  H        2.0370980     2.6179610     0.3539850
  H        2.4176540     1.3419220    -1.6627910
  H        0.7204100     0.8435550    -1.7555650
  H       -2.5026250     2.1373940     0.5668430
  H       -1.1292290    -2.4616270    -0.6921390
  H        1.2028300    -3.0439780     0.0536200
  H        0.4229280    -2.4619330     1.5509630
  H        2.1652810    -2.1715440     1.2577890
  H       -4.1964680     0.5304710    -0.2745970
  H       -3.5107020    -1.7878430    -0.8784520
units angstrom
no_reorient  #important for SAPT in psi4, default
symmetry c1  #important for SAPT in psi4, default
}

set PROPERTIES_ORIGIN ["COM"]
properties('MP2/aug-cc-pvtz', properties = ['dipole'])
--------------------------------------------------------------------------

    Molecular point group: c1
  Charge       = 0
  Multiplicity = 1
  Basis Set: AUG-CC-PVTZ
    Blend: AUG-CC-PVTZ
  Basis Set: (AUG-CC-PVTZ AUX)
    Blend: AUG-CC-PVTZ-JKFIT

    Orbital Energies [Eh]
    ---------------------

    Doubly Occupied:

       1A    -20.515955     2A    -15.593810     3A    -11.345983
       4A    -11.285334     5A    -11.261228     6A    -11.253195
       7A    -11.246320     8A    -11.245141     9A    -11.243322
      10A    -11.242345    11A    -11.240031    12A    -11.236791
      13A    -11.236044    14A     -1.372393    15A     -1.261502
      16A     -1.155301    17A     -1.098603    18A     -1.036157
      19A     -1.010452    20A     -0.979536    21A     -0.925307
      22A     -0.864470    23A     -0.842447    24A     -0.798874
      25A     -0.746843    26A     -0.691569    27A     -0.684634
      28A     -0.668265    29A     -0.658406    30A     -0.621489
      31A     -0.616722    32A     -0.607017    33A     -0.594890
      34A     -0.580764    35A     -0.573967    36A     -0.553817
      37A     -0.534635    38A     -0.523395    39A     -0.518589
      40A     -0.509759    41A     -0.494514    42A     -0.485890
      43A     -0.469272    44A     -0.419062    45A     -0.403030
      46A     -0.341832    47A     -0.318392

  @DF-RHF Final Energy:  -553.61879489341879

   => Energetics <=

    Nuclear Repulsion Energy =            797.9837039949434256
    One-Electron Energy =               -2335.3904014387699135
    Two-Electron Energy =                 983.7879025504076935
    Total Energy =                       -553.6187948934187943
  Basis Set: (AUG-CC-PVTZ AUX)
    Blend: AUG-CC-PVTZ-RI
    Molecular point group: c1

    Geometry (in Angstrom), charge = 0, multiplicity = 1:

       Center              X                  Y                   Z               Mass
    ------------   -----------------  -----------------  -----------------  -----------------
         O            3.084066127126    -0.593146480785    -0.211801759014    15.994914619570
         N            0.862793127126    -0.942226480785     0.200011240986    14.003074004430
         C            0.168146127126     1.704919519215     0.982909240986    12.000000000000
         C            1.133419127126     2.196460519215    -0.106082759014    12.000000000000
         C           -0.871336872874     0.764278519215     0.441023240986    12.000000000000
         C            1.536080127126     1.060342519215    -1.057381759014    12.000000000000
         C           -0.441044072874    -0.422885980785    -0.010864159014    12.000000000000
         C            1.915565127126    -0.213187480785    -0.328515759014    12.000000000000
         C           -2.211631872874     1.135216519215     0.293022240986    12.000000000000
         C           -1.448258872874    -1.454776480785    -0.393444759014    12.000000000000
         C            1.169561127126    -2.235249480785     0.808312240986    12.000000000000
         C           -3.167936872874     0.229476519215    -0.169397759014    12.000000000000
         C           -2.783646872874    -1.069454480785    -0.508277759014    12.000000000000
         H           -0.318574872874     2.556232519215     1.471861240986     1.007825032230
         H            0.743651127126     1.177611519215     1.754051240986     1.007825032230
         H            0.665266127126     2.995798519215    -0.692793759014     1.007825032230
         H            2.026619127126     2.622713519215     0.364933240986     1.007825032230
         H            2.407175127126     1.346674519215    -1.651842759014     1.007825032230
         H            0.709931127126     0.848307519215    -1.744616759014     1.007825032230
         H           -2.513103872874     2.142146519215     0.577791240986     1.007825032230
         H           -1.139707872874    -2.456874480785    -0.681190759014     1.007825032230
         H            1.192351127126    -3.039225480785     0.064568240986     1.007825032230
         H            0.412449127126    -2.457180480785     1.561911240986     1.007825032230
         H            2.154802127126    -2.166791480785     1.268737240986     1.007825032230
         H           -4.206946872874     0.535223519215    -0.263648759014     1.007825032230
         H           -3.521180872874    -1.783090480785    -0.867503759014     1.007825032230

  Basis Set: AUG-CC-PVTZ
    Blend: AUG-CC-PVTZ
  Basis Set: (AUG-CC-PVTZ AUX)
    Blend: AUG-CC-PVTZ-JKFIT
	 Reference Energy          =    -553.6187948934187943 [Eh]
	 Singles Energy            =      -0.0000000000000000 [Eh]
	 Same-Spin Energy          =      -0.6040788802746544 [Eh]
	 Opposite-Spin Energy      =      -1.9046499385020046 [Eh]
	 Correlation Energy        =      -2.5087288187766590 [Eh]
	 Total Energy              =    -556.1275237121953978 [Eh]

	 ================> DF-SCS-MP2 Energies <==================
	-----------------------------------------------------------
	 SCS Same-Spin Scale       =       0.3333333333333333 [-]
	 SCS Opposite-Spin Scale   =       1.2000000000000000 [-]
	 SCS Same-Spin Energy      =      -0.2013596267582181 [Eh]
	 SCS Opposite-Spin Energy  =      -2.2855799262024052 [Eh]
	 SCS Correlation Energy    =      -2.4869395529606235 [Eh]
	 SCS Total Energy          =    -556.1057344463794152 [Eh]
	-----------------------------------------------------------

  Dipole Moment: [D]
     X:    -3.2457      Y:     0.5498      Z:     0.3063     Total:     3.3061

*** Psi4 exiting successfully. Buy a developer a beer!
