                               Psi4 1.3.2 release

  ==> Input File <==

--------------------------------------------------------------------------
#psi4
#
memory 32 gb

molecule  {
0 1
  O        3.0945450    -0.5978990    -0.2227500
  N        0.8732720    -0.9469790     0.1890630
  C        0.1786250     1.7001670     0.9719610
  C        1.1438980     2.1917080    -0.1170310
  C       -0.8608580     0.7595260     0.4300750
  C        1.5465590     1.0555900    -1.0683300
  C       -0.4656186    -0.5029746     0.0328373
  C        1.9260440    -0.2179400    -0.3394640
  C       -2.2011530     1.1304640     0.2820740
  C       -1.4377800    -1.4595290    -0.4043930
  C        1.1800400    -2.2400020     0.7973640
  C       -3.1574580     0.2247240    -0.1803460
  C       -2.7731680    -1.0742070    -0.5192260
  H       -0.3080960     2.5514800     1.4609130
  H        0.7541300     1.1728590     1.7431030
  H        0.6757450     2.9910460    -0.7037420
  H        2.0370980     2.6179610     0.3539850
  H        2.4176540     1.3419220    -1.6627910
  H        0.7204100     0.8435550    -1.7555650
  H       -2.5026250     2.1373940     0.5668430
  H       -1.1292290    -2.4616270    -0.6921390
  H        1.2028300    -3.0439780     0.0536200
  H        0.4229280    -2.4619330     1.5509630
  H        2.1652810    -2.1715440     1.2577890
  H       -4.1964680     0.5304710    -0.2745970
  H       -3.5107020    -1.7878430    -0.8784520
units angstrom
no_reorient  #important for SAPT in psi4, default
symmetry c1  #important for SAPT in psi4, default
}

set PROPERTIES_ORIGIN ["COM"]
properties('MP2/aug-cc-pvtz', properties = ['dipole'])
--------------------------------------------------------------------------

    Molecular point group: c1
  Charge       = 0
  Multiplicity = 1
  Basis Set: AUG-CC-PVTZ
    Blend: AUG-CC-PVTZ
  Basis Set: (AUG-CC-PVTZ AUX)
    Blend: AUG-CC-PVTZ-JKFIT

    Orbital Energies [Eh]
    ---------------------

    Doubly Occupied:

       1A    -20.517581     2A    -15.593868     3A    -11.348497
       4A    -11.285374     5A    -11.258694     6A    -11.248250
       7A    -11.247104     8A    -11.245638     9A    -11.245414
      10A    -11.242458    11A    -11.240067    12A    -11.237789
      13A    -11.236390    14A     -1.373333    15A     -1.261337
      16A     -1.154217    17A     -1.098964    18A     -1.033643
      19A     -1.015809    20A     -0.977898    21A     -0.925251
      22A     -0.867052    23A     -0.839508    24A     -0.799419
      25A     -0.751773    26A     -0.690636    27A     -0.684495
      28A     -0.668699    29A     -0.655527    30A     -0.622614
      31A     -0.617287    32A     -0.609067    33A     -0.597329
      34A     -0.578761    35A     -0.573336    36A     -0.554343
      37A     -0.535356    38A     -0.523639    39A     -0.516108
      40A     -0.511350    41A     -0.495856    42A     -0.485497
      43A     -0.472723    44A     -0.420069    45A     -0.404381
      46A     -0.341793    47A     -0.319065

  @DF-RHF Final Energy:  -553.63439728243407

   => Energetics <=

    Nuclear Repulsion Energy =            797.5093961183505371
    One-Electron Energy =               -2334.4410657654889292
    Two-Electron Energy =                 983.2972723647042130
    Total Energy =                       -553.6343972824340653
  Basis Set: (AUG-CC-PVTZ AUX)
    Blend: AUG-CC-PVTZ-RI
    Molecular point group: c1

    Geometry (in Angstrom), charge = 0, multiplicity = 1:

       Center              X                  Y                   Z               Mass
    ------------   -----------------  -----------------  -----------------  -----------------
         O            3.086468420027    -0.587983518613    -0.215547032978    15.994914619570
         N            0.865195420027    -0.937063518613     0.196265967022    14.003074004430
         C            0.170548420027     1.710082481387     0.979163967022    12.000000000000
         C            1.135821420027     2.201623481387    -0.109828032978    12.000000000000
         C           -0.868934579973     0.769441481387     0.437277967022    12.000000000000
         C            1.538482420027     1.065505481387    -1.061127032978    12.000000000000
         C           -0.473695179973    -0.493059118613     0.040040267022    12.000000000000
         C            1.917967420027    -0.208024518613    -0.332261032978    12.000000000000
         C           -2.209229579973     1.140379481387     0.289276967022    12.000000000000
         C           -1.445856579973    -1.449613518613    -0.397190032978    12.000000000000
         C            1.171963420027    -2.230086518613     0.804566967022    12.000000000000
         C           -3.165534579973     0.234639481387    -0.173143032978    12.000000000000
         C           -2.781244579973    -1.064291518613    -0.512023032978    12.000000000000
         H           -0.316172579973     2.561395481387     1.468115967022     1.007825032230
         H            0.746053420027     1.182774481387     1.750305967022     1.007825032230
         H            0.667668420027     3.000961481387    -0.696539032978     1.007825032230
         H            2.029021420027     2.627876481387     0.361187967022     1.007825032230
         H            2.409577420027     1.351837481387    -1.655588032978     1.007825032230
         H            0.712333420027     0.853470481387    -1.748362032978     1.007825032230
         H           -2.510701579973     2.147309481387     0.574045967022     1.007825032230
         H           -1.137305579973    -2.451711518613    -0.684936032978     1.007825032230
         H            1.194753420027    -3.034062518613     0.060822967022     1.007825032230
         H            0.414851420027    -2.452017518613     1.558165967022     1.007825032230
         H            2.157204420027    -2.161628518613     1.264991967022     1.007825032230
         H           -4.204544579973     0.540386481387    -0.267394032978     1.007825032230
         H           -3.518778579973    -1.777927518613    -0.871249032978     1.007825032230

  Basis Set: AUG-CC-PVTZ
    Blend: AUG-CC-PVTZ
  Basis Set: (AUG-CC-PVTZ AUX)
    Blend: AUG-CC-PVTZ-JKFIT
	 Reference Energy          =    -553.6343972824340653 [Eh]
	 Singles Energy            =      -0.0000000000000000 [Eh]
	 Same-Spin Energy          =      -0.6036767220473481 [Eh]
	 Opposite-Spin Energy      =      -1.9030643989718437 [Eh]
	 Correlation Energy        =      -2.5067411210191919 [Eh]
	 Total Energy              =    -556.1411384034532830 [Eh]

	 ================> DF-SCS-MP2 Energies <==================
	-----------------------------------------------------------
	 SCS Same-Spin Scale       =       0.3333333333333333 [-]
	 SCS Opposite-Spin Scale   =       1.2000000000000000 [-]
	 SCS Same-Spin Energy      =      -0.2012255740157827 [Eh]
	 SCS Opposite-Spin Energy  =      -2.2836772787662123 [Eh]
	 SCS Correlation Energy    =      -2.4849028527819952 [Eh]
	 SCS Total Energy          =    -556.1193001352160081 [Eh]
	-----------------------------------------------------------

  Dipole Moment: [D]
     X:    -3.2313      Y:     0.5705      Z:     0.2830     Total:     3.2935

*** Psi4 exiting successfully. Buy a developer a beer!
