                               Psi4 1.3.2 release

  ==> Input File <==

--------------------------------------------------------------------------
#psi4
#
memory 32 gb

molecule  {
0 1
  O        3.0945450    -0.5978990    -0.2227500
  N        0.8732720    -0.9469790     0.1890630
  C        0.1786250     1.7001670     0.9719610
  C        1.1438980     2.1917080    -0.1170310
  C       -0.8608580     0.7595260     0.4300750
  C        1.5465590     1.0555900    -1.0683300
  C       -0.2902543    -0.6017511     0.0728213
  C        1.9260440    -0.2179400    -0.3394640
  C       -2.2011530     1.1304640     0.2820740
  C       -1.4377800    -1.4595290    -0.4043930
  C        1.1800400    -2.2400020     0.7973640
  C       -3.1574580     0.2247240    -0.1803460
  C       -2.7731680    -1.0742070    -0.5192260
  H       -0.3080960     2.5514800     1.4609130
  H        0.7541300     1.1728590     1.7431030
  H        0.6757450     2.9910460    -0.7037420
  H        2.0370980     2.6179610     0.3539850
  H        2.4176540     1.3419220    -1.6627910
  H        0.7204100     0.8435550    -1.7555650
  H       -2.5026250     2.1373940     0.5668430
  H       -1.1292290    -2.4616270    -0.6921390
  H        1.2028300    -3.0439780     0.0536200
  H        0.4229280    -2.4619330     1.5509630
  H        2.1652810    -2.1715440     1.2577890
  H       -4.1964680     0.5304710    -0.2745970
  H       -3.5107020    -1.7878430    -0.8784520
units angstrom
no_reorient  #important for SAPT in psi4, default
symmetry c1  #important for SAPT in psi4, default
}

set PROPERTIES_ORIGIN ["COM"]
properties('MP2/aug-cc-pvtz', properties = ['dipole'])
--------------------------------------------------------------------------

    Molecular point group: c1
  Charge       = 0
  Multiplicity = 1
  Basis Set: AUG-CC-PVTZ
    Blend: AUG-CC-PVTZ
  Basis Set: (AUG-CC-PVTZ AUX)
    Blend: AUG-CC-PVTZ-JKFIT

    Orbital Energies [Eh]
    ---------------------

    Doubly Occupied:

       1A    -20.535505     2A    -15.606414     3A    -11.364842
       4A    -11.294243     5A    -11.270340     6A    -11.249680
       7A    -11.243883     8A    -11.242504     9A    -11.240316
      10A    -11.239477    11A    -11.239267    12A    -11.232960
      13A    -11.232274    14A     -1.399906    15A     -1.324258
      16A     -1.135230    17A     -1.097765    18A     -1.025959
      19A     -1.008593    20A     -0.988586    21A     -0.926199
      22A     -0.897358    23A     -0.834560    24A     -0.788384
      25A     -0.762000    26A     -0.702671    27A     -0.691018
      28A     -0.681576    29A     -0.664481    30A     -0.625289
      31A     -0.618798    32A     -0.606039    33A     -0.597161
      34A     -0.576669    35A     -0.575481    36A     -0.564250
      37A     -0.541705    38A     -0.523773    39A     -0.522719
      40A     -0.504915    41A     -0.490264    42A     -0.484248
      43A     -0.463654    44A     -0.436210    45A     -0.407155
      46A     -0.333696    47A     -0.287244

  @DF-RHF Final Energy:  -553.57197695088996

   => Energetics <=

    Nuclear Repulsion Energy =            798.2482680182973809
    One-Electron Energy =               -2335.4814538384694060
    Two-Electron Energy =                 983.6612088692819498
    Total Energy =                       -553.5719769508899617
  Basis Set: (AUG-CC-PVTZ AUX)
    Blend: AUG-CC-PVTZ-RI
    Molecular point group: c1

    Geometry (in Angstrom), charge = 0, multiplicity = 1:

       Center              X                  Y                   Z               Mass
    ------------   -----------------  -----------------  -----------------  -----------------
         O            3.074450287321    -0.581214130059    -0.218287231627    15.994914619570
         N            0.853177287321    -0.930294130059     0.193525768373    14.003074004430
         C            0.158530287321     1.716851869941     0.976423768373    12.000000000000
         C            1.123803287321     2.208392869941    -0.112568231627    12.000000000000
         C           -0.880952712679     0.776210869941     0.434537768373    12.000000000000
         C            1.526464287321     1.072274869941    -1.063867231627    12.000000000000
         C           -0.310349012679    -0.585066230059     0.077284068373    12.000000000000
         C            1.905949287321    -0.201255130059    -0.335001231627    12.000000000000
         C           -2.221247712679     1.147148869941     0.286536768373    12.000000000000
         C           -1.457874712679    -1.442844130059    -0.399930231627    12.000000000000
         C            1.159945287321    -2.223317130059     0.801826768373    12.000000000000
         C           -3.177552712679     0.241408869941    -0.175883231627    12.000000000000
         C           -2.793262712679    -1.057522130059    -0.514763231627    12.000000000000
         H           -0.328190712679     2.568164869941     1.465375768373     1.007825032230
         H            0.734035287321     1.189543869941     1.747565768373     1.007825032230
         H            0.655650287321     3.007730869941    -0.699279231627     1.007825032230
         H            2.017003287321     2.634645869941     0.358447768373     1.007825032230
         H            2.397559287321     1.358606869941    -1.658328231627     1.007825032230
         H            0.700315287321     0.860239869941    -1.751102231627     1.007825032230
         H           -2.522719712679     2.154078869941     0.571305768373     1.007825032230
         H           -1.149323712679    -2.444942130059    -0.687676231627     1.007825032230
         H            1.182735287321    -3.027293130059     0.058082768373     1.007825032230
         H            0.402833287321    -2.445248130059     1.555425768373     1.007825032230
         H            2.145186287321    -2.154859130059     1.262251768373     1.007825032230
         H           -4.216562712679     0.547155869941    -0.270134231627     1.007825032230
         H           -3.530796712679    -1.771158130059    -0.873989231627     1.007825032230

  Basis Set: AUG-CC-PVTZ
    Blend: AUG-CC-PVTZ
  Basis Set: (AUG-CC-PVTZ AUX)
    Blend: AUG-CC-PVTZ-JKFIT
	 Reference Energy          =    -553.5719769508899617 [Eh]
	 Singles Energy            =      -0.0000000000000000 [Eh]
	 Same-Spin Energy          =      -0.6080950560021174 [Eh]
	 Opposite-Spin Energy      =      -1.9091585364618919 [Eh]
	 Correlation Energy        =      -2.5172535924640096 [Eh]
	 Total Energy              =    -556.0892305433540059 [Eh]

	 ================> DF-SCS-MP2 Energies <==================
	-----------------------------------------------------------
	 SCS Same-Spin Scale       =       0.3333333333333333 [-]
	 SCS Opposite-Spin Scale   =       1.2000000000000000 [-]
	 SCS Same-Spin Energy      =      -0.2026983520007058 [Eh]
	 SCS Opposite-Spin Energy  =      -2.2909902437542704 [Eh]
	 SCS Correlation Energy    =      -2.4936885957549761 [Eh]
	 SCS Total Energy          =    -556.0656655466449365 [Eh]
	-----------------------------------------------------------

  Dipole Moment: [D]
     X:    -2.0137      Y:     0.3304      Z:     0.3088     Total:     2.0638

*** Psi4 exiting successfully. Buy a developer a beer!
