                               Psi4 1.4a3.dev225

  ==> Input File <==

--------------------------------------------------------------------------
#psi4
#
memory 32 gb

molecule  {
0 1
  O        3.0945450    -0.5978990    -0.2227500
  N        0.8732720    -0.9469790     0.1890630
  C        0.1786250     1.7001670     0.9719610
  C        1.1438980     2.1917080    -0.1170310
  C       -0.8608580     0.7595260     0.4300750
  C        1.5465590     1.0555900    -1.0683300
  C       -0.4811190    -0.5451200     0.0537530
  C        1.9260440    -0.2179400    -0.3394640
  C       -2.2011530     1.1304640     0.2820740
  C       -1.4377800    -1.4595290    -0.4043930
  C        1.1758421    -2.2223078     0.7890398
  C       -3.1574580     0.2247240    -0.1803460
  C       -2.7731680    -1.0742070    -0.5192260
  H       -0.3080960     2.5514800     1.4609130
  H        0.7541300     1.1728590     1.7431030
  H        0.6757450     2.9910460    -0.7037420
  H        2.0370980     2.6179610     0.3539850
  H        2.4176540     1.3419220    -1.6627910
  H        0.7204100     0.8435550    -1.7555650
  H       -2.5026250     2.1373940     0.5668430
  H       -1.1292290    -2.4616270    -0.6921390
  H        1.2028300    -3.0439780     0.0536200
  H        0.4229280    -2.4619330     1.5509630
  H        2.1652810    -2.1715440     1.2577890
  H       -4.1964680     0.5304710    -0.2745970
  H       -3.5107020    -1.7878430    -0.8784520
units angstrom
no_reorient  #important for SAPT in psi4, default
symmetry c1  #important for SAPT in psi4, default
}

set PROPERTIES_ORIGIN ["COM"]
properties('MP2/aug-cc-pvtz', properties = ['dipole'])
--------------------------------------------------------------------------

    Molecular point group: c1
  Charge       = 0
  Multiplicity = 1
  Basis Set: AUG-CC-PVTZ
    Blend: AUG-CC-PVTZ
  Basis Set: (AUG-CC-PVTZ AUX)
    Blend: AUG-CC-PVTZ-JKFIT

    Orbital Energies [Eh]
    ---------------------

    Doubly Occupied:

       1A    -20.519069     2A    -15.594300     3A    -11.350331
       4A    -11.285935     5A    -11.257074     6A    -11.250461
       7A    -11.246398     8A    -11.245463     9A    -11.245050
      10A    -11.242624    11A    -11.240481    12A    -11.238661
      13A    -11.236986    14A     -1.374960    15A     -1.264476
      16A     -1.154556    17A     -1.099864    18A     -1.032621
      19A     -1.019689    20A     -0.977160    21A     -0.924747
      22A     -0.868493    23A     -0.837867    24A     -0.799688
      25A     -0.755269    26A     -0.691743    27A     -0.684894
      28A     -0.669951    29A     -0.655606    30A     -0.623697
      31A     -0.617683    32A     -0.610324    33A     -0.598850
      34A     -0.578147    35A     -0.574215    36A     -0.551157
      37A     -0.534604    38A     -0.523409    39A     -0.517075
      40A     -0.508384    41A     -0.496853    42A     -0.485628
      43A     -0.474089    44A     -0.421083    45A     -0.404709
      46A     -0.342540    47A     -0.319025

  @DF-RHF Final Energy:  -553.63630060345645

   => Energetics <=

    Nuclear Repulsion Energy =            797.6851658298213579
    One-Electron Energy =               -2334.7511488283594190
    Two-Electron Energy =                 983.4296823950814996
    Total Energy =                       -553.6363006034564478
  Basis Set: (AUG-CC-PVTZ AUX)
    Blend: AUG-CC-PVTZ-RI
    Molecular point group: c1

    Geometry (in Angstrom), charge = 0, multiplicity = 1:

       Center              X                  Y                   Z               Mass
    ------------   -----------------  -----------------  -----------------  -----------------
         O            3.087818391392    -0.586307819703    -0.216409958430    15.994914619570
         N            0.866545391392    -0.935387819703     0.195403041570    14.003074004430
         C            0.171898391392     1.711758180297     0.978301041570    12.000000000000
         C            1.137171391392     2.203299180297    -0.110690958430    12.000000000000
         C           -0.867584608608     0.771117180297     0.436415041570    12.000000000000
         C            1.539832391392     1.067181180297    -1.061989958430    12.000000000000
         C           -0.487845608608    -0.533528819703     0.060093041570    12.000000000000
         C            1.919317391392    -0.206348819703    -0.333123958430    12.000000000000
         C           -2.207879608608     1.142055180297     0.288414041570    12.000000000000
         C           -1.444506608608    -1.447937819703    -0.398052958430    12.000000000000
         C            1.169115491392    -2.210716619703     0.795379841570    12.000000000000
         C           -3.164184608608     0.236315180297    -0.174005958430    12.000000000000
         C           -2.779894608608    -1.062615819703    -0.512885958430    12.000000000000
         H           -0.314822608608     2.563071180297     1.467253041570     1.007825032230
         H            0.747403391392     1.184450180297     1.749443041570     1.007825032230
         H            0.669018391392     3.002637180297    -0.697401958430     1.007825032230
         H            2.030371391392     2.629552180297     0.360325041570     1.007825032230
         H            2.410927391392     1.353513180297    -1.656450958430     1.007825032230
         H            0.713683391392     0.855146180297    -1.749224958430     1.007825032230
         H           -2.509351608608     2.148985180297     0.573183041570     1.007825032230
         H           -1.135955608608    -2.450035819703    -0.685798958430     1.007825032230
         H            1.196103391392    -3.032386819703     0.059960041570     1.007825032230
         H            0.416201391392    -2.450341819703     1.557303041570     1.007825032230
         H            2.158554391392    -2.159952819703     1.264129041570     1.007825032230
         H           -4.203194608608     0.542062180297    -0.268256958430     1.007825032230
         H           -3.517428608608    -1.776251819703    -0.872111958430     1.007825032230

  Basis Set: AUG-CC-PVTZ
    Blend: AUG-CC-PVTZ
  Basis Set: (AUG-CC-PVTZ AUX)
    Blend: AUG-CC-PVTZ-JKFIT
	 Reference Energy          =    -553.6363006034564478 [Eh]
	 Singles Energy            =      -0.0000000000000000 [Eh]
	 Same-Spin Energy          =      -0.6037192284801566 [Eh]
	 Opposite-Spin Energy      =      -1.9028525528619542 [Eh]
	 Correlation Energy        =      -2.5065717813421107 [Eh]
	 Total Energy              =    -556.1428723847985793 [Eh]

	 ================> DF-SCS-MP2 Energies <==================
	-----------------------------------------------------------
	 SCS Same-Spin Scale       =       0.3333333333333333 [-]
	 SCS Opposite-Spin Scale   =       1.2000000000000000 [-]
	 SCS Same-Spin Energy      =      -0.2012397428267189 [Eh]
	 SCS Opposite-Spin Energy  =      -2.2834230634343449 [Eh]
	 SCS Correlation Energy    =      -2.4846628062610638 [Eh]
	 SCS Total Energy          =    -556.1209634097175467 [Eh]
	-----------------------------------------------------------

  Dipole Moment: [D]
     X:    -3.2363      Y:     0.6344      Z:     0.2502     Total:     3.3074

*** Psi4 exiting successfully. Buy a developer a beer!
