                               Psi4 1.4a3.dev225

  ==> Input File <==

--------------------------------------------------------------------------
#psi4
#
memory 32 gb

molecule  {
0 1
  O        3.0945450    -0.5978990    -0.2227500
  N        0.8732720    -0.9469790     0.1890630
  C        0.1786250     1.7001670     0.9719610
  C        1.1438980     2.1917080    -0.1170310
  C       -0.8608580     0.7595260     0.4300750
  C        1.5465590     1.0555900    -1.0683300
  C       -0.4811190    -0.5451200     0.0537530
  C        1.9640409    -0.1916274    -0.3585397
  C       -2.2011530     1.1304640     0.2820740
  C       -1.4377800    -1.4595290    -0.4043930
  C        1.1800400    -2.2400020     0.7973640
  C       -3.1574580     0.2247240    -0.1803460
  C       -2.7731680    -1.0742070    -0.5192260
  H       -0.3080960     2.5514800     1.4609130
  H        0.7541300     1.1728590     1.7431030
  H        0.6757450     2.9910460    -0.7037420
  H        2.0370980     2.6179610     0.3539850
  H        2.4176540     1.3419220    -1.6627910
  H        0.7204100     0.8435550    -1.7555650
  H       -2.5026250     2.1373940     0.5668430
  H       -1.1292290    -2.4616270    -0.6921390
  H        1.2028300    -3.0439780     0.0536200
  H        0.4229280    -2.4619330     1.5509630
  H        2.1652810    -2.1715440     1.2577890
  H       -4.1964680     0.5304710    -0.2745970
  H       -3.5107020    -1.7878430    -0.8784520
units angstrom
no_reorient  #important for SAPT in psi4, default
symmetry c1  #important for SAPT in psi4, default
}

set PROPERTIES_ORIGIN ["COM"]
properties('MP2/aug-cc-pvtz', properties = ['dipole'])
--------------------------------------------------------------------------

    Molecular point group: c1
  Charge       = 0
  Multiplicity = 1
  Basis Set: AUG-CC-PVTZ
    Blend: AUG-CC-PVTZ
  Basis Set: (AUG-CC-PVTZ AUX)
    Blend: AUG-CC-PVTZ-JKFIT

    Orbital Energies [Eh]
    ---------------------

    Doubly Occupied:

       1A    -20.528625     2A    -15.585471     3A    -11.353473
       4A    -11.282030     5A    -11.253836     6A    -11.246858
       7A    -11.243581     8A    -11.242992     9A    -11.241964
      10A    -11.241291    11A    -11.239354    12A    -11.238248
      13A    -11.237532    14A     -1.391729    15A     -1.252158
      16A     -1.148972    17A     -1.100522    18A     -1.033426
      19A     -1.014570    20A     -0.974584    21A     -0.919397
      22A     -0.867690    23A     -0.832234    24A     -0.796849
      25A     -0.751146    26A     -0.690835    27A     -0.684430
      28A     -0.668801    29A     -0.651755    30A     -0.621860
      31A     -0.620872    32A     -0.609925    33A     -0.595344
      34A     -0.579808    35A     -0.574785    36A     -0.552312
      37A     -0.538586    38A     -0.524336    39A     -0.516807
      40A     -0.506730    41A     -0.497031    42A     -0.484457
      43A     -0.476462    44A     -0.427030    45A     -0.402820
      46A     -0.339923    47A     -0.313890

  @DF-RHF Final Energy:  -553.63457923932447

   => Energetics <=

    Nuclear Repulsion Energy =            796.7441504488375585
    One-Electron Energy =               -2332.9627938321300462
    Two-Electron Energy =                 982.5840641439681349
    Total Energy =                       -553.6345792393244665
  Basis Set: (AUG-CC-PVTZ AUX)
    Blend: AUG-CC-PVTZ-RI
    Molecular point group: c1

    Geometry (in Angstrom), charge = 0, multiplicity = 1:

       Center              X                  Y                   Z               Mass
    ------------   -----------------  -----------------  -----------------  -----------------
         O            3.084926681358    -0.586898459160    -0.215673132555    15.994914619570
         N            0.863653681358    -0.935978459160     0.196139867445    14.003074004430
         C            0.169006681358     1.711167540840     0.979037867445    12.000000000000
         C            1.134279681358     2.202708540840    -0.109954132555    12.000000000000
         C           -0.870476318642     0.770526540840     0.437151867445    12.000000000000
         C            1.536940681358     1.066590540840    -1.061253132555    12.000000000000
         C           -0.490737318642    -0.534119459160     0.060829867445    12.000000000000
         C            1.954422581358    -0.180626859160    -0.351462832555    12.000000000000
         C           -2.210771318642     1.141464540840     0.289150867445    12.000000000000
         C           -1.447398318642    -1.448528459160    -0.397316132555    12.000000000000
         C            1.170421681358    -2.229001459160     0.804440867445    12.000000000000
         C           -3.167076318642     0.235724540840    -0.173269132555    12.000000000000
         C           -2.782786318642    -1.063206459160    -0.512149132555    12.000000000000
         H           -0.317714318642     2.562480540840     1.467989867445     1.007825032230
         H            0.744511681358     1.183859540840     1.750179867445     1.007825032230
         H            0.666126681358     3.002046540840    -0.696665132555     1.007825032230
         H            2.027479681358     2.628961540840     0.361061867445     1.007825032230
         H            2.408035681358     1.352922540840    -1.655714132555     1.007825032230
         H            0.710791681358     0.854555540840    -1.748488132555     1.007825032230
         H           -2.512243318642     2.148394540840     0.573919867445     1.007825032230
         H           -1.138847318642    -2.450626459160    -0.685062132555     1.007825032230
         H            1.193211681358    -3.032977459160     0.060696867445     1.007825032230
         H            0.413309681358    -2.450932459160     1.558039867445     1.007825032230
         H            2.155662681358    -2.160543459160     1.264865867445     1.007825032230
         H           -4.206086318642     0.541471540840    -0.267520132555     1.007825032230
         H           -3.520320318642    -1.776842459160    -0.871375132555     1.007825032230

  Basis Set: AUG-CC-PVTZ
    Blend: AUG-CC-PVTZ
  Basis Set: (AUG-CC-PVTZ AUX)
    Blend: AUG-CC-PVTZ-JKFIT
	 Reference Energy          =    -553.6345792393244665 [Eh]
	 Singles Energy            =      -0.0000000000000000 [Eh]
	 Same-Spin Energy          =      -0.6034609185998010 [Eh]
	 Opposite-Spin Energy      =      -1.9023860958316481 [Eh]
	 Correlation Energy        =      -2.5058470144314491 [Eh]
	 Total Energy              =    -556.1404262537558907 [Eh]

	 ================> DF-SCS-MP2 Energies <==================
	-----------------------------------------------------------
	 SCS Same-Spin Scale       =       0.3333333333333333 [-]
	 SCS Opposite-Spin Scale   =       1.2000000000000000 [-]
	 SCS Same-Spin Energy      =      -0.2011536395332670 [Eh]
	 SCS Opposite-Spin Energy  =      -2.2828633149979778 [Eh]
	 SCS Correlation Energy    =      -2.4840169545312447 [Eh]
	 SCS Total Energy          =    -556.1185961938557512 [Eh]
	-----------------------------------------------------------

  Dipole Moment: [D]
     X:    -2.7582      Y:     0.7380      Z:     0.1375     Total:     2.8585

*** Psi4 exiting successfully. Buy a developer a beer!
