                               Psi4 1.4a2.dev612

  ==> Input File <==

--------------------------------------------------------------------------
#psi4
#
memory 32 gb

molecule  {
0 1
  O        3.0945450    -0.5978990    -0.2227500
  N        0.8802867    -0.9055974     0.2820412
  C        0.1786250     1.7001670     0.9719610
  C        1.1438980     2.1917080    -0.1170310
  C       -0.8608580     0.7595260     0.4300750
  C        1.5465590     1.0555900    -1.0683300
  C       -0.4811190    -0.5451200     0.0537530
  C        1.9260440    -0.2179400    -0.3394640
  C       -2.2011530     1.1304640     0.2820740
  C       -1.4377800    -1.4595290    -0.4043930
  C        1.1800400    -2.2400020     0.7973640
  C       -3.1574580     0.2247240    -0.1803460
  C       -2.7731680    -1.0742070    -0.5192260
  H       -0.3080960     2.5514800     1.4609130
  H        0.7541300     1.1728590     1.7431030
  H        0.6757450     2.9910460    -0.7037420
  H        2.0370980     2.6179610     0.3539850
  H        2.4176540     1.3419220    -1.6627910
  H        0.7204100     0.8435550    -1.7555650
  H       -2.5026250     2.1373940     0.5668430
  H       -1.1292290    -2.4616270    -0.6921390
  H        1.2028300    -3.0439780     0.0536200
  H        0.4229280    -2.4619330     1.5509630
  H        2.1652810    -2.1715440     1.2577890
  H       -4.1964680     0.5304710    -0.2745970
  H       -3.5107020    -1.7878430    -0.8784520
units angstrom
no_reorient  #important for SAPT in psi4, default
symmetry c1  #important for SAPT in psi4, default
}

set PROPERTIES_ORIGIN ["COM"]
properties('MP2/aug-cc-pvtz', properties = ['dipole'])
--------------------------------------------------------------------------

  Charge       = 0
  Multiplicity = 1
  Basis Set: AUG-CC-PVTZ
    Blend: AUG-CC-PVTZ
  Basis Set: (AUG-CC-PVTZ AUX)
    Blend: AUG-CC-PVTZ-JKFIT

    Orbital Energies [Eh]
    ---------------------

    Doubly Occupied:

       1A    -20.522014     2A    -15.593747     3A    -11.352111
       4A    -11.284777     5A    -11.256332     6A    -11.248530
       7A    -11.246594     8A    -11.245397     9A    -11.244390
      10A    -11.242026    11A    -11.240547    12A    -11.237775
      13A    -11.236891    14A     -1.375119    15A     -1.259100
      16A     -1.152723    17A     -1.099082    18A     -1.032376
      19A     -1.017927    20A     -0.975352    21A     -0.924740
      22A     -0.866026    23A     -0.837268    24A     -0.797196
      25A     -0.753870    26A     -0.689690    27A     -0.684691
      28A     -0.670682    29A     -0.653666    30A     -0.622782
      31A     -0.617423    32A     -0.610261    33A     -0.593534
      34A     -0.578876    35A     -0.573422    36A     -0.551721
      37A     -0.536046    38A     -0.522895    39A     -0.516301
      40A     -0.506702    41A     -0.496180    42A     -0.486155
      43A     -0.474220    44A     -0.421648    45A     -0.407389
      46A     -0.342390    47A     -0.318707

  @DF-RHF Final Energy:  -553.63348141759548

   => Energetics <=

    Nuclear Repulsion Energy =            797.1226587619770498
    One-Electron Energy =               -2333.6777011902313461
    Two-Electron Energy =                 982.9215610106587064
    Total Energy =                       -553.6334814175954762
  Basis Set: (AUG-CC-PVTZ AUX)
    Blend: AUG-CC-  DFHelper Memory: AOs need 11.217 GiB; user supplied 22.352 GiB. Using in-core AOs.
    Molecular point group: c1

    Geometry (in Angstrom), charge = 0, multiplicity = 1:

       Center              X                  Y                   Z               Mass
    ------------   -----------------  -----------------  -----------------  -----------------
         O            3.086969719742    -0.588404563317    -0.224416088098    15.994914619570
         N            0.872711419742    -0.896102963317     0.280375111902    14.003074004430
         C            0.171049719742     1.709661436683     0.970294911902    12.000000000000
         C            1.136322719742     2.201202436683    -0.118697088098    12.000000000000
         C           -0.868433280258     0.769020436683     0.428408911902    12.000000000000
         C            1.538983719742     1.065084436683    -1.069996088098    12.000000000000
         C           -0.488694280258    -0.535625563317     0.052086911902    12.000000000000
         C            1.918468719742    -0.208445563317    -0.341130088098    12.000000000000
         C           -2.208728280258     1.139958436683     0.280407911902    12.000000000000
         C           -1.445355280258    -1.450034563317    -0.406059088098    12.000000000000
         C            1.172464719742    -2.230507563317     0.795697911902    12.000000000000
         C           -3.165033280258     0.234218436683    -0.182012088098    12.000000000000
         C           -2.780743280258    -1.064712563317    -0.520892088098    12.000000000000
         H           -0.315671280258     2.560974436683     1.459246911902     1.007825032230
         H            0.746554719742     1.182353436683     1.741436911902     1.007825032230
         H            0.668169719742     3.000540436683    -0.705408088098     1.007825032230
         H            2.029522719742     2.627455436683     0.352318911902     1.007825032230
         H            2.410078719742     1.351416436683    -1.664457088098     1.007825032230
         H            0.712834719742     0.853049436683    -1.757231088098     1.007825032230
         H           -2.510200280258     2.146888436683     0.565176911902     1.007825032230
         H           -1.136804280258    -2.452132563317    -0.693805088098     1.007825032230
         H            1.195254719742    -3.034483563317     0.051953911902     1.007825032230
         H            0.415352719742    -2.452438563317     1.549296911902     1.007825032230
         H            2.157705719742    -2.162049563317     1.256122911902     1.007825032230
         H           -4.204043280258     0.539965436683    -0.276263088098     1.007825032230
         H           -3.518277280258    -1.778348563317    -0.880118088098     1.007825032230

  Basis Set: AUG-CC-PVTZ
    Blend: AUG-CC-PVTZ
  Basis Set: (AUG-CC-PVTZ AUX)
    Blend: AUG-CC-PVTZ-JKFIT
	 Reference Energy          =    -553.6334814175954762 [Eh]
	 Singles Energy            =      -0.0000000000000000 [Eh]
	 Same-Spin Energy          =      -0.6037979536479988 [Eh]
	 Opposite-Spin Energy      =      -1.9034839284158842 [Eh]
	 Correlation Energy        =      -2.5072818820638831 [Eh]
	 Total Energy              =    -556.1407632996593975 [Eh]

	 ================> DF-SCS-MP2 Energies <==================
	-----------------------------------------------------------
	 SCS Same-Spin Scale       =       0.3333333333333333 [-]
	 SCS Opposite-Spin Scale   =       1.2000000000000000 [-]
	 SCS Same-Spin Energy      =      -0.2012659845493329 [Eh]
	 SCS Opposite-Spin Energy  =      -2.2841807140990609 [Eh]
	 SCS Correlation Energy    =      -2.4854466986483938 [Eh]
	 SCS Total Energy          =    -556.1189281162438647 [Eh]
	-----------------------------------------------------------

  Dipole Moment: [D]
     X:    -3.1168      Y:     0.5830      Z:     0.1403     Total:     3.1739

*** Psi4 exiting successfully. Buy a developer a beer!
*** Psi4 exiting successfully. Buy a developer a beer!
