                               Psi4 1.3.2 release

  ==> Input File <==

--------------------------------------------------------------------------
#psi4
#
memory 32 gb

molecule  {
0 1
  O        3.0945450    -0.5978990    -0.2227500
  N        0.8732720    -0.9469790     0.1890630
  C        0.1786250     1.7001670     0.9719610
  C        1.1438980     2.1917080    -0.1170310
  C       -0.8608580     0.7595260     0.4300750
  C        1.5465590     1.0555900    -1.0683300
  C       -0.4811190    -0.5451200     0.0537530
  C        1.9561551    -0.2533364    -0.3260988
  C       -2.2011530     1.1304640     0.2820740
  C       -1.4377800    -1.4595290    -0.4043930
  C        1.1800400    -2.2400020     0.7973640
  C       -3.1574580     0.2247240    -0.1803460
  C       -2.7731680    -1.0742070    -0.5192260
  H       -0.3080960     2.5514800     1.4609130
  H        0.7541300     1.1728590     1.7431030
  H        0.6757450     2.9910460    -0.7037420
  H        2.0370980     2.6179610     0.3539850
  H        2.4176540     1.3419220    -1.6627910
  H        0.7204100     0.8435550    -1.7555650
  H       -2.5026250     2.1373940     0.5668430
  H       -1.1292290    -2.4616270    -0.6921390
  H        1.2028300    -3.0439780     0.0536200
  H        0.4229280    -2.4619330     1.5509630
  H        2.1652810    -2.1715440     1.2577890
  H       -4.1964680     0.5304710    -0.2745970
  H       -3.5107020    -1.7878430    -0.8784520
units angstrom
no_reorient  #important for SAPT in psi4, default
symmetry c1  #important for SAPT in psi4, default
}

set PROPERTIES_ORIGIN ["COM"]
properties('MP2/aug-cc-pvtz', properties = ['dipole'])
--------------------------------------------------------------------------

    Molecular point group: c1
  Charge       = 0
  Multiplicity = 1
  Basis Set: AUG-CC-PVTZ
    Blend: AUG-CC-PVTZ
  Basis Set: (AUG-CC-PVTZ AUX)
    Blend: AUG-CC-PVTZ-JKFIT

    Orbital Energies [Eh]
    ---------------------

    Doubly Occupied:

       1A    -20.524261     2A    -15.590884     3A    -11.347239
       4A    -11.285592     5A    -11.256461     6A    -11.249071
       7A    -11.245450     8A    -11.244300     9A    -11.244105
      10A    -11.241568    11A    -11.237522    12A    -11.236682
      13A    -11.234060    14A     -1.399085    15A     -1.264414
      16A     -1.153206    17A     -1.095155    18A     -1.027759
      19A     -1.018824    20A     -0.972493    21A     -0.922535
      22A     -0.865419    23A     -0.837058    24A     -0.797078
      25A     -0.753909    26A     -0.688651    27A     -0.683529
      28A     -0.670521    29A     -0.654188    30A     -0.623526
      31A     -0.620875    32A     -0.611633    33A     -0.596564
      34A     -0.578670    35A     -0.572859    36A     -0.554610
      37A     -0.539707    38A     -0.523425    39A     -0.518706
      40A     -0.509389    41A     -0.497593    42A     -0.482391
      43A     -0.476176    44A     -0.417639    45A     -0.406392
      46A     -0.341466    47A     -0.318000

  @DF-RHF Final Energy:  -553.63691650815508

   => Energetics <=

    Nuclear Repulsion Energy =            797.1243072112516757
    One-Electron Energy =               -2333.6611660234734700
    Two-Electron Energy =                 982.8999423040668262
    Total Energy =                       -553.6369165081550818
  Basis Set: (AUG-CC-PVTZ AUX)
    Blend: AUG-CC-PVTZ-RI
    Molecular point group: c1

    Geometry (in Angstrom), charge = 0, multiplicity = 1:

       Center              X                  Y                   Z               Mass
    ------------   -----------------  -----------------  -----------------  -----------------
         O            3.085467113994    -0.582669394572    -0.217896384616    15.994914619570
         N            0.864194113994    -0.931749394572     0.193916615384    14.003074004430
         C            0.169547113994     1.715396605428     0.976814615384    12.000000000000
         C            1.134820113994     2.206937605428    -0.112177384616    12.000000000000
         C           -0.869935886006     0.774755605428     0.434928615384    12.000000000000
         C            1.537481113994     1.070819605428    -1.063476384616    12.000000000000
         C           -0.490196886006    -0.529890394572     0.058606615384    12.000000000000
         C            1.947077213994    -0.238106794572    -0.321245184616    12.000000000000
         C           -2.210230886006     1.145693605428     0.286927615384    12.000000000000
         C           -1.446857886006    -1.444299394572    -0.399539384616    12.000000000000
         C            1.170962113994    -2.224772394572     0.802217615384    12.000000000000
         C           -3.166535886006     0.239953605428    -0.175492384616    12.000000000000
         C           -2.782245886006    -1.058977394572    -0.514372384616    12.000000000000
         H           -0.317173886006     2.566709605428     1.465766615384     1.007825032230
         H            0.745052113994     1.188088605428     1.747956615384     1.007825032230
         H            0.666667113994     3.006275605428    -0.698888384616     1.007825032230
         H            2.028020113994     2.633190605428     0.358838615384     1.007825032230
         H            2.408576113994     1.357151605428    -1.657937384616     1.007825032230
         H            0.711332113994     0.858784605428    -1.750711384616     1.007825032230
         H           -2.511702886006     2.152623605428     0.571696615384     1.007825032230
         H           -1.138306886006    -2.446397394572    -0.687285384616     1.007825032230
         H            1.193752113994    -3.028748394572     0.058473615384     1.007825032230
         H            0.413850113994    -2.446703394572     1.555816615384     1.007825032230
         H            2.156203113994    -2.156314394572     1.262642615384     1.007825032230
         H           -4.205545886006     0.545700605428    -0.269743384616     1.007825032230
         H           -3.519779886006    -1.772613394572    -0.873598384616     1.007825032230

  Basis Set: AUG-CC-PVTZ
    Blend: AUG-CC-PVTZ
  Basis Set: (AUG-CC-PVTZ AUX)
    Blend: AUG-CC-PVTZ-JKFIT
	 Reference Energy          =    -553.6369165081550818 [Eh]
	 Singles Energy            =      -0.0000000000000000 [Eh]
	 Same-Spin Energy          =      -0.6025290001470091 [Eh]
	 Opposite-Spin Energy      =      -1.9008787548807282 [Eh]
	 Correlation Energy        =      -2.5034077550277374 [Eh]
	 Total Energy              =    -556.1403242631828334 [Eh]

	 ================> DF-SCS-MP2 Energies <==================
	-----------------------------------------------------------
	 SCS Same-Spin Scale       =       0.3333333333333333 [-]
	 SCS Opposite-Spin Scale   =       1.2000000000000000 [-]
	 SCS Same-Spin Energy      =      -0.2008430000490030 [Eh]
	 SCS Opposite-Spin Energy  =      -2.2810545058568739 [Eh]
	 SCS Correlation Energy    =      -2.4818975059058768 [Eh]
	 SCS Total Energy          =    -556.1188140140609448 [Eh]
	-----------------------------------------------------------

  Dipole Moment: [D]
     X:    -2.9989      Y:     0.4559      Z:     0.3001     Total:     3.0482

*** Psi4 exiting successfully. Buy a developer a beer!
