                               Psi4 1.3.2 release

  ==> Input File <==

--------------------------------------------------------------------------
#psi4
#
memory 32 gb

molecule  {
0 1
  O        3.0945450    -0.5978990    -0.2227500
  N        0.8732720    -0.9469790     0.1890630
  C        0.1786250     1.7001670     0.9719610
  C        1.1438980     2.1917080    -0.1170310
  C       -0.8608580     0.7595260     0.4300750
  C        1.5465590     1.0555900    -1.0683300
  C       -0.4811190    -0.5451200     0.0537530
  C        1.8313714    -0.1871555    -0.3489202
  C       -2.2011530     1.1304640     0.2820740
  C       -1.4377800    -1.4595290    -0.4043930
  C        1.1800400    -2.2400020     0.7973640
  C       -3.1574580     0.2247240    -0.1803460
  C       -2.7731680    -1.0742070    -0.5192260
  H       -0.3080960     2.5514800     1.4609130
  H        0.7541300     1.1728590     1.7431030
  H        0.6757450     2.9910460    -0.7037420
  H        2.0370980     2.6179610     0.3539850
  H        2.4176540     1.3419220    -1.6627910
  H        0.7204100     0.8435550    -1.7555650
  H       -2.5026250     2.1373940     0.5668430
  H       -1.1292290    -2.4616270    -0.6921390
  H        1.2028300    -3.0439780     0.0536200
  H        0.4229280    -2.4619330     1.5509630
  H        2.1652810    -2.1715440     1.2577890
  H       -4.1964680     0.5304710    -0.2745970
  H       -3.5107020    -1.7878430    -0.8784520
units angstrom
no_reorient  #important for SAPT in psi4, default
symmetry c1  #important for SAPT in psi4, default
}

set PROPERTIES_ORIGIN ["COM"]
properties('MP2/aug-cc-pvtz', properties = ['dipole'])
--------------------------------------------------------------------------

    Molecular point group: c1
  Charge       = 0
  Multiplicity = 1
  Basis Set: AUG-CC-PVTZ
    Blend: AUG-CC-PVTZ
  Basis Set: (AUG-CC-PVTZ AUX)
    Blend: AUG-CC-PVTZ-JKFIT

    Orbital Energies [Eh]
    ---------------------

    Doubly Occupied:

       1A    -20.497031     2A    -15.607561     3A    -11.349485
       4A    -11.289019     5A    -11.263125     6A    -11.255131
       7A    -11.250347     8A    -11.249254     9A    -11.249004
      10A    -11.246655    11A    -11.243132    12A    -11.241813
      13A    -11.238363    14A     -1.338874    15A     -1.246319
      16A     -1.158427    17A     -1.106111    18A     -1.039207
      19A     -1.023590    20A     -0.987242    21A     -0.936448
      22A     -0.873845    23A     -0.843859    24A     -0.805077
      25A     -0.758865    26A     -0.697207    27A     -0.685920
      28A     -0.671907    29A     -0.656284    30A     -0.627472
      31A     -0.618381    32A     -0.605767    33A     -0.601218
      34A     -0.582888    35A     -0.562118    36A     -0.555476
      37A     -0.533397    38A     -0.529830    39A     -0.509839
      40A     -0.507158    41A     -0.494138    42A     -0.489810
      43A     -0.464994    44A     -0.408572    45A     -0.396184
      46A     -0.346245    47A     -0.323796

  @DF-RHF Final Energy:  -553.61539348989902

   => Energetics <=

    Nuclear Repulsion Energy =            798.0107656240005554
    One-Electron Energy =               -2335.3195523935564779
    Two-Electron Energy =                 983.6933932796567888
    Total Energy =                       -553.6153934898990201
  Basis Set: (AUG-CC-PVTZ AUX)
    Blend: AUG-CC-  DFHelper Memory: AOs need 11.218 GiB; user supplied 22.352 GiB. Using in-core AOs.
    Molecular point group: c1

    Geometry (in Angstrom), charge = 0, multiplicity = 1:

       Center              X                  Y                   Z               Mass
    ------------   -----------------  -----------------  -----------------  -----------------
         O            3.094018837840    -0.587204929106    -0.216332379777    15.994914619570
         N            0.872745837840    -0.936284929106     0.195480620223    14.003074004430
         C            0.178098837840     1.710861070894     0.978378620223    12.000000000000
         C            1.143371837840     2.202402070894    -0.110613379777    12.000000000000
         C           -0.861384162160     0.770220070894     0.436492620223    12.000000000000
         C            1.546032837840     1.066284070894    -1.061912379777    12.000000000000
         C           -0.481645162160    -0.534425929106     0.060170620223    12.000000000000
         C            1.830845237840    -0.176461429106    -0.342502579777    12.000000000000
         C           -2.201679162160     1.141158070894     0.288491620223    12.000000000000
         C           -1.438306162160    -1.448834929106    -0.397975379777    12.000000000000
         C            1.179513837840    -2.229307929106     0.803781620223    12.000000000000
         C           -3.157984162160     0.235418070894    -0.173928379777    12.000000000000
         C           -2.773694162160    -1.063512929106    -0.512808379777    12.000000000000
         H           -0.308622162160     2.562174070894     1.467330620223     1.007825032230
         H            0.753603837840     1.183553070894     1.749520620223     1.007825032230
         H            0.675218837840     3.001740070894    -0.697324379777     1.007825032230
         H            2.036571837840     2.628655070894     0.360402620223     1.007825032230
         H            2.417127837840     1.352616070894    -1.656373379777     1.007825032230
         H            0.719883837840     0.854249070894    -1.749147379777     1.007825032230
         H           -2.503151162160     2.148088070894     0.573260620223     1.007825032230
         H           -1.129755162160    -2.450932929106    -0.685721379777     1.007825032230
         H            1.202303837840    -3.033283929106     0.060037620223     1.007825032230
         H            0.422401837840    -2.451238929106     1.557380620223     1.007825032230
         H            2.164754837840    -2.160849929106     1.264206620223     1.007825032230
         H           -4.196994162160     0.541165070894    -0.268179379777     1.007825032230
         H           -3.511228162160    -1.777148929106    -0.872034379777     1.007825032230

  Basis Set: AUG-CC-PVTZ
    Blend: AUG-CC-PVTZ
  Basis Set: (AUG-CC-PVTZ AUX)
    Blend: AUG-CC-PVTZ-JKFIT
	 Reference Energy          =    -553.6153934898990201 [Eh]
	 Singles Energy            =      -0.0000000000000000 [Eh]
	 Same-Spin Energy          =      -0.6059781665579005 [Eh]
	 Opposite-Spin Energy      =      -1.9073716676529986 [Eh]
	 Correlation Energy        =      -2.5133498342108993 [Eh]
	 Total Energy              =    -556.1287433241099052 [Eh]

	 ================> DF-SCS-MP2 Energies <==================
	-----------------------------------------------------------
	 SCS Same-Spin Scale       =       0.3333333333333333 [-]
	 SCS Opposite-Spin Scale   =       1.2000000000000000 [-]
	 SCS Same-Spin Energy      =      -0.2019927221859668 [Eh]
	 SCS Opposite-Spin Energy  =      -2.2888460011835980 [Eh]
	 SCS Correlation Energy    =      -2.4908387233695648 [Eh]
	 SCS Total Energy          =    -556.1062322132686404 [Eh]
	-----------------------------------------------------------

  Dipole Moment: [D]
     X:    -4.0495      Y:     0.6229      Z:     0.3531     Total:     4.1123

*** Psi4 exiting successfully. Buy a developer a beer!
*** Psi4 exiting successfully. Buy a developer a beer!
