                               Psi4 1.3.2 release

  ==> Input File <==

--------------------------------------------------------------------------
#psi4
#
memory 32 gb

molecule  {
0 1
  O        3.0945450    -0.5978990    -0.2227500
  N        0.8732720    -0.9469790     0.1890630
  C        0.1786250     1.7001670     0.9719610
  C        1.1438980     2.1917080    -0.1170310
  C       -0.8608580     0.7595260     0.4300750
  C        1.5465590     1.0555900    -1.0683300
  C       -0.4949693    -0.5877550     0.0748336
  C        1.9260440    -0.2179400    -0.3394640
  C       -2.2011530     1.1304640     0.2820740
  C       -1.4377800    -1.4595290    -0.4043930
  C        1.1800400    -2.2400020     0.7973640
  C       -3.1574580     0.2247240    -0.1803460
  C       -2.7731680    -1.0742070    -0.5192260
  H       -0.3080960     2.5514800     1.4609130
  H        0.7541300     1.1728590     1.7431030
  H        0.6757450     2.9910460    -0.7037420
  H        2.0370980     2.6179610     0.3539850
  H        2.4176540     1.3419220    -1.6627910
  H        0.7204100     0.8435550    -1.7555650
  H       -2.5026250     2.1373940     0.5668430
  H       -1.1292290    -2.4616270    -0.6921390
  H        1.2028300    -3.0439780     0.0536200
  H        0.4229280    -2.4619330     1.5509630
  H        2.1652810    -2.1715440     1.2577890
  H       -4.1964680     0.5304710    -0.2745970
  H       -3.5107020    -1.7878430    -0.8784520
units angstrom
no_reorient  #important for SAPT in psi4, default
symmetry c1  #important for SAPT in psi4, default
}

set PROPERTIES_ORIGIN ["COM"]
properties('MP2/aug-cc-pvtz', properties = ['dipole'])
--------------------------------------------------------------------------

    Molecular point group: c1
  Charge       = 0
  Multiplicity = 1
  Basis Set: AUG-CC-PVTZ
    Blend: AUG-CC-PVTZ
  Basis Set: (AUG-CC-PVTZ AUX)
    Blend: AUG-CC-PVTZ-JKFIT

    Orbital Energies [Eh]
    ---------------------

    Doubly Occupied:

       1A    -20.519100     2A    -15.593758     3A    -11.351079
       4A    -11.285722     5A    -11.256211     6A    -11.253170
       7A    -11.245937     8A    -11.244655     9A    -11.242416
      10A    -11.242014    11A    -11.240301    12A    -11.238849
      13A    -11.236837    14A     -1.374261    15A     -1.261213
      16A     -1.153052    17A     -1.099792    18A     -1.031565
      19A     -1.021612    20A     -0.975587    21A     -0.925494
      22A     -0.869209    23A     -0.835838    24A     -0.798609
      25A     -0.756809    26A     -0.690146    27A     -0.683507
      28A     -0.669911    29A     -0.652618    30A     -0.624298
      31A     -0.617867    32A     -0.611059    33A     -0.597967
      34A     -0.578018    35A     -0.570949    36A     -0.554680
      37A     -0.536011    38A     -0.523389    39A     -0.519378
      40A     -0.504899    41A     -0.497027    42A     -0.484791
      43A     -0.474479    44A     -0.421146    45A     -0.405448
      46A     -0.343438    47A     -0.317634

  @DF-RHF Final Energy:  -553.63474634474460

   => Energetics <=

    Nuclear Repulsion Energy =            796.8981371185711851
    One-Electron Energy =               -2333.2022599863262258
    Two-Electron Energy =                 982.6693765230104418
    Total Energy =                       -553.6347463447445989
  Basis Set: (AUG-CC-PVTZ AUX)
    Blend: AUG-CC-PVTZ-RI
    Molecular point group: c1

    Geometry (in Angstrom), charge = 0, multiplicity = 1:

       Center              X                  Y                   Z               Mass
    ------------   -----------------  -----------------  -----------------  -----------------
         O            3.088479893329    -0.582173316092    -0.218425139334    15.994914619570
         N            0.867206893329    -0.931253316092     0.193387860666    14.003074004430
         C            0.172559893329     1.715892683908     0.976285860666    12.000000000000
         C            1.137832893329     2.207433683908    -0.112706139334    12.000000000000
         C           -0.866923106671     0.775251683908     0.434399860666    12.000000000000
         C            1.540493893329     1.071315683908    -1.064005139334    12.000000000000
         C           -0.501034406671    -0.572029316092     0.079158460666    12.000000000000
         C            1.919978893329    -0.202214316092    -0.335139139334    12.000000000000
         C           -2.207218106671     1.146189683908     0.286398860666    12.000000000000
         C           -1.443845106671    -1.443803316092    -0.400068139334    12.000000000000
         C            1.173974893329    -2.224276316092     0.801688860666    12.000000000000
         C           -3.163523106671     0.240449683908    -0.176021139334    12.000000000000
         C           -2.779233106671    -1.058481316092    -0.514901139334    12.000000000000
         H           -0.314161106671     2.567205683908     1.465237860666     1.007825032230
         H            0.748064893329     1.188584683908     1.747427860666     1.007825032230
         H            0.669679893329     3.006771683908    -0.699417139334     1.007825032230
         H            2.031032893329     2.633686683908     0.358309860666     1.007825032230
         H            2.411588893329     1.357647683908    -1.658466139334     1.007825032230
         H            0.714344893329     0.859280683908    -1.751240139334     1.007825032230
         H           -2.508690106671     2.153119683908     0.571167860666     1.007825032230
         H           -1.135294106671    -2.445901316092    -0.687814139334     1.007825032230
         H            1.196764893329    -3.028252316092     0.057944860666     1.007825032230
         H            0.416862893329    -2.446207316092     1.555287860666     1.007825032230
         H            2.159215893329    -2.155818316092     1.262113860666     1.007825032230
         H           -4.202533106671     0.546196683908    -0.270272139334     1.007825032230
         H           -3.516767106671    -1.772117316092    -0.874127139334     1.007825032230

  Basis Set: AUG-CC-PVTZ
    Blend: AUG-CC-PVTZ
  Basis Set: (AUG-CC-PVTZ AUX)
    Blend: AUG-CC-PVTZ-JKFIT
	 Reference Energy          =    -553.6347463447445989 [Eh]
	 Singles Energy            =      -0.0000000000000000 [Eh]
	 Same-Spin Energy          =      -0.6034980555955823 [Eh]
	 Opposite-Spin Energy      =      -1.9028594418394411 [Eh]
	 Correlation Energy        =      -2.5063574974350233 [Eh]
	 Total Energy              =    -556.1411038421796320 [Eh]

	 ================> DF-SCS-MP2 Energies <==================
	-----------------------------------------------------------
	 SCS Same-Spin Scale       =       0.3333333333333333 [-]
	 SCS Opposite-Spin Scale   =       1.2000000000000000 [-]
	 SCS Same-Spin Energy      =      -0.2011660185318608 [Eh]
	 SCS Opposite-Spin Energy  =      -2.2834313302073292 [Eh]
	 SCS Correlation Energy    =      -2.4845973487391899 [Eh]
	 SCS Total Energy          =    -556.1193436934837564 [Eh]
	-----------------------------------------------------------

  Dipole Moment: [D]
     X:    -3.2244      Y:     0.5958      Z:     0.2543     Total:     3.2888

*** Psi4 exiting successfully. Buy a developer a beer!
