                               Psi4 1.3.2 release

  ==> Input File <==

--------------------------------------------------------------------------
#psi4
#
memory 32 gb

molecule  {
0 1
  O        3.0945450    -0.5978990    -0.2227500
  N        0.8732720    -0.9469790     0.1890630
  C        0.1786250     1.7001670     0.9719610
  C        1.1438980     2.1917080    -0.1170310
  C       -0.8608580     0.7595260     0.4300750
  C        1.5465590     1.0555900    -1.0683300
  C       -0.5765513    -0.5168044     0.0442189
  C        1.9260440    -0.2179400    -0.3394640
  C       -2.2011530     1.1304640     0.2820740
  C       -1.4377800    -1.4595290    -0.4043930
  C        1.1800400    -2.2400020     0.7973640
  C       -3.1574580     0.2247240    -0.1803460
  C       -2.7731680    -1.0742070    -0.5192260
  H       -0.3080960     2.5514800     1.4609130
  H        0.7541300     1.1728590     1.7431030
  H        0.6757450     2.9910460    -0.7037420
  H        2.0370980     2.6179610     0.3539850
  H        2.4176540     1.3419220    -1.6627910
  H        0.7204100     0.8435550    -1.7555650
  H       -2.5026250     2.1373940     0.5668430
  H       -1.1292290    -2.4616270    -0.6921390
  H        1.2028300    -3.0439780     0.0536200
  H        0.4229280    -2.4619330     1.5509630
  H        2.1652810    -2.1715440     1.2577890
  H       -4.1964680     0.5304710    -0.2745970
  H       -3.5107020    -1.7878430    -0.8784520
units angstrom
no_reorient  #important for SAPT in psi4, default
symmetry c1  #important for SAPT in psi4, default
}

set PROPERTIES_ORIGIN ["COM"]
properties('MP2/aug-cc-pvtz', properties = ['dipole'])
--------------------------------------------------------------------------

    Molecular point group: c1
  Charge       = 0
  Multiplicity = 1
  Basis Set: AUG-CC-PVTZ
    Blend: AUG-CC-PVTZ
  Basis Set: (AUG-CC-PVTZ AUX)
    Blend: AUG-CC-PVTZ-JKFIT

    Orbital Energies [Eh]
    ---------------------

    Doubly Occupied:

       1A    -20.511886     2A    -15.586689     3A    -11.343568
       4A    -11.284015     5A    -11.252316     6A    -11.249505
       7A    -11.249005     8A    -11.247999     9A    -11.244987
      10A    -11.244561    11A    -11.241346    12A    -11.240021
      13A    -11.234336    14A     -1.366088    15A     -1.241565
      16A     -1.162465    17A     -1.100874    18A     -1.036886
      19A     -1.025178    20A     -0.973964    21A     -0.923029
      22A     -0.861043    23A     -0.841536    24A     -0.802292
      25A     -0.746660    26A     -0.691541    27A     -0.679901
      28A     -0.667381    29A     -0.646869    30A     -0.626137
      31A     -0.617263    32A     -0.613729    33A     -0.595042
      34A     -0.578483    35A     -0.570057    36A     -0.550760
      37A     -0.535488    38A     -0.525754    39A     -0.517677
      40A     -0.504034    41A     -0.499599    42A     -0.483622
      43A     -0.476035    44A     -0.413973    45A     -0.397344
      46A     -0.346808    47A     -0.330032

  @DF-RHF Final Energy:  -553.62698575433649

   => Energetics <=

    Nuclear Repulsion Energy =            797.0055604367478281
    One-Electron Energy =               -2333.5064087425680555
    Two-Electron Energy =                 982.8738625514837395
    Total Energy =                       -553.6269857543364878
  Basis Set: (AUG-CC-PVTZ AUX)
    Blend: AUG-CC-PVTZ-RI
    Molecular point group: c1

    Geometry (in Angstrom), charge = 0, multiplicity = 1:

       Center              X                  Y                   Z               Mass
    ------------   -----------------  -----------------  -----------------  -----------------
         O            3.094070901888    -0.587035729515    -0.216327041105    15.994914619570
         N            0.872797901888    -0.936115729515     0.195485958895    14.003074004430
         C            0.178150901888     1.711030270485     0.978383958895    12.000000000000
         C            1.143423901888     2.202571270485    -0.110608041105    12.000000000000
         C           -0.861332098112     0.770389270485     0.436497958895    12.000000000000
         C            1.546084901888     1.066453270485    -1.061907041105    12.000000000000
         C           -0.577025398112    -0.505941129515     0.050641858895    12.000000000000
         C            1.925569901888    -0.207076729515    -0.333041041105    12.000000000000
         C           -2.201627098112     1.141327270485     0.288496958895    12.000000000000
         C           -1.438254098112    -1.448665729515    -0.397970041105    12.000000000000
         C            1.179565901888    -2.229138729515     0.803786958895    12.000000000000
         C           -3.157932098112     0.235587270485    -0.173923041105    12.000000000000
         C           -2.773642098112    -1.063343729515    -0.512803041105    12.000000000000
         H           -0.308570098112     2.562343270485     1.467335958895     1.007825032230
         H            0.753655901888     1.183722270485     1.749525958895     1.007825032230
         H            0.675270901888     3.001909270485    -0.697319041105     1.007825032230
         H            2.036623901888     2.628824270485     0.360407958895     1.007825032230
         H            2.417179901888     1.352785270485    -1.656368041105     1.007825032230
         H            0.719935901888     0.854418270485    -1.749142041105     1.007825032230
         H           -2.503099098112     2.148257270485     0.573265958895     1.007825032230
         H           -1.129703098112    -2.450763729515    -0.685716041105     1.007825032230
         H            1.202355901888    -3.033114729515     0.060042958895     1.007825032230
         H            0.422453901888    -2.451069729515     1.557385958895     1.007825032230
         H            2.164806901888    -2.160680729515     1.264211958895     1.007825032230
         H           -4.196942098112     0.541334270485    -0.268174041105     1.007825032230
         H           -3.511176098112    -1.776979729515    -0.872029041105     1.007825032230

  Basis Set: AUG-CC-PVTZ
    Blend: AUG-CC-PVTZ
  Basis Set: (AUG-CC-PVTZ AUX)
    Blend: AUG-CC-PVTZ-JKFIT
	 Reference Energy          =    -553.6269857543364878 [Eh]
	 Singles Energy            =      -0.0000000000000000 [Eh]
	 Same-Spin Energy          =      -0.6030543974865519 [Eh]
	 Opposite-Spin Energy      =      -1.9024289053228385 [Eh]
	 Correlation Energy        =      -2.5054833028093904 [Eh]
	 Total Energy              =    -556.1324690571458405 [Eh]

	 ================> DF-SCS-MP2 Energies <==================
	-----------------------------------------------------------
	 SCS Same-Spin Scale       =       0.3333333333333333 [-]
	 SCS Opposite-Spin Scale   =       1.2000000000000000 [-]
	 SCS Same-Spin Energy      =      -0.2010181324955173 [Eh]
	 SCS Opposite-Spin Energy  =      -2.2829146863874059 [Eh]
	 SCS Correlation Energy    =      -2.4839328188829231 [Eh]
	 SCS Total Energy          =    -556.1109185732194646 [Eh]
	-----------------------------------------------------------

  Dipole Moment: [D]
     X:    -3.7129      Y:     0.6849      Z:     0.2562     Total:     3.7843

*** Psi4 exiting successfully. Buy a developer a beer!
