                               Psi4 1.3.2 release

  ==> Input File <==

--------------------------------------------------------------------------
#psi4
#
memory 32 gb

molecule  {
0 1
  O        3.0945450    -0.5978990    -0.2227500
  N        0.8732720    -0.9469790     0.1890630
  C        0.1786250     1.7001670     0.9719610
  C        1.1438980     2.1917080    -0.1170310
  C       -0.8608580     0.7595260     0.4300750
  C        1.5465590     1.0555900    -1.0683300
  C       -0.4811190    -0.5451200     0.0537530
  C        2.0780315    -0.1126895    -0.4157668
  C       -2.2011530     1.1304640     0.2820740
  C       -1.4377800    -1.4595290    -0.4043930
  C        1.1800400    -2.2400020     0.7973640
  C       -3.1574580     0.2247240    -0.1803460
  C       -2.7731680    -1.0742070    -0.5192260
  H       -0.3080960     2.5514800     1.4609130
  H        0.7541300     1.1728590     1.7431030
  H        0.6757450     2.9910460    -0.7037420
  H        2.0370980     2.6179610     0.3539850
  H        2.4176540     1.3419220    -1.6627910
  H        0.7204100     0.8435550    -1.7555650
  H       -2.5026250     2.1373940     0.5668430
  H       -1.1292290    -2.4616270    -0.6921390
  H        1.2028300    -3.0439780     0.0536200
  H        0.4229280    -2.4619330     1.5509630
  H        2.1652810    -2.1715440     1.2577890
  H       -4.1964680     0.5304710    -0.2745970
  H       -3.5107020    -1.7878430    -0.8784520
units angstrom
no_reorient  #important for SAPT in psi4, default
symmetry c1  #important for SAPT in psi4, default
}

set PROPERTIES_ORIGIN ["COM"]
properties('MP2/aug-cc-pvtz', properties = ['dipole'])
--------------------------------------------------------------------------

    Molecular point group: c1
  Charge       = 0
  Multiplicity = 1
  Basis Set: AUG-CC-PVTZ
    Blend: AUG-CC-PVTZ
  Basis Set: (AUG-CC-PVTZ AUX)
    Blend: AUG-CC-PVTZ-JKFIT

    Orbital Energies [Eh]
    ---------------------

    Doubly Occupied:

       1A    -20.559518     2A    -15.556678     3A    -11.365728
       4A    -11.270726     5A    -11.248281     6A    -11.246837
       7A    -11.242768     8A    -11.237543     9A    -11.236278
      10A    -11.236153    11A    -11.235175    12A    -11.230328
      13A    -11.230182    14A     -1.453946    15A     -1.223390
      16A     -1.134882    17A     -1.107428    18A     -1.037823
      19A     -1.002554    20A     -0.972602    21A     -0.900881
      22A     -0.868481    23A     -0.817252    24A     -0.788580
      25A     -0.746059    26A     -0.704842    27A     -0.679390
      28A     -0.676486    29A     -0.648664    30A     -0.630262
      31A     -0.619143    32A     -0.609646    33A     -0.595562
      34A     -0.579770    35A     -0.570514    36A     -0.558046
      37A     -0.541121    38A     -0.524802    39A     -0.521834
      40A     -0.504218    41A     -0.493288    42A     -0.482562
      43A     -0.480014    44A     -0.427946    45A     -0.387907
      46A     -0.332836    47A     -0.298270

  @DF-RHF Final Energy:  -553.60071423937347

   => Energetics <=

    Nuclear Repulsion Energy =            795.4717423471021220
    One-Electron Energy =               -2330.5105224264202661
    Two-Electron Energy =                 981.4380658399447839
    Total Energy =                       -553.6007142393734739
  Basis Set: (AUG-CC-PVTZ AUX)
    Blend: AUG-CC-PVTZ-RI
    Molecular point group: c1

    Geometry (in Angstrom), charge = 0, multiplicity = 1:

       Center              X                  Y                   Z               Mass
    ------------   -----------------  -----------------  -----------------  -----------------
         O            3.077114634334    -0.592308261255    -0.211751223238    15.994914619570
         N            0.855841634334    -0.941388261255     0.200061776762    14.003074004430
         C            0.161194634334     1.705757738745     0.982959776762    12.000000000000
         C            1.126467634334     2.197298738745    -0.106032223238    12.000000000000
         C           -0.878288365666     0.765116738745     0.441073776762    12.000000000000
         C            1.529128634334     1.061180738745    -1.057331223238    12.000000000000
         C           -0.498549365666    -0.539529261255     0.064751776762    12.000000000000
         C            2.060601134334    -0.107098761255    -0.404768023238    12.000000000000
         C           -2.218583365666     1.136054738745     0.293072776762    12.000000000000
         C           -1.455210365666    -1.453938261255    -0.393394223238    12.000000000000
         C            1.162609634334    -2.234411261255     0.808362776762    12.000000000000
         C           -3.174888365666     0.230314738745    -0.169347223238    12.000000000000
         C           -2.790598365666    -1.068616261255    -0.508227223238    12.000000000000
         H           -0.325526365666     2.557070738745     1.471911776762     1.007825032230
         H            0.736699634334     1.178449738745     1.754101776762     1.007825032230
         H            0.658314634334     2.996636738745    -0.692743223238     1.007825032230
         H            2.019667634334     2.623551738745     0.364983776762     1.007825032230
         H            2.400223634334     1.347512738745    -1.651792223238     1.007825032230
         H            0.702979634334     0.849145738745    -1.744566223238     1.007825032230
         H           -2.520055365666     2.142984738745     0.577841776762     1.007825032230
         H           -1.146659365666    -2.456036261255    -0.681140223238     1.007825032230
         H            1.185399634334    -3.038387261255     0.064618776762     1.007825032230
         H            0.405497634334    -2.456342261255     1.561961776762     1.007825032230
         H            2.147850634334    -2.165953261255     1.268787776762     1.007825032230
         H           -4.213898365666     0.536061738745    -0.263598223238     1.007825032230
         H           -3.528132365666    -1.782252261255    -0.867453223238     1.007825032230

  Basis Set: AUG-CC-PVTZ
    Blend: AUG-CC-PVTZ
  Basis Set: (AUG-CC-PVTZ AUX)
    Blend: AUG-CC-PVTZ-JKFIT
	 Reference Energy          =    -553.6007142393734739 [Eh]
	 Singles Energy            =      -0.0000000000000000 [Eh]
	 Same-Spin Energy          =      -0.6040467002978914 [Eh]
	 Opposite-Spin Energy      =      -1.9028316452935052 [Eh]
	 Correlation Energy        =      -2.5068783455913968 [Eh]
	 Total Energy              =    -556.1075925849648911 [Eh]

	 ================> DF-SCS-MP2 Energies <==================
	-----------------------------------------------------------
	 SCS Same-Spin Scale       =       0.3333333333333333 [-]
	 SCS Opposite-Spin Scale   =       1.2000000000000000 [-]
	 SCS Same-Spin Energy      =      -0.2013489000992971 [Eh]
	 SCS Opposite-Spin Energy  =      -2.2833979743522064 [Eh]
	 SCS Correlation Energy    =      -2.4847468744515036 [Eh]
	 SCS Total Energy          =    -556.0854611138249766 [Eh]
	-----------------------------------------------------------

  Dipole Moment: [D]
     X:    -1.2829      Y:     1.2712      Z:    -0.2981     Total:     1.8305

*** Psi4 exiting successfully. Buy a developer a beer!
