                               Psi4 1.4a2.dev612

  ==> Input File <==

--------------------------------------------------------------------------
#psi4
#
memory 32 gb

molecule  {
0 1
  O        3.0945450    -0.5978990    -0.2227500
  N        0.8703232    -0.9700459     0.1436574
  C        0.1786250     1.7001670     0.9719610
  C        1.1438980     2.1917080    -0.1170310
  C       -0.8608580     0.7595260     0.4300750
  C        1.5465590     1.0555900    -1.0683300
  C       -0.4811190    -0.5451200     0.0537530
  C        1.9260440    -0.2179400    -0.3394640
  C       -2.2011530     1.1304640     0.2820740
  C       -1.4377800    -1.4595290    -0.4043930
  C        1.1800400    -2.2400020     0.7973640
  C       -3.1574580     0.2247240    -0.1803460
  C       -2.7731680    -1.0742070    -0.5192260
  H       -0.3080960     2.5514800     1.4609130
  H        0.7541300     1.1728590     1.7431030
  H        0.6757450     2.9910460    -0.7037420
  H        2.0370980     2.6179610     0.3539850
  H        2.4176540     1.3419220    -1.6627910
  H        0.7204100     0.8435550    -1.7555650
  H       -2.5026250     2.1373940     0.5668430
  H       -1.1292290    -2.4616270    -0.6921390
  H        1.2028300    -3.0439780     0.0536200
  H        0.4229280    -2.4619330     1.5509630
  H        2.1652810    -2.1715440     1.2577890
  H       -4.1964680     0.5304710    -0.2745970
  H       -3.5107020    -1.7878430    -0.8784520
units angstrom
no_reorient  #important for SAPT in psi4, default
symmetry c1  #important for SAPT in psi4, default
}

set PROPERTIES_ORIGIN ["COM"]
properties('MP2/aug-cc-pvtz', properties = ['dipole'])
--------------------------------------------------------------------------

    Molecular point group: c1
  Charge       = 0
  Multiplicity = 1
  Basis Set: AUG-CC-PVTZ
    Blend: AUG-CC-PVTZ
  Basis Set: (AUG-CC-PVTZ AUX)
    Blend: AUG-CC-PVTZ-JKFIT

    Orbital Energies [Eh]
    ---------------------

    Doubly Occupied:

       1A    -20.517540     2A    -15.593879     3A    -11.349087
       4A    -11.285809     5A    -11.257543     6A    -11.250861
       7A    -11.245932     8A    -11.245533     9A    -11.244331
      10A    -11.242433    11A    -11.240136    12A    -11.238990
      13A    -11.236326    14A     -1.373407    15A     -1.261255
      16A     -1.153842    17A     -1.099498    18A     -1.032189
      19A     -1.019177    20A     -0.977171    21A     -0.925230
      22A     -0.868804    23A     -0.837279    24A     -0.799828
      25A     -0.754018    26A     -0.690451    27A     -0.683856
      28A     -0.668328    29A     -0.653924    30A     -0.623800
      31A     -0.618011    32A     -0.610163    33A     -0.599339
      34A     -0.578000    35A     -0.571644    36A     -0.555515
      37A     -0.535396    38A     -0.523702    39A     -0.517941
      40A     -0.509106    41A     -0.496487    42A     -0.484734
      43A     -0.473769    44A     -0.420564    45A     -0.403891
      46A     -0.342232    47A     -0.318836

  @DF-RHF Final Energy:  -553.63647281730448

   => Energetics <=

    Nuclear Repulsion Energy =            797.0992427004915726
    One-Electron Energy =               -2333.6118639592368709
    Two-Electron Energy =                 982.8761484414407050
    Total Energy =                       -553.6364728173044796
  Basis Set: (AUG-CC-PVTZ AUX)
    Blend: AUG-CC-PVTZ-RI
    Molecular point group: c1

    Geometry (in Angstrom), charge = 0, multiplicity = 1:

       Center              X                  Y                   Z               Mass
    ------------   -----------------  -----------------  -----------------  -----------------
         O            3.087766520745    -0.583250487995    -0.213349259103    15.994914619570
         N            0.863544720745    -0.955397387995     0.153058140897    14.003074004430
         C            0.171846520745     1.714815512005     0.981361740897    12.000000000000
         C            1.137119520745     2.206356512005    -0.107630259103    12.000000000000
         C           -0.867636479255     0.774174512005     0.439475740897    12.000000000000
         C            1.539780520745     1.070238512005    -1.058929259103    12.000000000000
         C           -0.487897479255    -0.530471487995     0.063153740897    12.000000000000
         C            1.919265520745    -0.203291487995    -0.330063259103    12.000000000000
         C           -2.207931479255     1.145112512005     0.291474740897    12.000000000000
         C           -1.444558479255    -1.444880487995    -0.394992259103    12.000000000000
         C            1.173261520745    -2.225353487995     0.806764740897    12.000000000000
         C           -3.164236479255     0.239372512005    -0.170945259103    12.000000000000
         C           -2.779946479255    -1.059558487995    -0.509825259103    12.000000000000
         H           -0.314874479255     2.566128512005     1.470313740897     1.007825032230
         H            0.747351520745     1.187507512005     1.752503740897     1.007825032230
         H            0.668966520745     3.005694512005    -0.694341259103     1.007825032230
         H            2.030319520745     2.632609512005     0.363385740897     1.007825032230
         H            2.410875520745     1.356570512005    -1.653390259103     1.007825032230
         H            0.713631520745     0.858203512005    -1.746164259103     1.007825032230
         H           -2.509403479255     2.152042512005     0.576243740897     1.007825032230
         H           -1.136007479255    -2.446978487995    -0.682738259103     1.007825032230
         H            1.196051520745    -3.029329487995     0.063020740897     1.007825032230
         H            0.416149520745    -2.447284487995     1.560363740897     1.007825032230
         H            2.158502520745    -2.156895487995     1.267189740897     1.007825032230
         H           -4.203246479255     0.545119512005    -0.265196259103     1.007825032230
         H           -3.517480479255    -1.773194487995    -0.869051259103     1.007825032230

  Basis Set: AUG-CC-PVTZ
    Blend: AUG-CC-PVTZ
  Basis Set: (AUG-CC-PVTZ AUX)
    Blend: AUG-CC-PVTZ-JKFIT
	 Reference Energy          =    -553.6364728173044796 [Eh]
	 Singles Energy            =      -0.0000000000000000 [Eh]
	 Same-Spin Energy          =      -0.6035218783316205 [Eh]
	 Opposite-Spin Energy      =      -1.9027006605748911 [Eh]
	 Correlation Energy        =      -2.5062225389065116 [Eh]
	 Total Energy              =    -556.1426953562109929 [Eh]

	 ================> DF-SCS-MP2 Energies <==================
	-----------------------------------------------------------
	 SCS Same-Spin Scale       =       0.3333333333333333 [-]
	 SCS Opposite-Spin Scale   =       1.2000000000000000 [-]
	 SCS Same-Spin Energy      =      -0.2011739594438735 [Eh]
	 SCS Opposite-Spin Energy  =      -2.2832407926898690 [Eh]
	 SCS Correlation Energy    =      -2.4844147521337425 [Eh]
	 SCS Total Energy          =    -556.1208875694381959 [Eh]
	-----------------------------------------------------------

  Dipole Moment: [D]
     X:    -3.2561      Y:     0.5998      Z:     0.3205     Total:     3.3264

*** Psi4 exiting successfully. Buy a developer a beer!
