                               Psi4 1.4a2.dev612

  ==> Input File <==

--------------------------------------------------------------------------
#psi4
#
memory 32 gb

molecule  {
0 1
  O        3.0945450    -0.5978990    -0.2227500
  N        0.8732720    -0.9469790     0.1890630
  C        0.1786250     1.7001670     0.9719610
  C        1.1438980     2.1917080    -0.1170310
  C       -0.8608580     0.7595260     0.4300750
  C        1.5465590     1.0555900    -1.0683300
  C       -0.4811190    -0.5451200     0.0537530
  C        1.7366989    -0.1563710    -0.3583765
  C       -2.2011530     1.1304640     0.2820740
  C       -1.4377800    -1.4595290    -0.4043930
  C        1.1800400    -2.2400020     0.7973640
  C       -3.1574580     0.2247240    -0.1803460
  C       -2.7731680    -1.0742070    -0.5192260
  H       -0.3080960     2.5514800     1.4609130
  H        0.7541300     1.1728590     1.7431030
  H        0.6757450     2.9910460    -0.7037420
  H        2.0370980     2.6179610     0.3539850
  H        2.4176540     1.3419220    -1.6627910
  H        0.7204100     0.8435550    -1.7555650
  H       -2.5026250     2.1373940     0.5668430
  H       -1.1292290    -2.4616270    -0.6921390
  H        1.2028300    -3.0439780     0.0536200
  H        0.4229280    -2.4619330     1.5509630
  H        2.1652810    -2.1715440     1.2577890
  H       -4.1964680     0.5304710    -0.2745970
  H       -3.5107020    -1.7878430    -0.8784520
units angstrom
no_reorient  #important for SAPT in psi4, default
symmetry c1  #important for SAPT in psi4, default
}

set PROPERTIES_ORIGIN ["COM"]
properties('MP2/aug-cc-pvtz', properties = ['dipole'])
--------------------------------------------------------------------------

    Molecular point group: c1
  Charge       = 0
  Multiplicity = 1
  Basis Set: AUG-CC-PVTZ
    Blend: AUG-CC-PVTZ
  Basis Set: (AUG-CC-PVTZ AUX)
    Blend: AUG-CC-PVTZ-JKFIT

    Orbital Energies [Eh]
    ---------------------

    Doubly Occupied:

       1A    -20.476325     2A    -15.620599     3A    -11.346961
       4A    -11.292007     5A    -11.268676     6A    -11.259824
       7A    -11.254405     8A    -11.252982     9A    -11.252655
      10A    -11.250600    11A    -11.245967    12A    -11.245010
      13A    -11.239660    14A     -1.342343    15A     -1.208746
      16A     -1.161299    17A     -1.112259    18A     -1.045445
      19A     -1.027366    20A     -0.997008    21A     -0.947650
      22A     -0.878550    23A     -0.849613    24A     -0.810814
      25A     -0.763046    26A     -0.704802    27A     -0.690273
      28A     -0.677275    29A     -0.658297    30A     -0.633742
      31A     -0.622931    32A     -0.612088    33A     -0.601433
      34A     -0.587263    35A     -0.564132    36A     -0.550312
      37A     -0.537843    38A     -0.534080    39A     -0.513095
      40A     -0.498254    41A     -0.495629    42A     -0.471740
      43A     -0.462079    44A     -0.389495    45A     -0.379739
      46A     -0.349761    47A     -0.327109

  @DF-RHF Final Energy:  -553.57274539417494

   => Energetics <=

    Nuclear Repulsion Energy =            799.0050232436474289
    One-Electron Energy =               -2337.1331764421206572
    Two-Electron Energy =                 984.5554078042982837
    Total Energy =                       -553.5727453941749445
  Basis Set: (AUG-CC-PVTZ AUX)
    Blend: AUG-CC-PVTZ-RI
    Molecular point group: c1

    Geometry (in Angstrom), charge = 0, multiplicity = 1:

       Center              X                  Y                   Z               Mass
    ------------   -----------------  -----------------  -----------------  -----------------
         O            3.100506969509    -0.589314664134    -0.215684317040    15.994914619570
         N            0.879233969509    -0.938394664134     0.196128682960    14.003074004430
         C            0.184586969509     1.708751335866     0.979026682960    12.000000000000
         C            1.149859969509     2.200292335866    -0.109965317040    12.000000000000
         C           -0.854896030491     0.768110335866     0.437140682960    12.000000000000
         C            1.552520969509     1.064174335866    -1.061264317040    12.000000000000
         C           -0.475157030491    -0.536535664134     0.060818682960    12.000000000000
         C            1.742660869509    -0.147786664134    -0.351310817040    12.000000000000
         C           -2.195191030491     1.139048335866     0.289139682960    12.000000000000
         C           -1.431818030491    -1.450944664134    -0.397327317040    12.000000000000
         C            1.186001969509    -2.231417664134     0.804429682960    12.000000000000
         C           -3.151496030491     0.233308335866    -0.173280317040    12.000000000000
         C           -2.767206030491    -1.065622664134    -0.512160317040    12.000000000000
         H           -0.302134030491     2.560064335866     1.467978682960     1.007825032230
         H            0.760091969509     1.181443335866     1.750168682960     1.007825032230
         H            0.681706969509     2.999630335866    -0.696676317040     1.007825032230
         H            2.043059969509     2.626545335866     0.361050682960     1.007825032230
         H            2.423615969509     1.350506335866    -1.655725317040     1.007825032230
         H            0.726371969509     0.852139335866    -1.748499317040     1.007825032230
         H           -2.496663030491     2.145978335866     0.573908682960     1.007825032230
         H           -1.123267030491    -2.453042664134    -0.685073317040     1.007825032230
         H            1.208791969509    -3.035393664134     0.060685682960     1.007825032230
         H            0.428889969509    -2.453348664134     1.558028682960     1.007825032230
         H            2.171242969509    -2.162959664134     1.264854682960     1.007825032230
         H           -4.190506030491     0.539055335866    -0.267531317040     1.007825032230
         H           -3.504740030491    -1.779258664134    -0.871386317040     1.007825032230

  Basis Set: AUG-CC-PVTZ
    Blend: AUG-CC-PVTZ
  Basis Set: (AUG-CC-PVTZ AUX)
    Blend: AUG-CC-PVTZ-JKFIT
	 Reference Energy          =    -553.5727453941749445 [Eh]
	 Singles Energy            =      -0.0000000000000000 [Eh]
	 Same-Spin Energy          =      -0.6084019653518784 [Eh]
	 Opposite-Spin Energy      =      -1.9120817299027650 [Eh]
	 Correlation Energy        =      -2.5204836952546437 [Eh]
	 Total Energy              =    -556.0932290894295420 [Eh]

	 ================> DF-SCS-MP2 Energies <==================
	-----------------------------------------------------------
	 SCS Same-Spin Scale       =       0.3333333333333333 [-]
	 SCS Opposite-Spin Scale   =       1.2000000000000000 [-]
	 SCS Same-Spin Energy      =      -0.2028006551172928 [Eh]
	 SCS Opposite-Spin Energy  =      -2.2944980758833178 [Eh]
	 SCS Correlation Energy    =      -2.4972987310006105 [Eh]
	 SCS Total Energy          =    -556.0700441251755137 [Eh]
	-----------------------------------------------------------

  Dipole Moment: [D]
     X:    -4.8108      Y:     0.6618      Z:     0.4351     Total:     4.8756

*** Psi4 exiting successfully. Buy a developer a beer!
