                               Psi4 1.3.2 release

  ==> Input File <==

--------------------------------------------------------------------------
#psi4
#
memory 32 gb

molecule  {
0 1
  O        3.0945450    -0.5978990    -0.2227500
  N        0.8732720    -0.9469790     0.1890630
  C        0.1786250     1.7001670     0.9719610
  C        1.1438980     2.1917080    -0.1170310
  C       -0.8608580     0.7595260     0.4300750
  C        1.5465590     1.0555900    -1.0683300
  C       -0.4811190    -0.5451200     0.0537530
  C        1.9260440    -0.2179400    -0.3394640
  C       -2.2011530     1.1304640     0.2820740
  C       -1.4377800    -1.4595290    -0.4043930
  C        1.1380607    -2.0630600     0.7141218
  C       -3.1574580     0.2247240    -0.1803460
  C       -2.7731680    -1.0742070    -0.5192260
  H       -0.3080960     2.5514800     1.4609130
  H        0.7541300     1.1728590     1.7431030
  H        0.6757450     2.9910460    -0.7037420
  H        2.0370980     2.6179610     0.3539850
  H        2.4176540     1.3419220    -1.6627910
  H        0.7204100     0.8435550    -1.7555650
  H       -2.5026250     2.1373940     0.5668430
  H       -1.1292290    -2.4616270    -0.6921390
  H        1.2028300    -3.0439780     0.0536200
  H        0.4229280    -2.4619330     1.5509630
  H        2.1652810    -2.1715440     1.2577890
  H       -4.1964680     0.5304710    -0.2745970
  H       -3.5107020    -1.7878430    -0.8784520
units angstrom
no_reorient  #important for SAPT in psi4, default
symmetry c1  #important for SAPT in psi4, default
}

set PROPERTIES_ORIGIN ["COM"]
properties('MP2/aug-cc-pvtz', properties = ['dipole'])
--------------------------------------------------------------------------

    Molecular point group: c1
  Charge       = 0
  Multiplicity = 1
  Basis Set: AUG-CC-PVTZ
    Blend: AUG-CC-PVTZ
  Basis Set: (AUG-CC-PVTZ AUX)
    Blend: AUG-CC-PVTZ-JKFIT

    Orbital Energies [Eh]
    ---------------------

    Doubly Occupied:

       1A    -20.527083     2A    -15.596524     3A    -11.355897
       4A    -11.289532     5A    -11.259596     6A    -11.254583
       7A    -11.249051     8A    -11.248041     9A    -11.247673
      10A    -11.245764    11A    -11.243678    12A    -11.241995
      13A    -11.240917    14A     -1.391214    15A     -1.303288
      16A     -1.164504    17A     -1.105239    18A     -1.036489
      19A     -1.028189    20A     -0.983767    21A     -0.922453
      22A     -0.871765    23A     -0.840019    24A     -0.805919
      25A     -0.763494    26A     -0.711021    27A     -0.692776
      28A     -0.679453    29A     -0.666502    30A     -0.628865
      31A     -0.622132    32A     -0.615504    33A     -0.609584
      34A     -0.585006    35A     -0.579918    36A     -0.539132
      37A     -0.529282    38A     -0.524250    39A     -0.507367
      40A     -0.500222    41A     -0.488099    42A     -0.484499
      43A     -0.475120    44A     -0.427212    45A     -0.392379
      46A     -0.344581    47A     -0.321425

  @DF-RHF Final Energy:  -553.58764844814584

   => Energetics <=

    Nuclear Repulsion Energy =            802.2973228865315605
    One-Electron Energy =               -2343.4879364824073491
    Two-Electron Energy =                 987.6029651477298330
    Total Energy =                       -553.5876484481458419
  Basis Set: (AUG-CC-PVTZ AUX)
    Blend: AUG-CC-PVTZ-RI
    Molecular point group: c1

    Geometry (in Angstrom), charge = 0, multiplicity = 1:

       Center              X                  Y                   Z               Mass
    ------------   -----------------  -----------------  -----------------  -----------------
         O            3.090407640623    -0.597221450319    -0.211275649646    15.994914619570
         N            0.869134640623    -0.946301450319     0.200537350354    14.003074004430
         C            0.174487640623     1.700844549681     0.983435350354    12.000000000000
         C            1.139760640623     2.192385549681    -0.105556649646    12.000000000000
         C           -0.864995359377     0.760203549681     0.441549350354    12.000000000000
         C            1.542421640623     1.056267549681    -1.056855649646    12.000000000000
         C           -0.485256359377    -0.544442450319     0.065227350354    12.000000000000
         C            1.921906640623    -0.217262450319    -0.327989649646    12.000000000000
         C           -2.205290359377     1.131141549681     0.293548350354    12.000000000000
         C           -1.441917359377    -1.458851450319    -0.392918649646    12.000000000000
         C            1.133923340623    -2.062382450319     0.725596150354    12.000000000000
         C           -3.161595359377     0.225401549681    -0.168871649646    12.000000000000
         C           -2.777305359377    -1.073529450319    -0.507751649646    12.000000000000
         H           -0.312233359377     2.552157549681     1.472387350354     1.007825032230
         H            0.749992640623     1.173536549681     1.754577350354     1.007825032230
         H            0.671607640623     2.991723549681    -0.692267649646     1.007825032230
         H            2.032960640623     2.618638549681     0.365459350354     1.007825032230
         H            2.413516640623     1.342599549681    -1.651316649646     1.007825032230
         H            0.716272640623     0.844232549681    -1.744090649646     1.007825032230
         H           -2.506762359377     2.138071549681     0.578317350354     1.007825032230
         H           -1.133366359377    -2.460949450319    -0.680664649646     1.007825032230
         H            1.198692640623    -3.043300450319     0.065094350354     1.007825032230
         H            0.418790640623    -2.461255450319     1.562437350354     1.007825032230
         H            2.161143640623    -2.170866450319     1.269263350354     1.007825032230
         H           -4.200605359377     0.531148549681    -0.263122649646     1.007825032230
         H           -3.514839359377    -1.787165450319    -0.866977649646     1.007825032230

  Basis Set: AUG-CC-PVTZ
    Blend: AUG-CC-PVTZ
  Basis Set: (AUG-CC-PVTZ AUX)
    Blend: AUG-CC-PVTZ-JKFIT
	 Reference Energy          =    -553.5876484481458419 [Eh]
	 Singles Energy            =      -0.0000000000000000 [Eh]
	 Same-Spin Energy          =      -0.6064925188349277 [Eh]
	 Opposite-Spin Energy      =      -1.9058772823829542 [Eh]
	 Correlation Energy        =      -2.5123698012178819 [Eh]
	 Total Energy              =    -556.1000182493637567 [Eh]

	 ================> DF-SCS-MP2 Energies <==================
	-----------------------------------------------------------
	 SCS Same-Spin Scale       =       0.3333333333333333 [-]
	 SCS Opposite-Spin Scale   =       1.2000000000000000 [-]
	 SCS Same-Spin Energy      =      -0.2021641729449759 [Eh]
	 SCS Opposite-Spin Energy  =      -2.2870527388595447 [Eh]
	 SCS Correlation Energy    =      -2.4892169118045206 [Eh]
	 SCS Total Energy          =    -556.0768653599503750 [Eh]
	-----------------------------------------------------------

  Dipole Moment: [D]
     X:    -3.3411      Y:     1.2055      Z:     0.0626     Total:     3.5525

*** Psi4 exiting successfully. Buy a developer a beer!
