                               Psi4 1.3.2 release

  ==> Input File <==

--------------------------------------------------------------------------
#psi4
#
memory 32 gb

molecule  {
0 1
  O        3.0945450    -0.5978990    -0.2227500
  N        0.8732720    -0.9469790     0.1890630
  C        0.1786250     1.7001670     0.9719610
  C        1.1438980     2.1917080    -0.1170310
  C       -0.8608580     0.7595260     0.4300750
  C        1.5465590     1.0555900    -1.0683300
  C       -0.4658925    -0.5054056     0.0283585
  C        1.9260440    -0.2179400    -0.3394640
  C       -2.2011530     1.1304640     0.2820740
  C       -1.4377800    -1.4595290    -0.4043930
  C        1.1800400    -2.2400020     0.7973640
  C       -3.1574580     0.2247240    -0.1803460
  C       -2.7731680    -1.0742070    -0.5192260
  H       -0.3080960     2.5514800     1.4609130
  H        0.7541300     1.1728590     1.7431030
  H        0.6757450     2.9910460    -0.7037420
  H        2.0370980     2.6179610     0.3539850
  H        2.4176540     1.3419220    -1.6627910
  H        0.7204100     0.8435550    -1.7555650
  H       -2.5026250     2.1373940     0.5668430
  H       -1.1292290    -2.4616270    -0.6921390
  H        1.2028300    -3.0439780     0.0536200
  H        0.4229280    -2.4619330     1.5509630
  H        2.1652810    -2.1715440     1.2577890
  H       -4.1964680     0.5304710    -0.2745970
  H       -3.5107020    -1.7878430    -0.8784520
units angstrom
no_reorient  #important for SAPT in psi4, default
symmetry c1  #important for SAPT in psi4, default
}

set PROPERTIES_ORIGIN ["COM"]
properties('MP2/aug-cc-pvtz', properties = ['dipole'])
--------------------------------------------------------------------------

    Molecular point group: c1
  Charge       = 0
  Multiplicity = 1
  Basis Set: AUG-CC-PVTZ
    Blend: AUG-CC-PVTZ
  Basis Set: (AUG-CC-PVTZ AUX)
    Blend: AUG-CC-PVTZ-JKFIT

    Orbital Energies [Eh]
    ---------------------

    Doubly Occupied:

       1A    -20.517604     2A    -15.593877     3A    -11.348518
       4A    -11.285434     5A    -11.258684     6A    -11.247989
       7A    -11.247443     8A    -11.245619     9A    -11.245390
      10A    -11.242435    11A    -11.240091    12A    -11.237837
      13A    -11.236404    14A     -1.373353    15A     -1.261330
      16A     -1.154088    17A     -1.098996    18A     -1.033405
      19A     -1.016114    20A     -0.977882    21A     -0.925267
      22A     -0.867110    23A     -0.839205    24A     -0.799336
      25A     -0.751900    26A     -0.690606    27A     -0.684456
      28A     -0.668757    29A     -0.655482    30A     -0.622629
      31A     -0.617288    32A     -0.609135    33A     -0.597418
      34A     -0.578712    35A     -0.573310    36A     -0.554325
      37A     -0.535361    38A     -0.523553    39A     -0.516181
      40A     -0.511208    41A     -0.495906    42A     -0.485511
      43A     -0.472818    44A     -0.420056    45A     -0.404445
      46A     -0.341781    47A     -0.318980

  @DF-RHF Final Energy:  -553.63458746179708

   => Energetics <=

    Nuclear Repulsion Energy =            797.4891309023167878
    One-Electron Energy =               -2334.4009741339077664
    Two-Electron Energy =                 983.2772557697937827
    Total Energy =                       -553.6345874617970821
  Basis Set: (AUG-CC-PVTZ AUX)
    Blend: AUG-CC-PVTZ-RI
    Molecular point group: c1

    Geometry (in Angstrom), charge = 0, multiplicity = 1:

       Center              X                  Y                   Z               Mass
    ------------   -----------------  -----------------  -----------------  -----------------
         O            3.086487191045    -0.587816916399    -0.215240090158    15.994914619570
         N            0.865214191045    -0.936896916399     0.196572909842    14.003074004430
         C            0.170567191045     1.710249083601     0.979470909842    12.000000000000
         C            1.135840191045     2.201790083601    -0.109521090158    12.000000000000
         C           -0.868915808955     0.769608083601     0.437584909842    12.000000000000
         C            1.538501191045     1.065672083601    -1.060820090158    12.000000000000
         C           -0.473950308955    -0.495323516399     0.035868409842    12.000000000000
         C            1.917986191045    -0.207857916399    -0.331954090158    12.000000000000
         C           -2.209210808955     1.140546083601     0.289583909842    12.000000000000
         C           -1.445837808955    -1.449446916399    -0.396883090158    12.000000000000
         C            1.171982191045    -2.229919916399     0.804873909842    12.000000000000
         C           -3.165515808955     0.234806083601    -0.172836090158    12.000000000000
         C           -2.781225808955    -1.064124916399    -0.511716090158    12.000000000000
         H           -0.316153808955     2.561562083601     1.468422909842     1.007825032230
         H            0.746072191045     1.182941083601     1.750612909842     1.007825032230
         H            0.667687191045     3.001128083601    -0.696232090158     1.007825032230
         H            2.029040191045     2.628043083601     0.361494909842     1.007825032230
         H            2.409596191045     1.352004083601    -1.655281090158     1.007825032230
         H            0.712352191045     0.853637083601    -1.748055090158     1.007825032230
         H           -2.510682808955     2.147476083601     0.574352909842     1.007825032230
         H           -1.137286808955    -2.451544916399    -0.684629090158     1.007825032230
         H            1.194772191045    -3.033895916399     0.061129909842     1.007825032230
         H            0.414870191045    -2.451850916399     1.558472909842     1.007825032230
         H            2.157223191045    -2.161461916399     1.265298909842     1.007825032230
         H           -4.204525808955     0.540553083601    -0.267087090158     1.007825032230
         H           -3.518759808955    -1.777760916399    -0.870942090158     1.007825032230

  Basis Set: AUG-CC-PVTZ
    Blend: AUG-CC-PVTZ
  Basis Set: (AUG-CC-PVTZ AUX)
    Blend: AUG-CC-PVTZ-JKFIT
	 Reference Energy          =    -553.6345874617970821 [Eh]
	 Singles Energy            =      -0.0000000000000000 [Eh]
	 Same-Spin Energy          =      -0.6036950144472162 [Eh]
	 Opposite-Spin Energy      =      -1.9030833419825157 [Eh]
	 Correlation Energy        =      -2.5067783564297317 [Eh]
	 Total Energy              =    -556.1413658182268591 [Eh]

	 ================> DF-SCS-MP2 Energies <==================
	-----------------------------------------------------------
	 SCS Same-Spin Scale       =       0.3333333333333333 [-]
	 SCS Opposite-Spin Scale   =       1.2000000000000000 [-]
	 SCS Same-Spin Energy      =      -0.2012316714824054 [Eh]
	 SCS Opposite-Spin Energy  =      -2.2837000103790186 [Eh]
	 SCS Correlation Energy    =      -2.4849316818614238 [Eh]
	 SCS Total Energy          =    -556.1195191436585219 [Eh]
	-----------------------------------------------------------

  Dipole Moment: [D]
     X:    -3.2293      Y:     0.5699      Z:     0.2818     Total:     3.2913

*** Psi4 exiting successfully. Buy a developer a beer!
