                               Psi4 1.3.2 release

  ==> Input File <==

--------------------------------------------------------------------------
#psi4
#
memory 32 gb

molecule  {
0 1
  O        3.0945450    -0.5978990    -0.2227500
  N        0.8732720    -0.9469790     0.1890630
  C        0.1786250     1.7001670     0.9719610
  C        1.1438980     2.1917080    -0.1170310
  C       -0.8608580     0.7595260     0.4300750
  C        1.5465590     1.0555900    -1.0683300
  C       -0.4882515    -0.5663795     0.0642743
  C        1.9260440    -0.2179400    -0.3394640
  C       -2.2011530     1.1304640     0.2820740
  C       -1.4377800    -1.4595290    -0.4043930
  C        1.1800400    -2.2400020     0.7973640
  C       -3.1574580     0.2247240    -0.1803460
  C       -2.7731680    -1.0742070    -0.5192260
  H       -0.3080960     2.5514800     1.4609130
  H        0.7541300     1.1728590     1.7431030
  H        0.6757450     2.9910460    -0.7037420
  H        2.0370980     2.6179610     0.3539850
  H        2.4176540     1.3419220    -1.6627910
  H        0.7204100     0.8435550    -1.7555650
  H       -2.5026250     2.1373940     0.5668430
  H       -1.1292290    -2.4616270    -0.6921390
  H        1.2028300    -3.0439780     0.0536200
  H        0.4229280    -2.4619330     1.5509630
  H        2.1652810    -2.1715440     1.2577890
  H       -4.1964680     0.5304710    -0.2745970
  H       -3.5107020    -1.7878430    -0.8784520
units angstrom
no_reorient  #important for SAPT in psi4, default
symmetry c1  #important for SAPT in psi4, default
}

set PROPERTIES_ORIGIN ["COM"]
properties('MP2/aug-cc-pvtz', properties = ['dipole'])
--------------------------------------------------------------------------

    Molecular point group: c1
  Charge       = 0
  Multiplicity = 1
  Basis Set: AUG-CC-PVTZ
    Blend: AUG-CC-PVTZ
  Basis Set: (AUG-CC-PVTZ AUX)
    Blend: AUG-CC-PVTZ-JKFIT

    Orbital Energies [Eh]
    ---------------------

    Doubly Occupied:

       1A    -20.518737     2A    -15.593800     3A    -11.350435
       4A    -11.285656     5A    -11.256815     6A    -11.251619
       7A    -11.245990     8A    -11.244939     9A    -11.243480
      10A    -11.242315    11A    -11.240235    12A    -11.238602
      13A    -11.236722    14A     -1.374037    15A     -1.261234
      16A     -1.153286    17A     -1.099553    18A     -1.031784
      19A     -1.020378    20A     -0.976227    21A     -0.925403
      22A     -0.868732    23A     -0.836691    24A     -0.798882
      25A     -0.755632    26A     -0.690180    27A     -0.683858
      28A     -0.669573    29A     -0.653299    30A     -0.623814
      31A     -0.617727    32A     -0.610721    33A     -0.597923
      34A     -0.578048    35A     -0.571704    36A     -0.554603
      37A     -0.535853    38A     -0.523440    39A     -0.518526
      40A     -0.506723    41A     -0.496776    42A     -0.485032
      43A     -0.474276    44A     -0.420869    45A     -0.405216
      46A     -0.342813    47A     -0.318172

  @DF-RHF Final Energy:  -553.63628573422955

   => Energetics <=

    Nuclear Repulsion Energy =            797.0553587061766621
    One-Electron Energy =               -2333.5226338886741360
    Two-Electron Energy =                 982.8309894482678146
    Total Energy =                       -553.6362857342295456
  Basis Set: (AUG-CC-PVTZ AUX)
    Blend: AUG-CC-PVTZ-RI
    Molecular point group: c1

    Geometry (in Angstrom), charge = 0, multiplicity = 1:

       Center              X                  Y                   Z               Mass
    ------------   -----------------  -----------------  -----------------  -----------------
         O            3.088019506512    -0.583638229963    -0.217701485382    15.994914619570
         N            0.866746506512    -0.932718229963     0.194111514618    14.003074004430
         C            0.172099506512     1.714427770037     0.977009514618    12.000000000000
         C            1.137372506512     2.205968770037    -0.111982485382    12.000000000000
         C           -0.867383493488     0.773786770037     0.435123514618    12.000000000000
         C            1.540033506512     1.069850770037    -1.063281485382    12.000000000000
         C           -0.494776993488    -0.552118729963     0.069322814618    12.000000000000
         C            1.919518506512    -0.203679229963    -0.334415485382    12.000000000000
         C           -2.207678493488     1.144724770037     0.287122514618    12.000000000000
         C           -1.444305493488    -1.445268229963    -0.399344485382    12.000000000000
         C            1.173514506512    -2.225741229963     0.802412514618    12.000000000000
         C           -3.163983493488     0.238984770037    -0.175297485382    12.000000000000
         C           -2.779693493488    -1.059946229963    -0.514177485382    12.000000000000
         H           -0.314621493488     2.565740770037     1.465961514618     1.007825032230
         H            0.747604506512     1.187119770037     1.748151514618     1.007825032230
         H            0.669219506512     3.005306770037    -0.698693485382     1.007825032230
         H            2.030572506512     2.632221770037     0.359033514618     1.007825032230
         H            2.411128506512     1.356182770037    -1.657742485382     1.007825032230
         H            0.713884506512     0.857815770037    -1.750516485382     1.007825032230
         H           -2.509150493488     2.151654770037     0.571891514618     1.007825032230
         H           -1.135754493488    -2.447366229963    -0.687090485382     1.007825032230
         H            1.196304506512    -3.029717229963     0.058668514618     1.007825032230
         H            0.416402506512    -2.447672229963     1.556011514618     1.007825032230
         H            2.158755506512    -2.157283229963     1.262837514618     1.007825032230
         H           -4.202993493488     0.544731770037    -0.269548485382     1.007825032230
         H           -3.517227493488    -1.773582229963    -0.873403485382     1.007825032230

  Basis Set: AUG-CC-PVTZ
    Blend: AUG-CC-PVTZ
  Basis Set: (AUG-CC-PVTZ AUX)
    Blend: AUG-CC-PVTZ-JKFIT
	 Reference Energy          =    -553.6362857342295456 [Eh]
	 Singles Energy            =      -0.0000000000000000 [Eh]
	 Same-Spin Energy          =      -0.6035393980566106 [Eh]
	 Opposite-Spin Energy      =      -1.9027872562897490 [Eh]
	 Correlation Energy        =      -2.5063266543463598 [Eh]
	 Total Energy              =    -556.1426123885759125 [Eh]

	 ================> DF-SCS-MP2 Energies <==================
	-----------------------------------------------------------
	 SCS Same-Spin Scale       =       0.3333333333333333 [-]
	 SCS Opposite-Spin Scale   =       1.2000000000000000 [-]
	 SCS Same-Spin Energy      =      -0.2011797993522035 [Eh]
	 SCS Opposite-Spin Energy  =      -2.2833447075476987 [Eh]
	 SCS Correlation Energy    =      -2.4845245068999020 [Eh]
	 SCS Total Energy          =    -556.1208102411294476 [Eh]
	-----------------------------------------------------------

  Dipole Moment: [D]
     X:    -3.2248      Y:     0.5894      Z:     0.2616     Total:     3.2886

*** Psi4 exiting successfully. Buy a developer a beer!
