                               Psi4 1.3.2 release

  ==> Input File <==

--------------------------------------------------------------------------
#psi4
#
memory 32 gb

molecule  {
0 1
  O        3.0945450    -0.5978990    -0.2227500
  N        0.8732720    -0.9469790     0.1890630
  C        0.1786250     1.7001670     0.9719610
  C        1.1438980     2.1917080    -0.1170310
  C       -0.8608580     0.7595260     0.4300750
  C        1.5465590     1.0555900    -1.0683300
  C       -0.5168338    -0.6670043     0.1308009
  C        1.9260440    -0.2179400    -0.3394640
  C       -2.2011530     1.1304640     0.2820740
  C       -1.4377800    -1.4595290    -0.4043930
  C        1.1800400    -2.2400020     0.7973640
  C       -3.1574580     0.2247240    -0.1803460
  C       -2.7731680    -1.0742070    -0.5192260
  H       -0.3080960     2.5514800     1.4609130
  H        0.7541300     1.1728590     1.7431030
  H        0.6757450     2.9910460    -0.7037420
  H        2.0370980     2.6179610     0.3539850
  H        2.4176540     1.3419220    -1.6627910
  H        0.7204100     0.8435550    -1.7555650
  H       -2.5026250     2.1373940     0.5668430
  H       -1.1292290    -2.4616270    -0.6921390
  H        1.2028300    -3.0439780     0.0536200
  H        0.4229280    -2.4619330     1.5509630
  H        2.1652810    -2.1715440     1.2577890
  H       -4.1964680     0.5304710    -0.2745970
  H       -3.5107020    -1.7878430    -0.8784520
units angstrom
no_reorient  #important for SAPT in psi4, default
symmetry c1  #important for SAPT in psi4, default
}

set PROPERTIES_ORIGIN ["COM"]
properties('MP2/aug-cc-pvtz', properties = ['dipole'])
--------------------------------------------------------------------------

    Molecular point group: c1
  Charge       = 0
  Multiplicity = 1
  Basis Set: AUG-CC-PVTZ
    Blend: AUG-CC-PVTZ
  Basis Set: (AUG-CC-PVTZ AUX)
    Blend: AUG-CC-PVTZ-JKFIT

    Orbital Energies [Eh]
    ---------------------

    Doubly Occupied:

       1A    -20.520290     2A    -15.593378     3A    -11.353479
       4A    -11.286328     5A    -11.258482     6A    -11.253914
       7A    -11.245803     8A    -11.244024     9A    -11.242848
      10A    -11.240533    11A    -11.239561    12A    -11.237979
      13A    -11.237214    14A     -1.374972    15A     -1.261109
      16A     -1.152395    17A     -1.100670    18A     -1.033536
      19A     -1.023241    20A     -0.972880    21A     -0.925833
      22A     -0.870693    23A     -0.833582    24A     -0.797426
      25A     -0.760004    26A     -0.690399    27A     -0.681804
      28A     -0.671078    29A     -0.650266    30A     -0.626055
      31A     -0.618445    32A     -0.611138    33A     -0.597785
      34A     -0.578421    35A     -0.567735    36A     -0.554967
      37A     -0.536565    38A     -0.523926    39A     -0.521165
      40A     -0.499439    41A     -0.496697    42A     -0.483487
      43A     -0.473207    44A     -0.422213    45A     -0.405968
      46A     -0.345703    47A     -0.315423

  @DF-RHF Final Energy:  -553.61998923394754

   => Energetics <=

    Nuclear Repulsion Energy =            796.2400677700319420
    One-Electron Energy =               -2331.8559931359882285
    Two-Electron Energy =                 981.9959361320086373
    Total Energy =                       -553.6199892339475355
  Basis Set: (AUG-CC-PVTZ AUX)
    Blend: AUG-CC-PVTZ-RI
    Molecular point group: c1

    Geometry (in Angstrom), charge = 0, multiplicity = 1:

       Center              X                  Y                   Z               Mass
    ------------   -----------------  -----------------  -----------------  -----------------
         O            3.089978319534    -0.576742173013    -0.222260711560    15.994914619570
         N            0.868705319534    -0.925822173013     0.189552288440    14.003074004430
         C            0.174058319534     1.721323826987     0.972450288440    12.000000000000
         C            1.139331319534     2.212864826987    -0.116541711560    12.000000000000
         C           -0.865424680466     0.780682826987     0.430564288440    12.000000000000
         C            1.541992319534     1.076746826987    -1.067840711560    12.000000000000
         C           -0.521400480466    -0.645847473013     0.131290188440    12.000000000000
         C            1.921477319534    -0.196783173013    -0.338974711560    12.000000000000
         C           -2.205719680466     1.151620826987     0.282563288440    12.000000000000
         C           -1.442346680466    -1.438372173013    -0.403903711560    12.000000000000
         C            1.175473319534    -2.218845173013     0.797853288440    12.000000000000
         C           -3.162024680466     0.245880826987    -0.179856711560    12.000000000000
         C           -2.777734680466    -1.053050173013    -0.518736711560    12.000000000000
         H           -0.312662680466     2.572636826987     1.461402288440     1.007825032230
         H            0.749563319534     1.194015826987     1.743592288440     1.007825032230
         H            0.671178319534     3.012202826987    -0.703252711560     1.007825032230
         H            2.032531319534     2.639117826987     0.354474288440     1.007825032230
         H            2.413087319534     1.363078826987    -1.662301711560     1.007825032230
         H            0.715843319534     0.864711826987    -1.755075711560     1.007825032230
         H           -2.507191680466     2.158550826987     0.567332288440     1.007825032230
         H           -1.133795680466    -2.440470173013    -0.691649711560     1.007825032230
         H            1.198263319534    -3.022821173013     0.054109288440     1.007825032230
         H            0.418361319534    -2.440776173013     1.551452288440     1.007825032230
         H            2.160714319534    -2.150387173013     1.258278288440     1.007825032230
         H           -4.201034680466     0.551627826987    -0.274107711560     1.007825032230
         H           -3.515268680466    -1.766686173013    -0.877962711560     1.007825032230

  Basis Set: AUG-CC-PVTZ
    Blend: AUG-CC-PVTZ
  Basis Set: (AUG-CC-PVTZ AUX)
    Blend: AUG-CC-PVTZ-JKFIT
	 Reference Energy          =    -553.6199892339475355 [Eh]
	 Singles Energy            =      -0.0000000000000000 [Eh]
	 Same-Spin Energy          =      -0.6035115073098682 [Eh]
	 Opposite-Spin Energy      =      -1.9039564735568941 [Eh]
	 Correlation Energy        =      -2.5074679808667621 [Eh]
	 Total Energy              =    -556.1274572148142852 [Eh]

	 ================> DF-SCS-MP2 Energies <==================
	-----------------------------------------------------------
	 SCS Same-Spin Scale       =       0.3333333333333333 [-]
	 SCS Opposite-Spin Scale   =       1.2000000000000000 [-]
	 SCS Same-Spin Energy      =      -0.2011705024366227 [Eh]
	 SCS Opposite-Spin Energy  =      -2.2847477682682729 [Eh]
	 SCS Correlation Energy    =      -2.4859182707048957 [Eh]
	 SCS Total Energy          =    -556.1059075046524640 [Eh]
	-----------------------------------------------------------

  Dipole Moment: [D]
     X:    -3.2436      Y:     0.6224      Z:     0.2278     Total:     3.3107

*** Psi4 exiting successfully. Buy a developer a beer!
