                               Psi4 1.3.2 release

  ==> Input File <==

--------------------------------------------------------------------------
#psi4
#
memory 32 gb

molecule  {
0 1
  O        3.0945450    -0.5978990    -0.2227500
  N        0.8843442    -0.8873331     0.3295007
  C        0.1786250     1.7001670     0.9719610
  C        1.1438980     2.1917080    -0.1170310
  C       -0.8608580     0.7595260     0.4300750
  C        1.5465590     1.0555900    -1.0683300
  C       -0.4811190    -0.5451200     0.0537530
  C        1.9260440    -0.2179400    -0.3394640
  C       -2.2011530     1.1304640     0.2820740
  C       -1.4377800    -1.4595290    -0.4043930
  C        1.1800400    -2.2400020     0.7973640
  C       -3.1574580     0.2247240    -0.1803460
  C       -2.7731680    -1.0742070    -0.5192260
  H       -0.3080960     2.5514800     1.4609130
  H        0.7541300     1.1728590     1.7431030
  H        0.6757450     2.9910460    -0.7037420
  H        2.0370980     2.6179610     0.3539850
  H        2.4176540     1.3419220    -1.6627910
  H        0.7204100     0.8435550    -1.7555650
  H       -2.5026250     2.1373940     0.5668430
  H       -1.1292290    -2.4616270    -0.6921390
  H        1.2028300    -3.0439780     0.0536200
  H        0.4229280    -2.4619330     1.5509630
  H        2.1652810    -2.1715440     1.2577890
  H       -4.1964680     0.5304710    -0.2745970
  H       -3.5107020    -1.7878430    -0.8784520
units angstrom
no_reorient  #important for SAPT in psi4, default
symmetry c1  #important for SAPT in psi4, default
}

set PROPERTIES_ORIGIN ["COM"]
properties('MP2/aug-cc-pvtz', properties = ['dipole'])
--------------------------------------------------------------------------

    Molecular point group: c1
  Charge       = 0
  Multiplicity = 1
  Basis Set: AUG-CC-PVTZ
    Blend: AUG-CC-PVTZ
  Basis Set: (AUG-CC-PVTZ AUX)
    Blend: AUG-CC-PVTZ-JKFIT

    Orbital Energies [Eh]
    ---------------------

    Doubly Occupied:

       1A    -20.524690     2A    -15.593821     3A    -11.353629
       4A    -11.284238     5A    -11.255387     6A    -11.247830
       7A    -11.246859     8A    -11.245533     9A    -11.243964
      10A    -11.241885    11A    -11.240854    12A    -11.238612
      13A    -11.236120    14A     -1.376015    15A     -1.256938
      16A     -1.152197    17A     -1.099000    18A     -1.032428
      19A     -1.017219    20A     -0.974288    21A     -0.924051
      22A     -0.864553    23A     -0.836608    24A     -0.796070
      25A     -0.752996    26A     -0.689349    27A     -0.684933
      28A     -0.671138    29A     -0.653227    30A     -0.622601
      31A     -0.617710    32A     -0.610183    33A     -0.591007
      34A     -0.579427    35A     -0.573572    36A     -0.550022
      37A     -0.536131    38A     -0.522484    39A     -0.515232
      40A     -0.505607    41A     -0.495776    42A     -0.486607
      43A     -0.474396    44A     -0.422616    45A     -0.408662
      46A     -0.342393    47A     -0.319015

  @DF-RHF Final Energy:  -553.62988424776745

   => Energetics <=

    Nuclear Repulsion Energy =            796.9278105197923878
    One-Electron Energy =               -2333.2996469302142941
    Two-Electron Energy =                 982.7419521626545702
    Total Energy =                       -553.6298842477674498
  Basis Set: (AUG-CC-PVTZ AUX)
    Blend: AUG-CC-  DFHelper Memory: AOs need 11.217 GiB; user supplied 22.352 GiB. Using in-core AOs.
    Molecular point group: c1

    Geometry (in Angstrom), charge = 0, multiplicity = 1:

       Center              X                  Y                   Z               Mass
    ------------   -----------------  -----------------  -----------------  -----------------
         O            3.086645233359    -0.589865195882    -0.228211519143    15.994914619570
         N            0.876444433359    -0.879299295882     0.324039180857    14.003074004430
         C            0.170725233359     1.708200804118     0.966499480857    12.000000000000
         C            1.135998233359     2.199741804118    -0.122492519143    12.000000000000
         C           -0.868757766641     0.767559804118     0.424613480857    12.000000000000
         C            1.538659233359     1.063623804118    -1.073791519143    12.000000000000
         C           -0.489018766641    -0.537086195882     0.048291480857    12.000000000000
         C            1.918144233359    -0.209906195882    -0.344925519143    12.000000000000
         C           -2.209052766641     1.138497804118     0.276612480857    12.000000000000
         C           -1.445679766641    -1.451495195882    -0.409854519143    12.000000000000
         C            1.172140233359    -2.231968195882     0.791902480857    12.000000000000
         C           -3.165357766641     0.232757804118    -0.185807519143    12.000000000000
         C           -2.781067766641    -1.066173195882    -0.524687519143    12.000000000000
         H           -0.315995766641     2.559513804118     1.455451480857     1.007825032230
         H            0.746230233359     1.180892804118     1.737641480857     1.007825032230
         H            0.667845233359     2.999079804118    -0.709203519143     1.007825032230
         H            2.029198233359     2.625994804118     0.348523480857     1.007825032230
         H            2.409754233359     1.349955804118    -1.668252519143     1.007825032230
         H            0.712510233359     0.851588804118    -1.761026519143     1.007825032230
         H           -2.510524766641     2.145427804118     0.561381480857     1.007825032230
         H           -1.137128766641    -2.453593195882    -0.697600519143     1.007825032230
         H            1.194930233359    -3.035944195882     0.048158480857     1.007825032230
         H            0.415028233359    -2.453899195882     1.545501480857     1.007825032230
         H            2.157381233359    -2.163510195882     1.252327480857     1.007825032230
         H           -4.204367766641     0.538504804118    -0.280058519143     1.007825032230
         H           -3.518601766641    -1.779809195882    -0.883913519143     1.007825032230

  Basis Set: AUG-CC-PVTZ
    Blend: AUG-CC-PVTZ
  Basis Set: (AUG-CC-PVTZ AUX)
    Blend: AUG-CC-PVTZ-JKFIT
	 Reference Energy          =    -553.6298842477674498 [Eh]
	 Singles Energy            =      -0.0000000000000000 [Eh]
	 Same-Spin Energy          =      -0.6039540233607243 [Eh]
	 Opposite-Spin Energy      =      -1.9040686050243354 [Eh]
	 Correlation Energy        =      -2.5080226283850600 [Eh]
	 Total Energy              =    -556.1379068761525559 [Eh]

	 ================> DF-SCS-MP2 Energies <==================
	-----------------------------------------------------------
	 SCS Same-Spin Scale       =       0.3333333333333333 [-]
	 SCS Opposite-Spin Scale   =       1.2000000000000000 [-]
	 SCS Same-Spin Energy      =      -0.2013180077869081 [Eh]
	 SCS Opposite-Spin Energy  =      -2.2848823260292024 [Eh]
	 SCS Correlation Energy    =      -2.4862003338161105 [Eh]
	 SCS Total Energy          =    -556.1160845815835501 [Eh]
	-----------------------------------------------------------

  Dipole Moment: [D]
     X:    -3.0420      Y:     0.5983      Z:     0.0634     Total:     3.1010

*** Psi4 exiting successfully. Buy a developer a beer!
*** Psi4 exiting successfully. Buy a developer a beer!
