                               Psi4 1.3.2 release

  ==> Input File <==

--------------------------------------------------------------------------
#psi4
#
memory 32 gb

molecule  {
0 1
  O        3.0945450    -0.5978990    -0.2227500
  N        0.8732720    -0.9469790     0.1890630
  C        0.1786250     1.7001670     0.9719610
  C        1.1438980     2.1917080    -0.1170310
  C       -0.8608580     0.7595260     0.4300750
  C        1.5465590     1.0555900    -1.0683300
  C       -0.4811190    -0.5451200     0.0537530
  C        1.7740565    -0.3231905    -0.2631612
  C       -2.2011530     1.1304640     0.2820740
  C       -1.4377800    -1.4595290    -0.4043930
  C        1.1800400    -2.2400020     0.7973640
  C       -3.1574580     0.2247240    -0.1803460
  C       -2.7731680    -1.0742070    -0.5192260
  H       -0.3080960     2.5514800     1.4609130
  H        0.7541300     1.1728590     1.7431030
  H        0.6757450     2.9910460    -0.7037420
  H        2.0370980     2.6179610     0.3539850
  H        2.4176540     1.3419220    -1.6627910
  H        0.7204100     0.8435550    -1.7555650
  H       -2.5026250     2.1373940     0.5668430
  H       -1.1292290    -2.4616270    -0.6921390
  H        1.2028300    -3.0439780     0.0536200
  H        0.4229280    -2.4619330     1.5509630
  H        2.1652810    -2.1715440     1.2577890
  H       -4.1964680     0.5304710    -0.2745970
  H       -3.5107020    -1.7878430    -0.8784520
units angstrom
no_reorient  #important for SAPT in psi4, default
symmetry c1  #important for SAPT in psi4, default
}

set PROPERTIES_ORIGIN ["COM"]
properties('MP2/aug-cc-pvtz', properties = ['dipole'])
--------------------------------------------------------------------------

    Molecular point group: c1
  Charge       = 0
  Multiplicity = 1
  Basis Set: AUG-CC-PVTZ
    Blend: AUG-CC-PVTZ
  Basis Set: (AUG-CC-PVTZ AUX)
    Blend: AUG-CC-PVTZ-JKFIT

    Orbital Energies [Eh]
    ---------------------

    Doubly Occupied:

       1A    -20.475428     2A    -15.621712     3A    -11.329237
       4A    -11.299209     5A    -11.271916     6A    -11.263286
       7A    -11.259995     8A    -11.255709     9A    -11.254643
      10A    -11.253561    11A    -11.242021    12A    -11.234280
      13A    -11.233681    14A     -1.382151    15A     -1.238365
      16A     -1.170773    17A     -1.098621    18A     -1.039642
      19A     -1.029974    20A     -0.999627    21A     -0.940522
      22A     -0.879441    23A     -0.852221    24A     -0.805331
      25A     -0.768036    26A     -0.707090    27A     -0.691290
      28A     -0.680118    29A     -0.648248    30A     -0.632156
      31A     -0.627817    32A     -0.610677    33A     -0.597103
      34A     -0.584347    35A     -0.567202    36A     -0.551708
      37A     -0.533281    38A     -0.528550    39A     -0.519874
      40A     -0.503731    41A     -0.486768    42A     -0.479837
      43A     -0.471774    44A     -0.394667    45A     -0.374722
      46A     -0.352239    47A     -0.334737

  @DF-RHF Final Energy:  -553.57583776911918

   => Energetics <=

    Nuclear Repulsion Energy =            799.5318626995112936
    One-Electron Energy =               -2338.0607611762702618
    Two-Electron Energy =                 984.9530607076397928
    Total Energy =                       -553.5758377691191754
  Basis Set: (AUG-CC-PVTZ AUX)
    Blend: AUG-CC-PVTZ-RI
    Molecular point group: c1

    Geometry (in Angstrom), charge = 0, multiplicity = 1:

       Center              X                  Y                   Z               Mass
    ------------   -----------------  -----------------  -----------------  -----------------
         O            3.097946764300    -0.577882126902    -0.222209648084    15.994914619570
         N            0.876673764300    -0.926962126902     0.189603351916    14.003074004430
         C            0.182026764300     1.720183873098     0.972501351916    12.000000000000
         C            1.147299764300     2.211724873098    -0.116490648084    12.000000000000
         C           -0.857456235700     0.779542873098     0.430615351916    12.000000000000
         C            1.549960764300     1.075606873098    -1.067789648084    12.000000000000
         C           -0.477717235700    -0.525103126902     0.054293351916    12.000000000000
         C            1.777458264300    -0.303173626902    -0.262620848084    12.000000000000
         C           -2.197751235700     1.150480873098     0.282614351916    12.000000000000
         C           -1.434378235700    -1.439512126902    -0.403852648084    12.000000000000
         C            1.183441764300    -2.219985126902     0.797904351916    12.000000000000
         C           -3.154056235700     0.244740873098    -0.179805648084    12.000000000000
         C           -2.769766235700    -1.054190126902    -0.518685648084    12.000000000000
         H           -0.304694235700     2.571496873098     1.461453351916     1.007825032230
         H            0.757531764300     1.192875873098     1.743643351916     1.007825032230
         H            0.679146764300     3.011062873098    -0.703201648084     1.007825032230
         H            2.040499764300     2.637977873098     0.354525351916     1.007825032230
         H            2.421055764300     1.361938873098    -1.662250648084     1.007825032230
         H            0.723811764300     0.863571873098    -1.755024648084     1.007825032230
         H           -2.499223235700     2.157410873098     0.567383351916     1.007825032230
         H           -1.125827235700    -2.441610126902    -0.691598648084     1.007825032230
         H            1.206231764300    -3.023961126902     0.054160351916     1.007825032230
         H            0.426329764300    -2.441916126902     1.551503351916     1.007825032230
         H            2.168682764300    -2.151527126902     1.258329351916     1.007825032230
         H           -4.193066235700     0.550487873098    -0.274056648084     1.007825032230
         H           -3.507300235700    -1.767826126902    -0.877911648084     1.007825032230

  Basis Set: AUG-CC-PVTZ
    Blend: AUG-CC-PVTZ
  Basis Set: (AUG-CC-PVTZ AUX)
    Blend: AUG-CC-PVTZ-JKFIT
	 Reference Energy          =    -553.5758377691191754 [Eh]
	 Singles Energy            =      -0.0000000000000000 [Eh]
	 Same-Spin Energy          =      -0.6046941793078651 [Eh]
	 Opposite-Spin Energy      =      -1.9057760286286127 [Eh]
	 Correlation Energy        =      -2.5104702079364776 [Eh]
	 Total Energy              =    -556.0863079770556396 [Eh]

	 ================> DF-SCS-MP2 Energies <==================
	-----------------------------------------------------------
	 SCS Same-Spin Scale       =       0.3333333333333333 [-]
	 SCS Opposite-Spin Scale   =       1.2000000000000000 [-]
	 SCS Same-Spin Energy      =      -0.2015647264359550 [Eh]
	 SCS Opposite-Spin Energy  =      -2.2869312343543351 [Eh]
	 SCS Correlation Energy    =      -2.4884959607902903 [Eh]
	 SCS Total Energy          =    -556.0643337299094355 [Eh]
	-----------------------------------------------------------

  Dipole Moment: [D]
     X:    -5.0588      Y:     0.1067      Z:     0.7222     Total:     5.1112

*** Psi4 exiting successfully. Buy a developer a beer!
