                               Psi4 1.3.2 release

  ==> Input File <==

--------------------------------------------------------------------------
#psi4
#
memory 32 gb

molecule  {
0 1
  O        3.0945450    -0.5978990    -0.2227500
  N        0.8732720    -0.9469790     0.1890630
  C        0.1786250     1.7001670     0.9719610
  C        1.1438980     2.1917080    -0.1170310
  C       -0.8608580     0.7595260     0.4300750
  C        1.5465590     1.0555900    -1.0683300
  C       -0.4490343    -0.4662292     0.0031598
  C        1.9260440    -0.2179400    -0.3394640
  C       -2.2011530     1.1304640     0.2820740
  C       -1.4377800    -1.4595290    -0.4043930
  C        1.1800400    -2.2400020     0.7973640
  C       -3.1574580     0.2247240    -0.1803460
  C       -2.7731680    -1.0742070    -0.5192260
  H       -0.3080960     2.5514800     1.4609130
  H        0.7541300     1.1728590     1.7431030
  H        0.6757450     2.9910460    -0.7037420
  H        2.0370980     2.6179610     0.3539850
  H        2.4176540     1.3419220    -1.6627910
  H        0.7204100     0.8435550    -1.7555650
  H       -2.5026250     2.1373940     0.5668430
  H       -1.1292290    -2.4616270    -0.6921390
  H        1.2028300    -3.0439780     0.0536200
  H        0.4229280    -2.4619330     1.5509630
  H        2.1652810    -2.1715440     1.2577890
  H       -4.1964680     0.5304710    -0.2745970
  H       -3.5107020    -1.7878430    -0.8784520
units angstrom
no_reorient  #important for SAPT in psi4, default
symmetry c1  #important for SAPT in psi4, default
}

set PROPERTIES_ORIGIN ["COM"]
properties('MP2/aug-cc-pvtz', properties = ['dipole'])
--------------------------------------------------------------------------

    Molecular point group: c1
  Charge       = 0
  Multiplicity = 1
  Basis Set: AUG-CC-PVTZ
    Blend: AUG-CC-PVTZ
  Basis Set: (AUG-CC-PVTZ AUX)
    Blend: AUG-CC-PVTZ-JKFIT

    Orbital Energies [Eh]
    ---------------------

    Doubly Occupied:

       1A    -20.516798     2A    -15.593867     3A    -11.347244
       4A    -11.285342     5A    -11.259953     6A    -11.250609
       7A    -11.246238     8A    -11.245385     9A    -11.244480
      10A    -11.242776    11A    -11.240041    12A    -11.237315
      13A    -11.236212    14A     -1.372878    15A     -1.261408
      16A     -1.154676    17A     -1.098747    18A     -1.034757
      19A     -1.013225    20A     -0.978785    21A     -0.925259
      22A     -0.865858    23A     -0.840845    24A     -0.799263
      25A     -0.749349    26A     -0.691061    27A     -0.684593
      28A     -0.668403    29A     -0.656975    30A     -0.622014
      31A     -0.616994    32A     -0.607934    33A     -0.596515
      34A     -0.579638    35A     -0.573796    36A     -0.554090
      37A     -0.535008    38A     -0.523522    39A     -0.516523
      40A     -0.511606    41A     -0.495242    42A     -0.485718
      43A     -0.471281    44A     -0.419539    45A     -0.403814
      46A     -0.341645    47A     -0.318899

  @DF-RHF Final Energy:  -553.62855692684252

   => Energetics <=

    Nuclear Repulsion Energy =            797.7472336017283396
    One-Electron Energy =               -2334.9193379580742658
    Two-Electron Energy =                 983.5435474295034055
    Total Energy =                       -553.6285569268425206
  Basis Set: (AUG-CC-PVTZ AUX)
    Blend: AUG-CC-PVTZ-RI
    Molecular point group: c1

    Geometry (in Angstrom), charge = 0, multiplicity = 1:

       Center              X                  Y                   Z               Mass
    ------------   -----------------  -----------------  -----------------  -----------------
         O            3.085331858490    -0.590501768300    -0.213513163294    15.994914619570
         N            0.864058858490    -0.939581768300     0.198299836706    14.003074004430
         C            0.169411858490     1.707564231700     0.981197836706    12.000000000000
         C            1.134684858490     2.199105231700    -0.107794163294    12.000000000000
         C           -0.870071141510     0.766923231700     0.439311836706    12.000000000000
         C            1.537345858490     1.062987231700    -1.059093163294    12.000000000000
         C           -0.458247441510    -0.458831968300     0.012396636706    12.000000000000
         C            1.916830858490    -0.210542768300    -0.330227163294    12.000000000000
         C           -2.210366141510     1.137861231700     0.291310836706    12.000000000000
         C           -1.446993141510    -1.452131768300    -0.395156163294    12.000000000000
         C            1.170826858490    -2.232604768300     0.806600836706    12.000000000000
         C           -3.166671141510     0.232121231700    -0.171109163294    12.000000000000
         C           -2.782381141510    -1.066809768300    -0.509989163294    12.000000000000
         H           -0.317309141510     2.558877231700     1.470149836706     1.007825032230
         H            0.744916858490     1.180256231700     1.752339836706     1.007825032230
         H            0.666531858490     2.998443231700    -0.694505163294     1.007825032230
         H            2.027884858490     2.625358231700     0.363221836706     1.007825032230
         H            2.408440858490     1.349319231700    -1.653554163294     1.007825032230
         H            0.711196858490     0.850952231700    -1.746328163294     1.007825032230
         H           -2.511838141510     2.144791231700     0.576079836706     1.007825032230
         H           -1.138442141510    -2.454229768300    -0.682902163294     1.007825032230
         H            1.193616858490    -3.036580768300     0.062856836706     1.007825032230
         H            0.413714858490    -2.454535768300     1.560199836706     1.007825032230
         H            2.156067858490    -2.164146768300     1.267025836706     1.007825032230
         H           -4.205681141510     0.537868231700    -0.265360163294     1.007825032230
         H           -3.519915141510    -1.780445768300    -0.869215163294     1.007825032230

  Basis Set: AUG-CC-PVTZ
    Blend: AUG-CC-PVTZ
  Basis Set: (AUG-CC-PVTZ AUX)
    Blend: AUG-CC-PVTZ-JKFIT
	 Reference Energy          =    -553.6285569268425206 [Eh]
	 Singles Energy            =      -0.0000000000000000 [Eh]
	 Same-Spin Energy          =      -0.6038541176334808 [Eh]
	 Opposite-Spin Energy      =      -1.9037058159740889 [Eh]
	 Correlation Energy        =      -2.5075599336075696 [Eh]
	 Total Energy              =    -556.1361168604501017 [Eh]

	 ================> DF-SCS-MP2 Energies <==================
	-----------------------------------------------------------
	 SCS Same-Spin Scale       =       0.3333333333333333 [-]
	 SCS Opposite-Spin Scale   =       1.2000000000000000 [-]
	 SCS Same-Spin Energy      =      -0.2012847058778269 [Eh]
	 SCS Opposite-Spin Energy  =      -2.2844469791689068 [Eh]
	 SCS Correlation Energy    =      -2.4857316850467339 [Eh]
	 SCS Total Energy          =    -556.1142886118892648 [Eh]
	-----------------------------------------------------------

  Dipole Moment: [D]
     X:    -3.2362      Y:     0.5585      Z:     0.2943     Total:     3.2972

*** Psi4 exiting successfully. Buy a developer a beer!
