                               Psi4 1.4a3.dev225

  ==> Input File <==

--------------------------------------------------------------------------
#psi4
#
memory 32 gb

molecule  {
0 1
  O        3.0945450    -0.5978990    -0.2227500
  N        0.8732720    -0.9469790     0.1890630
  C        0.1786250     1.7001670     0.9719610
  C        1.1438980     2.1917080    -0.1170310
  C       -0.8608580     0.7595260     0.4300750
  C        1.5465590     1.0555900    -1.0683300
  C       -0.4811190    -0.5451200     0.0537530
  C        1.8880471    -0.2442526    -0.3203883
  C       -2.2011530     1.1304640     0.2820740
  C       -1.4377800    -1.4595290    -0.4043930
  C        1.1800400    -2.2400020     0.7973640
  C       -3.1574580     0.2247240    -0.1803460
  C       -2.7731680    -1.0742070    -0.5192260
  H       -0.3080960     2.5514800     1.4609130
  H        0.7541300     1.1728590     1.7431030
  H        0.6757450     2.9910460    -0.7037420
  H        2.0370980     2.6179610     0.3539850
  H        2.4176540     1.3419220    -1.6627910
  H        0.7204100     0.8435550    -1.7555650
  H       -2.5026250     2.1373940     0.5668430
  H       -1.1292290    -2.4616270    -0.6921390
  H        1.2028300    -3.0439780     0.0536200
  H        0.4229280    -2.4619330     1.5509630
  H        2.1652810    -2.1715440     1.2577890
  H       -4.1964680     0.5304710    -0.2745970
  H       -3.5107020    -1.7878430    -0.8784520
units angstrom
no_reorient  #important for SAPT in psi4, default
symmetry c1  #important for SAPT in psi4, default
}

set PROPERTIES_ORIGIN ["COM"]
properties('MP2/aug-cc-pvtz', properties = ['dipole'])
--------------------------------------------------------------------------

    Molecular point group: c1
  Charge       = 0
  Multiplicity = 1
  Basis Set: AUG-CC-PVTZ
    Blend: AUG-CC-PVTZ
  Basis Set: (AUG-CC-PVTZ AUX)
    Blend: AUG-CC-PVTZ-JKFIT

    Orbital Energies [Eh]
    ---------------------

    Doubly Occupied:

       1A    -20.507857     2A    -15.601678     3A    -11.345784
       4A    -11.289069     5A    -11.261041     6A    -11.253321
       7A    -11.249187     8A    -11.247904     9A    -11.247412
      10A    -11.245261    11A    -11.239354    12A    -11.238339
      13A    -11.235433    14A     -1.360954    15A     -1.267014
      16A     -1.158098    17A     -1.098603    18A     -1.031314
      19A     -1.023588    20A     -0.980460    21A     -0.930613
      22A     -0.869513    23A     -0.842581    24A     -0.801094
      25A     -0.757862    26A     -0.693216    27A     -0.682646
      28A     -0.670367    29A     -0.655495    30A     -0.625210
      31A     -0.618164    32A     -0.608089    33A     -0.600732
      34A     -0.579468    35A     -0.565402    36A     -0.557373
      37A     -0.533673    38A     -0.523647    39A     -0.516765
      40A     -0.510669    41A     -0.495564    42A     -0.485879
      43A     -0.471623    44A     -0.412963    45A     -0.403924
      46A     -0.344768    47A     -0.323097

  @DF-RHF Final Energy:  -553.63306244906971

   => Energetics <=

    Nuclear Repulsion Energy =            797.7113676817800751
    One-Electron Energy =               -2334.7647248044208936
    Two-Electron Energy =                 983.4202946735711066
    Total Energy =                       -553.6330624490697119
  Basis Set: (AUG-CC-PVTZ AUX)
    Blend: AUG-CC-PVTZ-RI
    Molecular point group: c1

    Geometry (in Angstrom), charge = 0, multiplicity = 1:

       Center              X                  Y                   Z               Mass
    ------------   -----------------  -----------------  -----------------  -----------------
         O            3.090134717276    -0.583291928998    -0.218287738767    15.994914619570
         N            0.868861717276    -0.932371928998     0.193525261233    14.003074004430
         C            0.174214717276     1.714774071002     0.976423261233    12.000000000000
         C            1.139487717276     2.206315071002    -0.112568738767    12.000000000000
         C           -0.865268282724     0.774133071002     0.434537261233    12.000000000000
         C            1.542148717276     1.070197071002    -1.063867738767    12.000000000000
         C           -0.485529282724    -0.530512928998     0.058215261233    12.000000000000
         C            1.883636817276    -0.229645528998    -0.315926038767    12.000000000000
         C           -2.205563282724     1.145071071002     0.286536261233    12.000000000000
         C           -1.442190282724    -1.444921928998    -0.399930738767    12.000000000000
         C            1.175629717276    -2.225394928998     0.801826261233    12.000000000000
         C           -3.161868282724     0.239331071002    -0.175883738767    12.000000000000
         C           -2.777578282724    -1.059599928998    -0.514763738767    12.000000000000
         H           -0.312506282724     2.566087071002     1.465375261233     1.007825032230
         H            0.749719717276     1.187466071002     1.747565261233     1.007825032230
         H            0.671334717276     3.005653071002    -0.699279738767     1.007825032230
         H            2.032687717276     2.632568071002     0.358447261233     1.007825032230
         H            2.413243717276     1.356529071002    -1.658328738767     1.007825032230
         H            0.715999717276     0.858162071002    -1.751102738767     1.007825032230
         H           -2.507035282724     2.152001071002     0.571305261233     1.007825032230
         H           -1.133639282724    -2.447019928998    -0.687676738767     1.007825032230
         H            1.198419717276    -3.029370928998     0.058082261233     1.007825032230
         H            0.418517717276    -2.447325928998     1.555425261233     1.007825032230
         H            2.160870717276    -2.156936928998     1.262251261233     1.007825032230
         H           -4.200878282724     0.545078071002    -0.270134738767     1.007825032230
         H           -3.515112282724    -1.773235928998    -0.873989738767     1.007825032230

  Basis Set: AUG-CC-PVTZ
    Blend: AUG-CC-PVTZ
  Basis Set: (AUG-CC-PVTZ AUX)
    Blend: AUG-CC-PVTZ-JKFIT
	 Reference Energy          =    -553.6330624490697119 [Eh]
	 Singles Energy            =      -0.0000000000000000 [Eh]
	 Same-Spin Energy          =      -0.6038135598071175 [Eh]
	 Opposite-Spin Energy      =      -1.9034227651873818 [Eh]
	 Correlation Energy        =      -2.5072363249944996 [Eh]
	 Total Energy              =    -556.1402987740642629 [Eh]

	 ================> DF-SCS-MP2 Energies <==================
	-----------------------------------------------------------
	 SCS Same-Spin Scale       =       0.3333333333333333 [-]
	 SCS Opposite-Spin Scale   =       1.2000000000000000 [-]
	 SCS Same-Spin Energy      =      -0.2012711866023725 [Eh]
	 SCS Opposite-Spin Energy  =      -2.2841073182248581 [Eh]
	 SCS Correlation Energy    =      -2.4853785048272306 [Eh]
	 SCS Total Energy          =    -556.1184409538969931 [Eh]
	-----------------------------------------------------------

  Dipole Moment: [D]
     X:    -3.6858      Y:     0.4413      Z:     0.3929     Total:     3.7329

*** Psi4 exiting successfully. Buy a developer a beer!
