                               Psi4 1.4a3.dev225

  ==> Input File <==

--------------------------------------------------------------------------
#psi4
#
memory 32 gb

molecule  {
0 1
  O        3.0945450    -0.5978990    -0.2227500
  N        0.8732720    -0.9469790     0.1890630
  C        0.1786250     1.7001670     0.9719610
  C        1.1438980     2.1917080    -0.1170310
  C       -0.8608580     0.7595260     0.4300750
  C        1.5465590     1.0555900    -1.0683300
  C       -0.4334028    -0.5592778     0.0585201
  C        1.9260440    -0.2179400    -0.3394640
  C       -2.2011530     1.1304640     0.2820740
  C       -1.4377800    -1.4595290    -0.4043930
  C        1.1800400    -2.2400020     0.7973640
  C       -3.1574580     0.2247240    -0.1803460
  C       -2.7731680    -1.0742070    -0.5192260
  H       -0.3080960     2.5514800     1.4609130
  H        0.7541300     1.1728590     1.7431030
  H        0.6757450     2.9910460    -0.7037420
  H        2.0370980     2.6179610     0.3539850
  H        2.4176540     1.3419220    -1.6627910
  H        0.7204100     0.8435550    -1.7555650
  H       -2.5026250     2.1373940     0.5668430
  H       -1.1292290    -2.4616270    -0.6921390
  H        1.2028300    -3.0439780     0.0536200
  H        0.4229280    -2.4619330     1.5509630
  H        2.1652810    -2.1715440     1.2577890
  H       -4.1964680     0.5304710    -0.2745970
  H       -3.5107020    -1.7878430    -0.8784520
units angstrom
no_reorient  #important for SAPT in psi4, default
symmetry c1  #important for SAPT in psi4, default
}

set PROPERTIES_ORIGIN ["COM"]
properties('MP2/aug-cc-pvtz', properties = ['dipole'])
--------------------------------------------------------------------------

    Molecular point group: c1
  Charge       = 0
  Multiplicity = 1
  Basis Set: AUG-CC-PVTZ
    Blend: AUG-CC-PVTZ
  Basis Set: (AUG-CC-PVTZ AUX)
    Blend: AUG-CC-PVTZ-JKFIT

    Orbital Energies [Eh]
    ---------------------

    Doubly Occupied:

       1A    -20.521906     2A    -15.596870     3A    -11.353037
       4A    -11.287240     5A    -11.260161     6A    -11.250427
       7A    -11.245602     8A    -11.244096     9A    -11.243782
      10A    -11.240615    11A    -11.240192    12A    -11.237826
      13A    -11.236980    14A     -1.378390    15A     -1.274198
      16A     -1.148907    17A     -1.098793    18A     -1.030421
      19A     -1.015569    20A     -0.979092    21A     -0.926060
      22A     -0.873830    23A     -0.836302    24A     -0.796958
      25A     -0.757732    26A     -0.691914    27A     -0.685033
      28A     -0.670909    29A     -0.657850    30A     -0.622371
      31A     -0.618516    32A     -0.607888    33A     -0.598688
      34A     -0.577733    35A     -0.573617    36A     -0.556906
      37A     -0.536572    38A     -0.523145    39A     -0.519864
      40A     -0.507130    41A     -0.494504    42A     -0.485344
      43A     -0.471408    44A     -0.424165    45A     -0.408022
      46A     -0.340203    47A     -0.311784

  @DF-RHF Final Energy:  -553.63242767475163

   => Energetics <=

    Nuclear Repulsion Energy =            797.3795524731061732
    One-Electron Energy =               -2334.1068547744580428
    Two-Electron Energy =                 983.0948746266001308
    Total Energy =                       -553.6324276747516251
  Basis Set: (AUG-CC-PVTZ AUX)
    Blend: AUG-CC-PVTZ-RI
    Molecular point group: c1

    Geometry (in Angstrom), charge = 0, multiplicity = 1:

       Center              X                  Y                   Z               Mass
    ------------   -----------------  -----------------  -----------------  -----------------
         O            3.084260594605    -0.584124926361    -0.217307136366    15.994914619570
         N            0.862987594605    -0.933204926361     0.194505863634    14.003074004430
         C            0.168340594605     1.713941073639     0.977403863634    12.000000000000
         C            1.133613594605     2.205482073639    -0.111588136366    12.000000000000
         C           -0.871142405395     0.773300073639     0.435517863634    12.000000000000
         C            1.536274594605     1.069364073639    -1.062887136366    12.000000000000
         C           -0.443687205395    -0.545503726361     0.063962963634    12.000000000000
         C            1.915759594605    -0.204165926361    -0.334021136366    12.000000000000
         C           -2.211437405395     1.144238073639     0.287516863634    12.000000000000
         C           -1.448064405395    -1.445754926361    -0.398950136366    12.000000000000
         C            1.169755594605    -2.226227926361     0.802806863634    12.000000000000
         C           -3.167742405395     0.238498073639    -0.174903136366    12.000000000000
         C           -2.783452405395    -1.060432926361    -0.513783136366    12.000000000000
         H           -0.318380405395     2.565254073639     1.466355863634     1.007825032230
         H            0.743845594605     1.186633073639     1.748545863634     1.007825032230
         H            0.665460594605     3.004820073639    -0.698299136366     1.007825032230
         H            2.026813594605     2.631735073639     0.359427863634     1.007825032230
         H            2.407369594605     1.355696073639    -1.657348136366     1.007825032230
         H            0.710125594605     0.857329073639    -1.750122136366     1.007825032230
         H           -2.512909405395     2.151168073639     0.572285863634     1.007825032230
         H           -1.139513405395    -2.447852926361    -0.686696136366     1.007825032230
         H            1.192545594605    -3.030203926361     0.059062863634     1.007825032230
         H            0.412643594605    -2.448158926361     1.556405863634     1.007825032230
         H            2.154996594605    -2.157769926361     1.263231863634     1.007825032230
         H           -4.206752405395     0.544245073639    -0.269154136366     1.007825032230
         H           -3.520986405395    -1.774068926361    -0.873009136366     1.007825032230

  Basis Set: AUG-CC-PVTZ
    Blend: AUG-CC-PVTZ
  Basis Set: (AUG-CC-PVTZ AUX)
    Blend: AUG-CC-PVTZ-JKFIT
	 Reference Energy          =    -553.6324276747516251 [Eh]
	 Singles Energy            =      -0.0000000000000000 [Eh]
	 Same-Spin Energy          =      -0.6042933823956784 [Eh]
	 Opposite-Spin Energy      =      -1.9037072388555625 [Eh]
	 Correlation Energy        =      -2.5080006212512407 [Eh]
	 Total Energy              =    -556.1404282960028240 [Eh]

	 ================> DF-SCS-MP2 Energies <==================
	-----------------------------------------------------------
	 SCS Same-Spin Scale       =       0.3333333333333333 [-]
	 SCS Opposite-Spin Scale   =       1.2000000000000000 [-]
	 SCS Same-Spin Energy      =      -0.2014311274652261 [Eh]
	 SCS Opposite-Spin Energy  =      -2.2844486866266749 [Eh]
	 SCS Correlation Energy    =      -2.4858798140919012 [Eh]
	 SCS Total Energy          =    -556.1183074888434703 [Eh]
	-----------------------------------------------------------

  Dipole Moment: [D]
     X:    -2.9587      Y:     0.5276      Z:     0.2767     Total:     3.0181

*** Psi4 exiting successfully. Buy a developer a beer!
