                               Psi4 1.4a3.dev225

  ==> Input File <==

--------------------------------------------------------------------------
#psi4
#
memory 32 gb

molecule  {
0 1
  O        3.0945450    -0.5978990    -0.2227500
  N        0.8732720    -0.9469790     0.1890630
  C        0.1786250     1.7001670     0.9719610
  C        1.1438980     2.1917080    -0.1170310
  C       -0.8608580     0.7595260     0.4300750
  C        1.5465590     1.0555900    -1.0683300
  C       -0.4811190    -0.5451200     0.0537530
  C        1.9260440    -0.2179400    -0.3394640
  C       -2.2011530     1.1304640     0.2820740
  C       -1.4377800    -1.4595290    -0.4043930
  C        1.1905348    -2.2842375     0.8181745
  C       -3.1574580     0.2247240    -0.1803460
  C       -2.7731680    -1.0742070    -0.5192260
  H       -0.3080960     2.5514800     1.4609130
  H        0.7541300     1.1728590     1.7431030
  H        0.6757450     2.9910460    -0.7037420
  H        2.0370980     2.6179610     0.3539850
  H        2.4176540     1.3419220    -1.6627910
  H        0.7204100     0.8435550    -1.7555650
  H       -2.5026250     2.1373940     0.5668430
  H       -1.1292290    -2.4616270    -0.6921390
  H        1.2028300    -3.0439780     0.0536200
  H        0.4229280    -2.4619330     1.5509630
  H        2.1652810    -2.1715440     1.2577890
  H       -4.1964680     0.5304710    -0.2745970
  H       -3.5107020    -1.7878430    -0.8784520
units angstrom
no_reorient  #important for SAPT in psi4, default
symmetry c1  #important for SAPT in psi4, default
}

set PROPERTIES_ORIGIN ["COM"]
properties('MP2/aug-cc-pvtz', properties = ['dipole'])
--------------------------------------------------------------------------

    Molecular point group: c1
  Charge       = 0
  Multiplicity = 1
  Basis Set: AUG-CC-PVTZ
    Blend: AUG-CC-PVTZ
  Basis Set: (AUG-CC-PVTZ AUX)
    Blend: AUG-CC-PVTZ-JKFIT

    Orbital Energies [Eh]
    ---------------------

    Doubly Occupied:

       1A    -20.516686     2A    -15.592395     3A    -11.348444
       4A    -11.284677     5A    -11.258970     6A    -11.249074
       7A    -11.245572     8A    -11.244592     9A    -11.244035
      10A    -11.241532    11A    -11.239412    12A    -11.237554
      13A    -11.235676    14A     -1.371204    15A     -1.254024
      16A     -1.151153    17A     -1.098038    18A     -1.031366
      19A     -1.017199    20A     -0.976369    21A     -0.926854
      22A     -0.867498    23A     -0.836860    24A     -0.797746
      25A     -0.752266    26A     -0.687304    27A     -0.682270
      28A     -0.667767    29A     -0.650102    30A     -0.622799
      31A     -0.617990    32A     -0.610301    33A     -0.595850
      34A     -0.578325    35A     -0.566879    36A     -0.563378
      37A     -0.538227    38A     -0.523625    39A     -0.518030
      40A     -0.508127    41A     -0.495569    42A     -0.483921
      43A     -0.473374    44A     -0.419452    45A     -0.404932
      46A     -0.341758    47A     -0.317451

  @DF-RHF Final Energy:  -553.63476255761407

   => Energetics <=

    Nuclear Repulsion Energy =            796.0457023389603819
    One-Electron Energy =               -2331.5876798634999432
    Two-Electron Energy =                 981.9072149669254941
    Total Energy =                       -553.6347625576140672
  Basis Set: (AUG-CC-PVTZ AUX)
    Blend: AUG-CC-PVTZ-RI
    Molecular point group: c1

    Geometry (in Angstrom), charge = 0, multiplicity = 1:

       Center              X                  Y                   Z               Mass
    ------------   -----------------  -----------------  -----------------  -----------------
         O            3.086811465704    -0.582063630019    -0.218406628738    15.994914619570
         N            0.865538465704    -0.931143630019     0.193406371262    14.003074004430
         C            0.170891465704     1.716002369981     0.976304371262    12.000000000000
         C            1.136164465704     2.207543369981    -0.112687628738    12.000000000000
         C           -0.868591534296     0.775361369981     0.434418371262    12.000000000000
         C            1.538825465704     1.071425369981    -1.063986628738    12.000000000000
         C           -0.488852534296    -0.529284630019     0.058096371262    12.000000000000
         C            1.918310465704    -0.202104630019    -0.335120628738    12.000000000000
         C           -2.208886534296     1.146299369981     0.286417371262    12.000000000000
         C           -1.445513534296    -1.443693630019    -0.400049628738    12.000000000000
         C            1.182801265704    -2.268402130019     0.822517871262    12.000000000000
         C           -3.165191534296     0.240559369981    -0.176002628738    12.000000000000
         C           -2.780901534296    -1.058371630019    -0.514882628738    12.000000000000
         H           -0.315829534296     2.567315369981     1.465256371262     1.007825032230
         H            0.746396465704     1.188694369981     1.747446371262     1.007825032230
         H            0.668011465704     3.006881369981    -0.699398628738     1.007825032230
         H            2.029364465704     2.633796369981     0.358328371262     1.007825032230
         H            2.409920465704     1.357757369981    -1.658447628738     1.007825032230
         H            0.712676465704     0.859390369981    -1.751221628738     1.007825032230
         H           -2.510358534296     2.153229369981     0.571186371262     1.007825032230
         H           -1.136962534296    -2.445791630019    -0.687795628738     1.007825032230
         H            1.195096465704    -3.028142630019     0.057963371262     1.007825032230
         H            0.415194465704    -2.446097630019     1.555306371262     1.007825032230
         H            2.157547465704    -2.155708630019     1.262132371262     1.007825032230
         H           -4.204201534296     0.546306369981    -0.270253628738     1.007825032230
         H           -3.518435534296    -1.772007630019    -0.874108628738     1.007825032230

  Basis Set: AUG-CC-PVTZ
    Blend: AUG-CC-PVTZ
  Basis Set: (AUG-CC-PVTZ AUX)
    Blend: AUG-CC-PVTZ-JKFIT
	 Reference Energy          =    -553.6347625576140672 [Eh]
	 Singles Energy            =      -0.0000000000000000 [Eh]
	 Same-Spin Energy          =      -0.6033727826660085 [Eh]
	 Opposite-Spin Energy      =      -1.9028637541983113 [Eh]
	 Correlation Energy        =      -2.5062365368643196 [Eh]
	 Total Energy              =    -556.1409990944783885 [Eh]

	 ================> DF-SCS-MP2 Energies <==================
	-----------------------------------------------------------
	 SCS Same-Spin Scale       =       0.3333333333333333 [-]
	 SCS Opposite-Spin Scale   =       1.2000000000000000 [-]
	 SCS Same-Spin Energy      =      -0.2011242608886695 [Eh]
	 SCS Opposite-Spin Energy  =      -2.2834365050379737 [Eh]
	 SCS Correlation Energy    =      -2.4845607659266431 [Eh]
	 SCS Total Energy          =    -556.1193233235406979 [Eh]
	-----------------------------------------------------------

  Dipole Moment: [D]
     X:    -3.2010      Y:     0.4612      Z:     0.3145     Total:     3.2493

*** Psi4 exiting successfully. Buy a developer a beer!
