                               Psi4 1.3.2 release

  ==> Input File <==

--------------------------------------------------------------------------
#psi4
#
memory 32 gb

molecule  {
0 1
  O        0.1763910     2.6970700    -0.0085580
  C        0.2089260     1.4725840     0.0042240
  N        1.4659430     0.7906670    -0.0052000
  C        1.6696020    -0.5667920     0.0018180
  N        0.7040600    -1.4531590     0.0111340
  C       -0.5247500    -0.8567100    -0.0036900
  C       -0.8547481     0.4964669    -0.1348986
  N       -2.2178770     0.6874110     0.0132550
  C       -2.7081380    -0.5423290     0.0003530
  N       -1.7302440    -1.5082620    -0.0074590
  N        2.9897270    -0.9822980    -0.0798890
  H        2.2638450     1.4140280    -0.1046570
  H       -3.7608750    -0.7937900    -0.0035550
  H       -1.8528420    -2.5141400    -0.0211820
  H        3.0628590    -1.9839740     0.0678780
  H        3.6422020    -0.4648880     0.5003130
units angstrom
no_reorient  #important for SAPT in psi4, default
symmetry c1  #important for SAPT in psi4, default
}

set PROPERTIES_ORIGIN ["COM"]
properties('MP2/aug-cc-pvtz', properties = ['dipole'])
--------------------------------------------------------------------------

    Molecular point group: c1
  Charge       = 0
  Multiplicity = 1
  Basis Set: AUG-CC-PVTZ
    Blend: AUG-CC-PVTZ
  Basis Set: (AUG-CC-PVTZ AUX)
    Blend: AUG-CC-PVTZ-JKFIT

    Orbital Energies [Eh]
    ---------------------

    Doubly Occupied:

       1A    -20.524853     2A    -15.636156     3A    -15.631945
       4A    -15.612858     5A    -15.573794     6A    -15.565277
       7A    -11.399379     8A    -11.368398     9A    -11.329048
      10A    -11.314203    11A    -11.252311    12A     -1.393457
      13A     -1.360711    14A     -1.335901    15A     -1.220982
      16A     -1.218291    17A     -1.177171    18A     -1.029975
      19A     -0.905384    20A     -0.885310    21A     -0.843429
      22A     -0.798988    23A     -0.740445    24A     -0.730174
      25A     -0.701357    26A     -0.671895    27A     -0.654516
      28A     -0.634062    29A     -0.614217    30A     -0.605439
      31A     -0.591265    32A     -0.547041    33A     -0.499351
      34A     -0.464237    35A     -0.442378    36A     -0.434939
      37A     -0.429463    38A     -0.411250    39A     -0.302951

  @DF-RHF Final Energy:  -539.58136191266192

   => Energetics <=

    Nuclear Repulsion Energy =            593.3576844255477454
    One-Electron Energy =               -1912.1724916958653466
    Two-Electron Energy =                 779.2334453576555688
    Total Energy =                       -539.5813619126619187
  Basis Set: (AUG-CC-PVTZ AUX)
    Blend: AUG-CC-PVTZ-RI
    Molecular point group: c1

    Geometry (in Angstrom), charge = 0, multiplicity = 1:

       Center              X                  Y                   Z               Mass
    ------------   -----------------  -----------------  -----------------  -----------------
         O            0.198504586979     2.668769700655     0.006241214394    15.994914619570
         C            0.231039586979     1.444283700655     0.019023214394    12.000000000000
         N            1.488056586979     0.762366700655     0.009599214394    14.003074004430
         C            1.691715586979    -0.595092299345     0.016617214394    12.000000000000
         N            0.726173586979    -1.481459299345     0.025933214394    14.003074004430
         C           -0.502636413021    -0.885010299345     0.011109214394    12.000000000000
         C           -0.832634513021     0.468166600655    -0.120099385606    12.000000000000
         N           -2.195763413021     0.659110700655     0.028054214394    14.003074004430
         C           -2.686024413021    -0.570629299345     0.015152214394    12.000000000000
         N           -1.708130413021    -1.536562299345     0.007340214394    14.003074004430
         N            3.011840586979    -1.010598299345    -0.065089785606    14.003074004430
         H            2.285958586979     1.385727700655    -0.089857785606     1.007825032230
         H           -3.738761413021    -0.822090299345     0.011244214394     1.007825032230
         H           -1.830728413021    -2.542440299345    -0.006382785606     1.007825032230
         H            3.084972586979    -2.012274299345     0.082677214394     1.007825032230
         H            3.664315586979    -0.493188299345     0.515112214394     1.007825032230

  Basis Set: AUG-CC-PVTZ
    Blend: AUG-CC-PVTZ
  Basis Set: (AUG-CC-PVTZ AUX)
    Blend: AUG-CC-PVTZ-JKFIT
	 Reference Energy          =    -539.5813619126619187 [Eh]
	 Singles Energy            =      -0.0000000000000000 [Eh]
	 Same-Spin Energy          =      -0.5731032314513114 [Eh]
	 Opposite-Spin Energy      =      -1.6633732842100477 [Eh]
	 Correlation Energy        =      -2.2364765156613591 [Eh]
	 Total Energy              =    -541.8178384283232845 [Eh]

	 ================> DF-SCS-MP2 Energies <==================
	-----------------------------------------------------------
	 SCS Same-Spin Scale       =       0.3333333333333333 [-]
	 SCS Opposite-Spin Scale   =       1.2000000000000000 [-]
	 SCS Same-Spin Energy      =      -0.1910344104837705 [Eh]
	 SCS Opposite-Spin Energy  =      -1.9960479410520571 [Eh]
	 SCS Correlation Energy    =      -2.1870823515358273 [Eh]
	 SCS Total Energy          =    -541.7684442641977967 [Eh]
	-----------------------------------------------------------

  Dipole Moment: [D]
     X:     2.6929      Y:    -5.6281      Z:     0.8343     Total:     6.2947

*** Psi4 exiting successfully. Buy a developer a beer!
