                               Psi4 1.3.2 release

  ==> Input File <==

--------------------------------------------------------------------------
#psi4
#
memory 32 gb

molecule  {
0 1
  O        0.1763910     2.6970700    -0.0085580
  C        0.2089260     1.4725840     0.0042240
  N        1.4659430     0.7906670    -0.0052000
  C        1.6696020    -0.5667920     0.0018180
  N        0.7040600    -1.4531590     0.0111340
  C       -0.5247500    -0.8567100    -0.0036900
  C       -0.8535700     0.4975280     0.0150930
  N       -2.2178770     0.6874110     0.0132550
  C       -2.7081380    -0.5423290     0.0003530
  N       -1.7321082    -1.5102579     0.2425261
  N        2.9897270    -0.9822980    -0.0798890
  H        2.2638450     1.4140280    -0.1046570
  H       -3.7608750    -0.7937900    -0.0035550
  H       -1.8528420    -2.5141400    -0.0211820
  H        3.0628590    -1.9839740     0.0678780
  H        3.6422020    -0.4648880     0.5003130
units angstrom
no_reorient  #important for SAPT in psi4, default
symmetry c1  #important for SAPT in psi4, default
}

set PROPERTIES_ORIGIN ["COM"]
properties('MP2/aug-cc-pvtz', properties = ['dipole'])
--------------------------------------------------------------------------

    Molecular point group: c1
  Charge       = 0
  Multiplicity = 1
  Basis Set: AUG-CC-PVTZ
    Blend: AUG-CC-PVTZ
  Basis Set: (AUG-CC-PVTZ AUX)
    Blend: AUG-CC-PVTZ-JKFIT

    Orbital Energies [Eh]
    ---------------------

    Doubly Occupied:

       1A    -20.525681     2A    -15.636053     3A    -15.633592
       4A    -15.613383     5A    -15.574820     6A    -15.568841
       7A    -11.399996     8A    -11.369345     9A    -11.330438
      10A    -11.316667    11A    -11.254195    12A     -1.394080
      13A     -1.356633    14A     -1.334410    15A     -1.221866
      16A     -1.219248    17A     -1.174517    18A     -1.031040
      19A     -0.902411    20A     -0.886388    21A     -0.834428
      22A     -0.796174    23A     -0.739013    24A     -0.728310
      25A     -0.699879    26A     -0.669765    27A     -0.655605
      28A     -0.629026    29A     -0.612574    30A     -0.602635
      31A     -0.594562    32A     -0.548132    33A     -0.499210
      34A     -0.464807    35A     -0.444376    36A     -0.437010
      37A     -0.430125    38A     -0.418268    39A     -0.303049

  @DF-RHF Final Energy:  -539.57410762179347

   => Energetics <=

    Nuclear Repulsion Energy =            592.7325098067190083
    One-Electron Energy =               -1910.9121314487656491
    Two-Electron Energy =                 778.6055140202531675
    Total Energy =                       -539.5741076217934733
  Basis Set: (AUG-CC-PVTZ AUX)
    Blend: AUG-CC-PVTZ-RI
    Molecular point group: c1

    Geometry (in Angstrom), charge = 0, multiplicity = 1:

       Center              X                  Y                   Z               Mass
    ------------   -----------------  -----------------  -----------------  -----------------
         O            0.198583814899     2.668870432828    -0.028849681110    15.994914619570
         C            0.231118814899     1.444384432828    -0.016067681110    12.000000000000
         N            1.488135814899     0.762467432828    -0.025491681110    14.003074004430
         C            1.691794814899    -0.594991567172    -0.018473681110    12.000000000000
         N            0.726252814899    -1.481358567172    -0.009157681110    14.003074004430
         C           -0.502557185101    -0.884909567172    -0.023981681110    12.000000000000
         C           -0.831377185101     0.469328432828    -0.005198681110    12.000000000000
         N           -2.195684185101     0.659211432828    -0.007036681110    14.003074004430
         C           -2.685945185101    -0.570528567172    -0.019938681110    12.000000000000
         N           -1.709915385101    -1.538457467172     0.222234418890    14.003074004430
         N            3.011919814899    -1.010497567172    -0.100180681110    14.003074004430
         H            2.286037814899     1.385828432828    -0.124948681110     1.007825032230
         H           -3.738682185101    -0.821989567172    -0.023846681110     1.007825032230
         H           -1.830649185101    -2.542339567172    -0.041473681110     1.007825032230
         H            3.085051814899    -2.012173567172     0.047586318890     1.007825032230
         H            3.664394814899    -0.493087567172     0.480021318890     1.007825032230

  Basis Set: AUG-CC-PVTZ
    Blend: AUG-CC-PVTZ
  Basis Set: (AUG-CC-PVTZ AUX)
    Blend: AUG-CC-PVTZ-JKFIT
	 Reference Energy          =    -539.5741076217934733 [Eh]
	 Singles Energy            =      -0.0000000000000000 [Eh]
	 Same-Spin Energy          =      -0.5733056406142819 [Eh]
	 Opposite-Spin Energy      =      -1.6649643897084356 [Eh]
	 Correlation Energy        =      -2.2382700303227177 [Eh]
	 Total Energy              =    -541.8123776521161972 [Eh]

	 ================> DF-SCS-MP2 Energies <==================
	-----------------------------------------------------------
	 SCS Same-Spin Scale       =       0.3333333333333333 [-]
	 SCS Opposite-Spin Scale   =       1.2000000000000000 [-]
	 SCS Same-Spin Energy      =      -0.1911018802047606 [Eh]
	 SCS Opposite-Spin Energy  =      -1.9979572676501227 [Eh]
	 SCS Correlation Energy    =      -2.1890591478548833 [Eh]
	 SCS Total Energy          =    -541.7631667696483646 [Eh]
	-----------------------------------------------------------

  Dipole Moment: [D]
     X:     2.7764      Y:    -5.4093      Z:     0.5981     Total:     6.1095

*** Psi4 exiting successfully. Buy a developer a beer!
