                               Psi4 1.3.2 release

  ==> Input File <==

--------------------------------------------------------------------------
#psi4
#
memory 32 gb

molecule  {
0 1
  O        0.1763910     2.6970700    -0.0085580
  C        0.2089260     1.4725840     0.0042240
  N        1.4659430     0.7906670    -0.0052000
  C        1.6696020    -0.5667920     0.0018180
  N        0.7040600    -1.4531590     0.0111340
  C       -0.5247500    -0.8567100    -0.0036900
  C       -0.8535700     0.4975280     0.0150930
  N       -2.2178770     0.6874110     0.0132550
  C       -2.7081380    -0.5423290     0.0003530
  N       -1.7302440    -1.5082620    -0.0074590
  N        2.9959025    -0.9833039     0.0699804
  H        2.2638450     1.4140280    -0.1046570
  H       -3.7608750    -0.7937900    -0.0035550
  H       -1.8528420    -2.5141400    -0.0211820
  H        3.0628590    -1.9839740     0.0678780
  H        3.6422020    -0.4648880     0.5003130
units angstrom
no_reorient  #important for SAPT in psi4, default
symmetry c1  #important for SAPT in psi4, default
}

set PROPERTIES_ORIGIN ["COM"]
properties('MP2/aug-cc-pvtz', properties = ['dipole'])
--------------------------------------------------------------------------

    Molecular point group: c1
  Charge       = 0
  Multiplicity = 1
  Basis Set: AUG-CC-PVTZ
    Blend: AUG-CC-PVTZ
  Basis Set: (AUG-CC-PVTZ AUX)
    Blend: AUG-CC-PVTZ-JKFIT

    Orbital Energies [Eh]
    ---------------------

    Doubly Occupied:

       1A    -20.523904     2A    -15.635414     3A    -15.631459
       4A    -15.602687     5A    -15.571970     6A    -15.564556
       7A    -11.400934     8A    -11.367449     9A    -11.327341
      10A    -11.313399    11A    -11.250243    12A     -1.392965
      13A     -1.360257    14A     -1.335517    15A     -1.226116
      16A     -1.217960    17A     -1.177599    18A     -1.032452
      19A     -0.906390    20A     -0.889293    21A     -0.844360
      22A     -0.808795    23A     -0.742241    24A     -0.737107
      25A     -0.714736    26A     -0.676336    27A     -0.655311
      28A     -0.634743    29A     -0.614495    30A     -0.600799
      31A     -0.596623    32A     -0.546802    33A     -0.499115
      34A     -0.455331    35A     -0.442627    36A     -0.432465
      37A     -0.432205    38A     -0.411485    39A     -0.301203

  @DF-RHF Final Energy:  -539.58273503297357

   => Energetics <=

    Nuclear Repulsion Energy =            593.8537072705490800
    One-Electron Energy =               -1913.1235234235753069
    Two-Electron Energy =                 779.6870811200525395
    Total Energy =                       -539.5827350329735737
  Basis Set: (AUG-CC-PVTZ AUX)
    Blend: AUG-CC-PVTZ-RI
    Molecular point group: c1

    Geometry (in Angstrom), charge = 0, multiplicity = 1:

       Center              X                  Y                   Z               Mass
    ------------   -----------------  -----------------  -----------------  -----------------
         O            0.197838492463     2.668778654626    -0.019568429645    15.994914619570
         C            0.230373492463     1.444292654626    -0.006786429645    12.000000000000
         N            1.487390492463     0.762375654626    -0.016210429645    14.003074004430
         C            1.691049492463    -0.595083345374    -0.009192429645    12.000000000000
         N            0.725507492463    -1.481450345374     0.000123570355    14.003074004430
         C           -0.503302507537    -0.885001345374    -0.014700429645    12.000000000000
         C           -0.832122507537     0.469236654626     0.004082570355    12.000000000000
         N           -2.196429507537     0.659119654626     0.002244570355    14.003074004430
         C           -2.686690507537    -0.570620345374    -0.010657429645    12.000000000000
         N           -1.708796507537    -1.536553345374    -0.018469429645    14.003074004430
         N            3.017349992463    -1.011595245374     0.058969970355    14.003074004430
         H            2.285292492463     1.385736654626    -0.115667429645     1.007825032230
         H           -3.739427507537    -0.822081345374    -0.014565429645     1.007825032230
         H           -1.831394507537    -2.542431345374    -0.032192429645     1.007825032230
         H            3.084306492463    -2.012265345374     0.056867570355     1.007825032230
         H            3.663649492463    -0.493179345374     0.489302570355     1.007825032230

  Basis Set: AUG-CC-PVTZ
    Blend: AUG-CC-PVTZ
  Basis Set: (AUG-CC-PVTZ AUX)
    Blend: AUG-CC-PVTZ-JKFIT
	 Reference Energy          =    -539.5827350329735737 [Eh]
	 Singles Energy            =      -0.0000000000000000 [Eh]
	 Same-Spin Energy          =      -0.5725808504393086 [Eh]
	 Opposite-Spin Energy      =      -1.6617067125033325 [Eh]
	 Correlation Energy        =      -2.2342875629426411 [Eh]
	 Total Energy              =    -541.8170225959162281 [Eh]

	 ================> DF-SCS-MP2 Energies <==================
	-----------------------------------------------------------
	 SCS Same-Spin Scale       =       0.3333333333333333 [-]
	 SCS Opposite-Spin Scale   =       1.2000000000000000 [-]
	 SCS Same-Spin Energy      =      -0.1908602834797695 [Eh]
	 SCS Opposite-Spin Energy  =      -1.9940480550039990 [Eh]
	 SCS Correlation Energy    =      -2.1849083384837686 [Eh]
	 SCS Total Energy          =    -541.7676433714573250 [Eh]
	-----------------------------------------------------------

  Dipole Moment: [D]
     X:     2.8569      Y:    -5.6308      Z:     0.5214     Total:     6.3356

*** Psi4 exiting successfully. Buy a developer a beer!
