                               Psi4 1.3.2 release

  ==> Input File <==

--------------------------------------------------------------------------
#psi4
#
memory 32 gb

molecule  {
0 1
  O        0.1763910     2.6970700    -0.0085580
  C        0.2089260     1.4725840     0.0042240
  N        1.4659430     0.7906670    -0.0052000
  C        1.6696020    -0.5667920     0.0018180
  N        0.7040600    -1.4531590     0.0111340
  C       -0.5247500    -0.8567100    -0.0036900
  C       -0.8535700     0.4975280     0.0150930
  N       -2.2178770     0.6874110     0.0132550
  C       -2.7081380    -0.5423290     0.0003530
  N       -1.7302440    -1.5082620    -0.0074590
  N        2.9897270    -0.9822980    -0.0798890
  H        2.2638450     1.4140280    -0.1046570
  H       -3.7607992    -0.7933015    -0.0535526
  H       -1.8528420    -2.5141400    -0.0211820
  H        3.0628590    -1.9839740     0.0678780
  H        3.6422020    -0.4648880     0.5003130
units angstrom
no_reorient  #important for SAPT in psi4, default
symmetry c1  #important for SAPT in psi4, default
}

set PROPERTIES_ORIGIN ["COM"]
properties('MP2/aug-cc-pvtz', properties = ['dipole'])
--------------------------------------------------------------------------

    Molecular point group: c1
  Charge       = 0
  Multiplicity = 1
  Basis Set: AUG-CC-PVTZ
    Blend: AUG-CC-PVTZ
  Basis Set: (AUG-CC-PVTZ AUX)
    Blend: AUG-CC-PVTZ-JKFIT

    Orbital Energies [Eh]
    ---------------------

    Doubly Occupied:

       1A    -20.524432     2A    -15.636231     3A    -15.632011
       4A    -15.612392     5A    -15.573625     6A    -15.565359
       7A    -11.398627     8A    -11.368045     9A    -11.327619
      10A    -11.314399    11A    -11.251504    12A     -1.393583
      13A     -1.360983    14A     -1.335888    15A     -1.220816
      16A     -1.218351    17A     -1.178285    18A     -1.031362
      19A     -0.906845    20A     -0.885257    21A     -0.844955
      22A     -0.799131    23A     -0.740357    24A     -0.730301
      25A     -0.700713    26A     -0.673184    27A     -0.655962
      28A     -0.634220    29A     -0.614781    30A     -0.602586
      31A     -0.595160    32A     -0.547950    33A     -0.499788
      34A     -0.462676    35A     -0.443207    36A     -0.433253
      37A     -0.432574    38A     -0.412251    39A     -0.302932

  @DF-RHF Final Energy:  -539.58744302284322

   => Energetics <=

    Nuclear Repulsion Energy =            593.6503474097589788
    One-Electron Energy =               -1912.7523919560951526
    Two-Electron Energy =                 779.5146015234929564
    Total Energy =                       -539.5874430228432175
  Basis Set: (AUG-CC-PVTZ AUX)
    Blend: AUG-CC-PVTZ-RI
    Molecular point group: c1

    Geometry (in Angstrom), charge = 0, multiplicity = 1:

       Center              X                  Y                   Z               Mass
    ------------   -----------------  -----------------  -----------------  -----------------
         O            0.198410488014     2.668682143063    -0.005341157027    15.994914619570
         C            0.230945488014     1.444196143063     0.007440842973    12.000000000000
         N            1.487962488014     0.762279143063    -0.001983157027    14.003074004430
         C            1.691621488014    -0.595179856937     0.005034842973    12.000000000000
         N            0.726079488014    -1.481546856937     0.014350842973    14.003074004430
         C           -0.502730511986    -0.885097856937    -0.000473157027    12.000000000000
         C           -0.831550511986     0.469140143063     0.018309842973    12.000000000000
         N           -2.195857511986     0.659023143063     0.016471842973    14.003074004430
         C           -2.686118511986    -0.570716856937     0.003569842973    12.000000000000
         N           -1.708224511986    -1.536649856937    -0.004242157027    14.003074004430
         N            3.011746488014    -1.010685856937    -0.076672157027    14.003074004430
         H            2.285864488014     1.385640143063    -0.101440157027     1.007825032230
         H           -3.738779711986    -0.821689356937    -0.050335757027     1.007825032230
         H           -1.830822511986    -2.542527856937    -0.017965157027     1.007825032230
         H            3.084878488014    -2.012361856937     0.071094842973     1.007825032230
         H            3.664221488014    -0.493275856937     0.503529842973     1.007825032230

  Basis Set: AUG-CC-PVTZ
    Blend: AUG-CC-PVTZ
  Basis Set: (AUG-CC-PVTZ AUX)
    Blend: AUG-CC-PVTZ-JKFIT
	 Reference Energy          =    -539.5874430228432175 [Eh]
	 Singles Energy            =      -0.0000000000000000 [Eh]
	 Same-Spin Energy          =      -0.5730436888855868 [Eh]
	 Opposite-Spin Energy      =      -1.6632181449111578 [Eh]
	 Correlation Energy        =      -2.2362618337967444 [Eh]
	 Total Energy              =    -541.8237048566400063 [Eh]

	 ================> DF-SCS-MP2 Energies <==================
	-----------------------------------------------------------
	 SCS Same-Spin Scale       =       0.3333333333333333 [-]
	 SCS Opposite-Spin Scale   =       1.2000000000000000 [-]
	 SCS Same-Spin Energy      =      -0.1910145629618623 [Eh]
	 SCS Opposite-Spin Energy  =      -1.9958617738933893 [Eh]
	 SCS Correlation Energy    =      -2.1868763368552515 [Eh]
	 SCS Total Energy          =    -541.7743193596984383 [Eh]
	-----------------------------------------------------------

  Dipole Moment: [D]
     X:     2.6709      Y:    -5.6331      Z:     0.8078     Total:     6.2863

*** Psi4 exiting successfully. Buy a developer a beer!
