                               Psi4 1.3.2 release

  ==> Input File <==

--------------------------------------------------------------------------
#psi4
#
memory 32 gb

molecule  {
0 1
  O        0.1763910     2.6970700    -0.0085580
  C        0.2089260     1.4725840     0.0042240
  N        1.4659430     0.7906670    -0.0052000
  C        1.6696020    -0.5667920     0.0018180
  N        0.7040600    -1.4531590     0.0111340
  C       -0.5247500    -0.8567100    -0.0036900
  C       -0.8543554     0.4968206    -0.0849014
  N       -2.2178770     0.6874110     0.0132550
  C       -2.7081380    -0.5423290     0.0003530
  N       -1.7302440    -1.5082620    -0.0074590
  N        2.9897270    -0.9822980    -0.0798890
  H        2.2638450     1.4140280    -0.1046570
  H       -3.7608750    -0.7937900    -0.0035550
  H       -1.8528420    -2.5141400    -0.0211820
  H        3.0628590    -1.9839740     0.0678780
  H        3.6422020    -0.4648880     0.5003130
units angstrom
no_reorient  #important for SAPT in psi4, default
symmetry c1  #important for SAPT in psi4, default
}

set PROPERTIES_ORIGIN ["COM"]
properties('MP2/aug-cc-pvtz', properties = ['dipole'])
--------------------------------------------------------------------------

    Molecular point group: c1
  Charge       = 0
  Multiplicity = 1
  Basis Set: AUG-CC-PVTZ
    Blend: AUG-CC-PVTZ
  Basis Set: (AUG-CC-PVTZ AUX)
    Blend: AUG-CC-PVTZ-JKFIT

    Orbital Energies [Eh]
    ---------------------

    Doubly Occupied:

       1A    -20.524654     2A    -15.636155     3A    -15.631962
       4A    -15.612569     5A    -15.573676     6A    -15.565287
       7A    -11.398937     8A    -11.368205     9A    -11.328122
      10A    -11.314265    11A    -11.251804    12A     -1.393537
      13A     -1.360892    14A     -1.335897    15A     -1.220871
      16A     -1.218314    17A     -1.177810    18A     -1.030794
      19A     -0.906187    20A     -0.885276    21A     -0.844358
      22A     -0.799083    23A     -0.740407    24A     -0.730284
      25A     -0.701141    26A     -0.672482    27A     -0.655394
      28A     -0.633999    29A     -0.614389    30A     -0.604343
      31A     -0.593401    32A     -0.547441    33A     -0.499595
      34A     -0.463498    35A     -0.442765    36A     -0.434514
      37A     -0.430723    38A     -0.411848    39A     -0.302921

  @DF-RHF Final Energy:  -539.58491576561823

   => Energetics <=

    Nuclear Repulsion Energy =            593.5371546530203659
    One-Electron Energy =               -1912.5285407198362009
    Two-Electron Energy =                 779.4064703011974871
    Total Energy =                       -539.5849157656182342
  Basis Set: (AUG-CC-PVTZ AUX)
    Blend: AUG-CC-PVTZ-RI
    Molecular point group: c1

    Geometry (in Angstrom), charge = 0, multiplicity = 1:

       Center              X                  Y                   Z               Mass
    ------------   -----------------  -----------------  -----------------  -----------------
         O            0.198473389241     2.668741601240     0.002269226679    15.994914619570
         C            0.231008389241     1.444255601240     0.015051226679    12.000000000000
         N            1.488025389241     0.762338601240     0.005627226679    14.003074004430
         C            1.691684389241    -0.595120398760     0.012645226679    12.000000000000
         N            0.726142389241    -1.481487398760     0.021961226679    14.003074004430
         C           -0.502667610759    -0.885038398760     0.007137226679    12.000000000000
         C           -0.832273010759     0.468492201240    -0.074074173321    12.000000000000
         N           -2.195794610759     0.659082601240     0.024082226679    14.003074004430
         C           -2.686055610759    -0.570657398760     0.011180226679    12.000000000000
         N           -1.708161610759    -1.536590398760     0.003368226679    14.003074004430
         N            3.011809389241    -1.010626398760    -0.069061773321    14.003074004430
         H            2.285927389241     1.385699601240    -0.093829773321     1.007825032230
         H           -3.738792610759    -0.822118398760     0.007272226679     1.007825032230
         H           -1.830759610759    -2.542468398760    -0.010354773321     1.007825032230
         H            3.084941389241    -2.012302398760     0.078705226679     1.007825032230
         H            3.664284389241    -0.493216398760     0.511140226679     1.007825032230

  Basis Set: AUG-CC-PVTZ
    Blend: AUG-CC-PVTZ
  Basis Set: (AUG-CC-PVTZ AUX)
    Blend: AUG-CC-PVTZ-JKFIT
	 Reference Energy          =    -539.5849157656182342 [Eh]
	 Singles Energy            =      -0.0000000000000000 [Eh]
	 Same-Spin Energy          =      -0.5730531158395924 [Eh]
	 Opposite-Spin Energy      =      -1.6631898878612190 [Eh]
	 Correlation Energy        =      -2.2362430037008112 [Eh]
	 Total Energy              =    -541.8211587693190268 [Eh]

	 ================> DF-SCS-MP2 Energies <==================
	-----------------------------------------------------------
	 SCS Same-Spin Scale       =       0.3333333333333333 [-]
	 SCS Opposite-Spin Scale   =       1.2000000000000000 [-]
	 SCS Same-Spin Energy      =      -0.1910177052798641 [Eh]
	 SCS Opposite-Spin Energy  =      -1.9958278654334627 [Eh]
	 SCS Correlation Energy    =      -2.1868455707133267 [Eh]
	 SCS Total Energy          =    -541.7717613363315650 [Eh]
	-----------------------------------------------------------

  Dipole Moment: [D]
     X:     2.6793      Y:    -5.6297      Z:     0.8366     Total:     6.2906

*** Psi4 exiting successfully. Buy a developer a beer!
