                               Psi4 1.3.2 release

  ==> Input File <==

--------------------------------------------------------------------------
#psi4
#
memory 32 gb

molecule  {
0 1
  O        0.1763910     2.6970700    -0.0085580
  C        0.2089260     1.4725840     0.0042240
  N        1.4659430     0.7906670    -0.0052000
  C        1.6696020    -0.5667920     0.0018180
  N        0.7040600    -1.4531590     0.0111340
  C       -0.5247500    -0.8567100    -0.0036900
  C       -0.8535700     0.4975280     0.0150930
  N       -2.2178770     0.6874110     0.0132550
  C       -2.7081380    -0.5423290     0.0003530
  N       -1.7302440    -1.5082620    -0.0074590
  N        2.9917855    -0.9826333    -0.0299325
  H        2.2638450     1.4140280    -0.1046570
  H       -3.7608750    -0.7937900    -0.0035550
  H       -1.8528420    -2.5141400    -0.0211820
  H        3.0628590    -1.9839740     0.0678780
  H        3.6422020    -0.4648880     0.5003130
units angstrom
no_reorient  #important for SAPT in psi4, default
symmetry c1  #important for SAPT in psi4, default
}

set PROPERTIES_ORIGIN ["COM"]
properties('MP2/aug-cc-pvtz', properties = ['dipole'])
--------------------------------------------------------------------------

    Molecular point group: c1
  Charge       = 0
  Multiplicity = 1
  Basis Set: AUG-CC-PVTZ
    Blend: AUG-CC-PVTZ
  Basis Set: (AUG-CC-PVTZ AUX)
    Blend: AUG-CC-PVTZ-JKFIT

    Orbital Energies [Eh]
    ---------------------

    Doubly Occupied:

       1A    -20.524181     2A    -15.635858     3A    -15.631726
       4A    -15.608694     5A    -15.572828     6A    -15.564964
       7A    -11.399264     8A    -11.367766     9A    -11.327407
      10A    -11.313892    11A    -11.250908    12A     -1.393332
      13A     -1.360649    14A     -1.335892    15A     -1.222850
      16A     -1.218213    17A     -1.177946    18A     -1.031639
      19A     -0.906657    20A     -0.886659    21A     -0.844670
      22A     -0.801998    23A     -0.740410    24A     -0.732928
      25A     -0.707008    26A     -0.674962    27A     -0.655891
      28A     -0.634514    29A     -0.614598    30A     -0.601182
      31A     -0.596788    32A     -0.547533    33A     -0.499473
      34A     -0.459808    35A     -0.442975    36A     -0.432832
      37A     -0.432422    38A     -0.411906    39A     -0.302207

  @DF-RHF Final Energy:  -539.58810584875141

   => Energetics <=

    Nuclear Repulsion Energy =            593.7675502305625059
    One-Electron Energy =               -1912.9804538532966944
    Two-Electron Energy =                 779.6247977739828912
    Total Energy =                       -539.5881058487514110
  Basis Set: (AUG-CC-PVTZ AUX)
    Blend: AUG-CC-PVTZ-RI
    Molecular point group: c1

    Geometry (in Angstrom), charge = 0, multiplicity = 1:

       Center              X                  Y                   Z               Mass
    ------------   -----------------  -----------------  -----------------  -----------------
         O            0.198220159997     2.668716486482    -0.010305978805    15.994914619570
         C            0.230755159997     1.444230486482     0.002476021195    12.000000000000
         N            1.487772159997     0.762313486482    -0.006947978805    14.003074004430
         C            1.691431159997    -0.595145513518     0.000070021195    12.000000000000
         N            0.725889159997    -1.481512513518     0.009386021195    14.003074004430
         C           -0.502920840003    -0.885063513518    -0.005437978805    12.000000000000
         C           -0.831740840003     0.469174486482     0.013345021195    12.000000000000
         N           -2.196047840003     0.659057486482     0.011507021195    14.003074004430
         C           -2.686308840003    -0.570682513518    -0.001394978805    12.000000000000
         N           -1.708414840003    -1.536615513518    -0.009206978805    14.003074004430
         N            3.013614659997    -1.010986813518    -0.031680478805    14.003074004430
         H            2.285674159997     1.385674486482    -0.106404978805     1.007825032230
         H           -3.739045840003    -0.822143513518    -0.005302978805     1.007825032230
         H           -1.831012840003    -2.542493513518    -0.022929978805     1.007825032230
         H            3.084688159997    -2.012327513518     0.066130021195     1.007825032230
         H            3.664031159997    -0.493241513518     0.498565021195     1.007825032230

  Basis Set: AUG-CC-PVTZ
    Blend: AUG-CC-PVTZ
  Basis Set: (AUG-CC-PVTZ AUX)
    Blend: AUG-CC-PVTZ-JKFIT
	 Reference Energy          =    -539.5881058487514110 [Eh]
	 Singles Energy            =      -0.0000000000000000 [Eh]
	 Same-Spin Energy          =      -0.5728086069396847 [Eh]
	 Opposite-Spin Energy      =      -1.6624963040408138 [Eh]
	 Correlation Energy        =      -2.2353049109804983 [Eh]
	 Total Energy              =    -541.8234107597319280 [Eh]

	 ================> DF-SCS-MP2 Energies <==================
	-----------------------------------------------------------
	 SCS Same-Spin Scale       =       0.3333333333333333 [-]
	 SCS Opposite-Spin Scale   =       1.2000000000000000 [-]
	 SCS Same-Spin Energy      =      -0.1909362023132282 [Eh]
	 SCS Opposite-Spin Energy  =      -1.9949955648489766 [Eh]
	 SCS Correlation Energy    =      -2.1859317671622049 [Eh]
	 SCS Total Energy          =    -541.7740376159135849 [Eh]
	-----------------------------------------------------------

  Dipole Moment: [D]
     X:     2.7504      Y:    -5.6373      Z:     0.7456     Total:     6.3166

*** Psi4 exiting successfully. Buy a developer a beer!
