                               Psi4 1.3.2 release

  ==> Input File <==

--------------------------------------------------------------------------
#psi4
#
memory 32 gb

molecule  {
0 1
  O        0.1763910     2.6970700    -0.0085580
  C        0.2089260     1.4725840     0.0042240
  N        1.4659430     0.7906670    -0.0052000
  C        1.6696020    -0.5667920     0.0018180
  N        0.7040600    -1.4531590     0.0111340
  C       -0.5247500    -0.8567100    -0.0036900
  C       -0.8535700     0.4975280     0.0150930
  N       -2.2178770     0.6874110     0.0132550
  C       -2.7081380    -0.5423290     0.0003530
  N       -1.7302440    -1.5082620    -0.0074590
  N        3.0020781    -0.9843098     0.2198499
  H        2.2638450     1.4140280    -0.1046570
  H       -3.7608750    -0.7937900    -0.0035550
  H       -1.8528420    -2.5141400    -0.0211820
  H        3.0628590    -1.9839740     0.0678780
  H        3.6422020    -0.4648880     0.5003130
units angstrom
no_reorient  #important for SAPT in psi4, default
symmetry c1  #important for SAPT in psi4, default
}

set PROPERTIES_ORIGIN ["COM"]
properties('MP2/aug-cc-pvtz', properties = ['dipole'])
--------------------------------------------------------------------------

    Molecular point group: c1
  Charge       = 0
  Multiplicity = 1
  Basis Set: AUG-CC-PVTZ
    Blend: AUG-CC-PVTZ
  Basis Set: (AUG-CC-PVTZ AUX)
    Blend: AUG-CC-PVTZ-JKFIT

    Orbital Energies [Eh]
    ---------------------

    Doubly Occupied:

       1A    -20.524101     2A    -15.635731     3A    -15.631943
       4A    -15.596839     5A    -15.572858     6A    -15.564847
       7A    -11.403806     8A    -11.367644     9A    -11.328091
      10A    -11.313776    11A    -11.250710    12A     -1.392844
      13A     -1.360484    14A     -1.334083    15A     -1.228622
      16A     -1.218321    17A     -1.178011    18A     -1.034408
      19A     -0.906673    20A     -0.892554    21A     -0.844851
      22A     -0.817511    23A     -0.749465    24A     -0.738083
      25A     -0.712245    26A     -0.676818    27A     -0.655740
      28A     -0.632681    29A     -0.614772    30A     -0.600819
      31A     -0.595672    32A     -0.545861    33A     -0.499555
      34A     -0.452012    35A     -0.442539    36A     -0.432777
      37A     -0.432466    38A     -0.411678    39A     -0.301212

  @DF-RHF Final Energy:  -539.56159733516358

   => Energetics <=

    Nuclear Repulsion Energy =            593.6189232505277005
    One-Electron Energy =               -1912.5748363252901072
    Two-Electron Energy =                 779.3943157395989374
    Total Energy =                       -539.5615973351635830
  Basis Set: (AUG-CC-PVTZ AUX)
    Blend: AUG-CC-PVTZ-RI
    Molecular point group: c1

    Geometry (in Angstrom), charge = 0, multiplicity = 1:

       Center              X                  Y                   Z               Mass
    ------------   -----------------  -----------------  -----------------  -----------------
         O            0.197265981892     2.668871906842    -0.033462119810    15.994914619570
         C            0.229800981892     1.444385906842    -0.020680119810    12.000000000000
         N            1.486817981892     0.762468906842    -0.030104119810    14.003074004430
         C            1.690476981892    -0.594990093158    -0.023086119810    12.000000000000
         N            0.724934981892    -1.481357093158    -0.013770119810    14.003074004430
         C           -0.503875018108    -0.884908093158    -0.028594119810    12.000000000000
         C           -0.832695018108     0.469329906842    -0.009811119810    12.000000000000
         N           -2.197002018108     0.659212906842    -0.011649119810    14.003074004430
         C           -2.687263018108    -0.570527093158    -0.024551119810    12.000000000000
         N           -1.709369018108    -1.536460093158    -0.032363119810    14.003074004430
         N            3.022953081892    -1.012507893158     0.194945780190    14.003074004430
         H            2.284719981892     1.385829906842    -0.129561119810     1.007825032230
         H           -3.740000018108    -0.821988093158    -0.028459119810     1.007825032230
         H           -1.831967018108    -2.542338093158    -0.046086119810     1.007825032230
         H            3.083733981892    -2.012172093158     0.042973880190     1.007825032230
         H            3.663076981892    -0.493086093158     0.475408880190     1.007825032230

  Basis Set: AUG-CC-PVTZ
    Blend: AUG-CC-PVTZ
  Basis Set: (AUG-CC-PVTZ AUX)
    Blend: AUG-CC-PVTZ-JKFIT
	 Reference Energy          =    -539.5615973351635830 [Eh]
	 Singles Energy            =      -0.0000000000000000 [Eh]
	 Same-Spin Energy          =      -0.5726996502184289 [Eh]
	 Opposite-Spin Energy      =      -1.6619206752088285 [Eh]
	 Correlation Energy        =      -2.2346203254272572 [Eh]
	 Total Energy              =    -541.7962176605908553 [Eh]

	 ================> DF-SCS-MP2 Energies <==================
	-----------------------------------------------------------
	 SCS Same-Spin Scale       =       0.3333333333333333 [-]
	 SCS Opposite-Spin Scale   =       1.2000000000000000 [-]
	 SCS Same-Spin Energy      =      -0.1908998834061430 [Eh]
	 SCS Opposite-Spin Energy  =      -1.9943048102505940 [Eh]
	 SCS Correlation Energy    =      -2.1852046936567371 [Eh]
	 SCS Total Energy          =    -541.7468020288202979 [Eh]
	-----------------------------------------------------------

  Dipole Moment: [D]
     X:     2.8471      Y:    -5.5829      Z:     0.1208     Total:     6.2681

*** Psi4 exiting successfully. Buy a developer a beer!
