                               Psi4 1.3.2 release

  ==> Input File <==

--------------------------------------------------------------------------
#psi4
#
memory 32 gb

molecule  {
0 1
  O        0.1763910     2.6970700    -0.0085580
  C        0.2089260     1.4725840     0.0042240
  N        1.4659430     0.7906670    -0.0052000
  C        1.6696020    -0.5667920     0.0018180
  N        0.7040600    -1.4531590     0.0111340
  C       -0.5247500    -0.8567100    -0.0036900
  C       -0.8535700     0.4975280     0.0150930
  N       -2.2178770     0.6874110     0.0132550
  C       -2.7081380    -0.5423290     0.0003530
  N       -1.7302440    -1.5082620    -0.0074590
  N        2.9897270    -0.9822980    -0.0798890
  H        2.2638450     1.4140280    -0.1046570
  H       -3.7608750    -0.7937900    -0.0035550
  H       -1.8527676    -2.5168379     0.2288034
  H        3.0628590    -1.9839740     0.0678780
  H        3.6422020    -0.4648880     0.5003130
units angstrom
no_reorient  #important for SAPT in psi4, default
symmetry c1  #important for SAPT in psi4, default
}

set PROPERTIES_ORIGIN ["COM"]
properties('MP2/aug-cc-pvtz', properties = ['dipole'])
--------------------------------------------------------------------------

    Molecular point group: c1
  Charge       = 0
  Multiplicity = 1
  Basis Set: AUG-CC-PVTZ
    Blend: AUG-CC-PVTZ
  Basis Set: (AUG-CC-PVTZ AUX)
    Blend: AUG-CC-PVTZ-JKFIT

    Orbital Energies [Eh]
    ---------------------

    Doubly Occupied:

       1A    -20.524543     2A    -15.637306     3A    -15.632156
       4A    -15.612450     5A    -15.573663     6A    -15.565750
       7A    -11.398689     8A    -11.368129     9A    -11.327424
      10A    -11.314009    11A    -11.251749    12A     -1.393583
      13A     -1.360333    14A     -1.335705    15A     -1.220865
      16A     -1.218320    17A     -1.175941    18A     -1.031323
      19A     -0.906113    20A     -0.885255    21A     -0.838320
      22A     -0.798055    23A     -0.740299    24A     -0.730318
      25A     -0.699258    26A     -0.673689    27A     -0.653988
      28A     -0.633662    29A     -0.615917    30A     -0.602930
      31A     -0.592319    32A     -0.548079    33A     -0.499618
      34A     -0.462597    35A     -0.443399    36A     -0.433311
      37A     -0.432695    38A     -0.412608    39A     -0.303033

  @DF-RHF Final Energy:  -539.58451863321864

   => Energetics <=

    Nuclear Repulsion Energy =            593.5122428746954029
    One-Electron Energy =               -1912.4987160294986097
    Two-Electron Energy =                 779.4019545215845710
    Total Energy =                       -539.5845186332186358
  Basis Set: (AUG-CC-PVTZ AUX)
    Blend: AUG-CC-PVTZ-RI
    Molecular point group: c1

    Geometry (in Angstrom), charge = 0, multiplicity = 1:

       Center              X                  Y                   Z               Mass
    ------------   -----------------  -----------------  -----------------  -----------------
         O            0.198410497355     2.668703403217    -0.007342690015    15.994914619570
         C            0.230945497355     1.444217403217     0.005439309985    12.000000000000
         N            1.487962497355     0.762300403217    -0.003984690015    14.003074004430
         C            1.691621497355    -0.595158596783     0.003033309985    12.000000000000
         N            0.726079497355    -1.481525596783     0.012349309985    14.003074004430
         C           -0.502730502645    -0.885076596783    -0.002474690015    12.000000000000
         C           -0.831550502645     0.469161403217     0.016308309985    12.000000000000
         N           -2.195857502645     0.659044403217     0.014470309985    14.003074004430
         C           -2.686118502645    -0.570695596783     0.001568309985    12.000000000000
         N           -1.708224502645    -1.536628596783    -0.006243690015    14.003074004430
         N            3.011746497355    -1.010664596783    -0.078673690015    14.003074004430
         H            2.285864497355     1.385661403217    -0.103441690015     1.007825032230
         H           -3.738855502645    -0.822156596783    -0.002339690015     1.007825032230
         H           -1.830748102645    -2.545204496783     0.230018709985     1.007825032230
         H            3.084878497355    -2.012340596783     0.069093309985     1.007825032230
         H            3.664221497355    -0.493254596783     0.501528309985     1.007825032230

  Basis Set: AUG-CC-PVTZ
    Blend: AUG-CC-PVTZ
  Basis Set: (AUG-CC-PVTZ AUX)
    Blend: AUG-CC-PVTZ-JKFIT
	 Reference Energy          =    -539.5845186332186358 [Eh]
	 Singles Energy            =      -0.0000000000000000 [Eh]
	 Same-Spin Energy          =      -0.5732220927723730 [Eh]
	 Opposite-Spin Energy      =      -1.6636559503532180 [Eh]
	 Correlation Energy        =      -2.2368780431255910 [Eh]
	 Total Energy              =    -541.8213966763441931 [Eh]

	 ================> DF-SCS-MP2 Energies <==================
	-----------------------------------------------------------
	 SCS Same-Spin Scale       =       0.3333333333333333 [-]
	 SCS Opposite-Spin Scale   =       1.2000000000000000 [-]
	 SCS Same-Spin Energy      =      -0.1910740309241243 [Eh]
	 SCS Opposite-Spin Energy  =      -1.9963871404238616 [Eh]
	 SCS Correlation Energy    =      -2.1874611713479859 [Eh]
	 SCS Total Energy          =    -541.7719798045666266 [Eh]
	-----------------------------------------------------------

  Dipole Moment: [D]
     X:     2.6797      Y:    -5.5978      Z:     1.2125     Total:     6.3234

*** Psi4 exiting successfully. Buy a developer a beer!
