                               Psi4 1.3.2 release

  ==> Input File <==

--------------------------------------------------------------------------
#psi4
#
memory 32 gb

molecule  {
0 1
  O        0.1763910     2.6970700    -0.0085580
  C        0.2089260     1.4725840     0.0042240
  N        1.4659430     0.7906670    -0.0052000
  C        1.6696020    -0.5667920     0.0018180
  N        0.7040600    -1.4531590     0.0111340
  C       -0.5247500    -0.8567100    -0.0036900
  C       -0.8555336     0.4957594    -0.2348930
  N       -2.2178770     0.6874110     0.0132550
  C       -2.7081380    -0.5423290     0.0003530
  N       -1.7302440    -1.5082620    -0.0074590
  N        2.9897270    -0.9822980    -0.0798890
  H        2.2638450     1.4140280    -0.1046570
  H       -3.7608750    -0.7937900    -0.0035550
  H       -1.8528420    -2.5141400    -0.0211820
  H        3.0628590    -1.9839740     0.0678780
  H        3.6422020    -0.4648880     0.5003130
units angstrom
no_reorient  #important for SAPT in psi4, default
symmetry c1  #important for SAPT in psi4, default
}

set PROPERTIES_ORIGIN ["COM"]
properties('MP2/aug-cc-pvtz', properties = ['dipole'])
--------------------------------------------------------------------------

    Molecular point group: c1
  Charge       = 0
  Multiplicity = 1
  Basis Set: AUG-CC-PVTZ
    Blend: AUG-CC-PVTZ
  Basis Set: (AUG-CC-PVTZ AUX)
    Blend: AUG-CC-PVTZ-JKFIT

    Orbital Energies [Eh]
    ---------------------

    Doubly Occupied:

       1A    -20.525433     2A    -15.636264     3A    -15.631919
       4A    -15.613846     5A    -15.574231     6A    -15.565180
       7A    -11.400835     8A    -11.368926     9A    -11.332166
      10A    -11.314041    11A    -11.253945    12A     -1.393197
      13A     -1.360124    14A     -1.335898    15A     -1.221384
      16A     -1.218271    17A     -1.175038    18A     -1.027316
      19A     -0.902997    20A     -0.885412    21A     -0.840495
      22A     -0.798738    23A     -0.740579    24A     -0.729786
      25A     -0.701807    26A     -0.670241    27A     -0.652106
      28A     -0.634202    29A     -0.613918    30A     -0.606532
      31A     -0.586248    32A     -0.545949    33A     -0.498591
      34A     -0.466016    35A     -0.441459    36A     -0.435142
      37A     -0.426648    38A     -0.409150    39A     -0.303146

  @DF-RHF Final Energy:  -539.56981318190776

   => Energetics <=

    Nuclear Repulsion Energy =            592.7653269061469246
    One-Electron Energy =               -1910.9959242170359630
    Two-Electron Energy =                 778.6607841289813905
    Total Energy =                       -539.5698131819077616
  Basis Set: (AUG-CC-PVTZ AUX)
    Blend: AUG-CC-PVTZ-RI
    Molecular point group: c1

    Geometry (in Angstrom), charge = 0, multiplicity = 1:

       Center              X                  Y                   Z               Mass
    ------------   -----------------  -----------------  -----------------  -----------------
         O            0.198566990401     2.668825907428     0.014185189822    15.994914619570
         C            0.231101990401     1.444339907428     0.026967189822    12.000000000000
         N            1.488118990401     0.762422907428     0.017543189822    14.003074004430
         C            1.691777990401    -0.595036092572     0.024561189822    12.000000000000
         N            0.726235990401    -1.481403092572     0.033877189822    14.003074004430
         C           -0.502574009599    -0.884954092572     0.019053189822    12.000000000000
         C           -0.833357609599     0.467515307428    -0.212149810178    12.000000000000
         N           -2.195701009599     0.659166907428     0.035998189822    14.003074004430
         C           -2.685962009599    -0.570573092572     0.023096189822    12.000000000000
         N           -1.708068009599    -1.536506092572     0.015284189822    14.003074004430
         N            3.011902990401    -1.010542092572    -0.057145810178    14.003074004430
         H            2.286020990401     1.385783907428    -0.081913810178     1.007825032230
         H           -3.738699009599    -0.822034092572     0.019188189822     1.007825032230
         H           -1.830666009599    -2.542384092572     0.001561189822     1.007825032230
         H            3.085034990401    -2.012218092572     0.090621189822     1.007825032230
         H            3.664377990401    -0.493132092572     0.523056189822     1.007825032230

  Basis Set: AUG-CC-PVTZ
    Blend: AUG-CC-PVTZ
  Basis Set: (AUG-CC-PVTZ AUX)
    Blend: AUG-CC-PVTZ-JKFIT
	 Reference Energy          =    -539.5698131819077616 [Eh]
	 Singles Energy            =      -0.0000000000000000 [Eh]
	 Same-Spin Energy          =      -0.5732799569029552 [Eh]
	 Opposite-Spin Energy      =      -1.6642840055231212 [Eh]
	 Correlation Energy        =      -2.2375639624260764 [Eh]
	 Total Energy              =    -541.8073771443338273 [Eh]

	 ================> DF-SCS-MP2 Energies <==================
	-----------------------------------------------------------
	 SCS Same-Spin Scale       =       0.3333333333333333 [-]
	 SCS Opposite-Spin Scale   =       1.2000000000000000 [-]
	 SCS Same-Spin Energy      =      -0.1910933189676517 [Eh]
	 SCS Opposite-Spin Energy  =      -1.9971408066277454 [Eh]
	 SCS Correlation Energy    =      -2.1882341255953972 [Eh]
	 SCS Total Energy          =    -541.7580473075031477 [Eh]
	-----------------------------------------------------------

  Dipole Moment: [D]
     X:     2.7376      Y:    -5.6273      Z:     0.8363     Total:     6.3135

*** Psi4 exiting successfully. Buy a developer a beer!
