                               Psi4 1.3.2 release

  ==> Input File <==

--------------------------------------------------------------------------
#psi4
#
memory 32 gb

molecule  {
0 1
  O        0.1763910     2.6970700    -0.0085580
  C        0.2089260     1.4725840     0.0042240
  N        1.4659430     0.7906670    -0.0052000
  C        1.6696020    -0.5667920     0.0018180
  N        0.7040600    -1.4531590     0.0111340
  C       -0.5247500    -0.8567100    -0.0036900
  C       -0.8535700     0.4975280     0.0150930
  N       -2.2178770     0.6874110     0.0132550
  C       -2.7081380    -0.5423290     0.0003530
  N       -1.7302440    -1.5082620    -0.0074590
  N        2.9897270    -0.9822980    -0.0798890
  H        2.2638450     1.4140280    -0.1046570
  H       -3.7608750    -0.7937900    -0.0035550
  H       -1.8528420    -2.5141400    -0.0211820
  H        3.0628590    -1.9839740     0.0678780
  H        3.6422020    -0.4648880     0.5003130
units angstrom
no_reorient  #important for SAPT in psi4, default
symmetry c1  #important for SAPT in psi4, default
}

set PROPERTIES_ORIGIN ["COM"]
properties('MP2/aug-cc-pvtz', properties = ['dipole'])
--------------------------------------------------------------------------

    Molecular point group: c1
  Charge       = 0
  Multiplicity = 1
  Basis Set: AUG-CC-PVTZ
    Blend: AUG-CC-PVTZ
  Basis Set: (AUG-CC-PVTZ AUX)
    Blend: AUG-CC-PVTZ-JKFIT

    Orbital Energies [Eh]
    ---------------------

    Doubly Occupied:

       1A    -20.524416     2A    -15.636240     3A    -15.631996
       4A    -15.612388     5A    -15.573615     6A    -15.565317
       7A    -11.398607     8A    -11.368028     9A    -11.327595
      10A    -11.314322    11A    -11.251478    12A     -1.393568
      13A     -1.360973    14A     -1.335877    15A     -1.220805
      16A     -1.218336    17A     -1.178271    18A     -1.031375
      19A     -0.906879    20A     -0.885257    21A     -0.844995
      22A     -0.799180    23A     -0.740360    24A     -0.730323
      25A     -0.700697    26A     -0.673196    27A     -0.656366
      28A     -0.633813    29A     -0.614673    30A     -0.601456
      31A     -0.596678    32A     -0.547939    33A     -0.499802
      34A     -0.462575    35A     -0.443238    36A     -0.433155
      37A     -0.432623    38A     -0.412246    39A     -0.302929

  @DF-RHF Final Energy:  -539.58758285821727

   => Energetics <=

    Nuclear Repulsion Energy =            593.6547238091310419
    One-Electron Energy =               -1912.7614427449170762
    Two-Electron Energy =                 779.5191360775686462
    Total Energy =                       -539.5875828582172744
  Basis Set: (AUG-CC-PVTZ AUX)
    Blend: AUG-CC-PVTZ-RI
    Molecular point group: c1

    Geometry (in Angstrom), charge = 0, multiplicity = 1:

       Center              X                  Y                   Z               Mass
    ------------   -----------------  -----------------  -----------------  -----------------
         O            0.198410993764     2.668685402411    -0.005674748749    15.994914619570
         C            0.230945993764     1.444199402411     0.007107251251    12.000000000000
         N            1.487962993764     0.762282402411    -0.002316748749    14.003074004430
         C            1.691621993764    -0.595176597589     0.004701251251    12.000000000000
         N            0.726079993764    -1.481543597589     0.014017251251    14.003074004430
         C           -0.502730006236    -0.885094597589    -0.000806748749    12.000000000000
         C           -0.831550006236     0.469143402411     0.017976251251    12.000000000000
         N           -2.195857006236     0.659026402411     0.016138251251    14.003074004430
         C           -2.686118006236    -0.570713597589     0.003236251251    12.000000000000
         N           -1.708224006236    -1.536646597589    -0.004575748749    14.003074004430
         N            3.011746993764    -1.010682597589    -0.077005748749    14.003074004430
         H            2.285864993764     1.385643402411    -0.101773748749     1.007825032230
         H           -3.738855006236    -0.822174597589    -0.000671748749     1.007825032230
         H           -1.830822006236    -2.542524597589    -0.018298748749     1.007825032230
         H            3.084878993764    -2.012358597589     0.070761251251     1.007825032230
         H            3.664221993764    -0.493272597589     0.503196251251     1.007825032230

  Basis Set: AUG-CC-PVTZ
    Blend: AUG-CC-PVTZ
  Basis Set: (AUG-CC-PVTZ AUX)
    Blend: AUG-CC-PVTZ-JKFIT
	 Reference Energy          =    -539.5875828582172744 [Eh]
	 Singles Energy            =      -0.0000000000000000 [Eh]
	 Same-Spin Energy          =      -0.5730340023117712 [Eh]
	 Opposite-Spin Energy      =      -1.6632007132037856 [Eh]
	 Correlation Energy        =      -2.2362347155155566 [Eh]
	 Total Energy              =    -541.8238175737328675 [Eh]

	 ================> DF-SCS-MP2 Energies <==================
	-----------------------------------------------------------
	 SCS Same-Spin Scale       =       0.3333333333333333 [-]
	 SCS Opposite-Spin Scale   =       1.2000000000000000 [-]
	 SCS Same-Spin Energy      =      -0.1910113341039237 [Eh]
	 SCS Opposite-Spin Energy  =      -1.9958408558445426 [Eh]
	 SCS Correlation Energy    =      -2.1868521899484663 [Eh]
	 SCS Total Energy          =    -541.7744350481657420 [Eh]
	-----------------------------------------------------------

  Dipole Moment: [D]
     X:     2.6684      Y:    -5.6346      Z:     0.8440     Total:     6.2914

*** Psi4 exiting successfully. Buy a developer a beer!
