                               Psi4 1.3.2 release

  ==> Input File <==

--------------------------------------------------------------------------
#psi4
#
memory 32 gb

molecule  {
0 1
  O        0.1763910     2.6970700    -0.0085580
  C        0.2089260     1.4725840     0.0042240
  N        1.4659430     0.7906670    -0.0052000
  C        1.6696020    -0.5667920     0.0018180
  N        0.7040600    -1.4531590     0.0111340
  C       -0.5247500    -0.8567100    -0.0036900
  C       -0.8535700     0.4975280     0.0150930
  N       -2.2178770     0.6874110     0.0132550
  C       -2.7081380    -0.5423290     0.0003530
  N       -1.7313625    -1.5094595     0.1425320
  N        2.9897270    -0.9822980    -0.0798890
  H        2.2638450     1.4140280    -0.1046570
  H       -3.7608750    -0.7937900    -0.0035550
  H       -1.8528420    -2.5141400    -0.0211820
  H        3.0628590    -1.9839740     0.0678780
  H        3.6422020    -0.4648880     0.5003130
units angstrom
no_reorient  #important for SAPT in psi4, default
symmetry c1  #important for SAPT in psi4, default
}

set PROPERTIES_ORIGIN ["COM"]
properties('MP2/aug-cc-pvtz', properties = ['dipole'])
--------------------------------------------------------------------------

    Molecular point group: c1
  Charge       = 0
  Multiplicity = 1
  Basis Set: AUG-CC-PVTZ
    Blend: AUG-CC-PVTZ
  Basis Set: (AUG-CC-PVTZ AUX)
    Blend: AUG-CC-PVTZ-JKFIT

    Orbital Energies [Eh]
    ---------------------

    Doubly Occupied:

       1A    -20.524907     2A    -15.636017     3A    -15.632613
       4A    -15.612746     5A    -15.574074     6A    -15.566573
       7A    -11.399112     8A    -11.368529     9A    -11.328658
      10A    -11.315194    11A    -11.252528    12A     -1.393727
      13A     -1.359230    14A     -1.335487    15A     -1.221202
      16A     -1.218669    17A     -1.176909    18A     -1.031226
      19A     -0.905133    20A     -0.885685    21A     -0.840575
      22A     -0.798163    23A     -0.739677    24A     -0.729702
      25A     -0.700616    26A     -0.671677    27A     -0.656611
      28A     -0.631421    29A     -0.613621    30A     -0.602565
      31A     -0.595891    32A     -0.547888    33A     -0.499542
      34A     -0.463739    35A     -0.443559    36A     -0.435290
      37A     -0.430990    38A     -0.414493    39A     -0.302935

  @DF-RHF Final Energy:  -539.58283660457118

   => Energetics <=

    Nuclear Repulsion Energy =            593.3121021965317823
    One-Electron Energy =               -1912.0755283268790663
    Two-Electron Energy =                 779.1805895257762131
    Total Energy =                       -539.5828366045711846
  Basis Set: (AUG-CC-PVTZ AUX)
    Blend: AUG-CC-PVTZ-RI
    Molecular point group: c1

    Geometry (in Angstrom), charge = 0, multiplicity = 1:

       Center              X                  Y                   Z               Mass
    ------------   -----------------  -----------------  -----------------  -----------------
         O            0.198514684591     2.668796416953    -0.019579702604    15.994914619570
         C            0.231049684591     1.444310416953    -0.006797702604    12.000000000000
         N            1.488066684591     0.762393416953    -0.016221702604    14.003074004430
         C            1.691725684591    -0.595065583047    -0.009203702604    12.000000000000
         N            0.726183684591    -1.481432583047     0.000112297396    14.003074004430
         C           -0.502626315409    -0.884983583047    -0.014711702604    12.000000000000
         C           -0.831446315409     0.469254416953     0.004071297396    12.000000000000
         N           -2.195753315409     0.659137416953     0.002233297396    14.003074004430
         C           -2.686014315409    -0.570602583047    -0.010668702604    12.000000000000
         N           -1.709238815409    -1.537733083047     0.131510297396    14.003074004430
         N            3.011850684591    -1.010571583047    -0.090910702604    14.003074004430
         H            2.285968684591     1.385754416953    -0.115678702604     1.007825032230
         H           -3.738751315409    -0.822063583047    -0.014576702604     1.007825032230
         H           -1.830718315409    -2.542413583047    -0.032203702604     1.007825032230
         H            3.084982684591    -2.012247583047     0.056856297396     1.007825032230
         H            3.664325684591    -0.493161583047     0.489291297396     1.007825032230

  Basis Set: AUG-CC-PVTZ
    Blend: AUG-CC-PVTZ
  Basis Set: (AUG-CC-PVTZ AUX)
    Blend: AUG-CC-PVTZ-JKFIT
	 Reference Energy          =    -539.5828366045711846 [Eh]
	 Singles Energy            =      -0.0000000000000000 [Eh]
	 Same-Spin Energy          =      -0.5731323346739218 [Eh]
	 Opposite-Spin Energy      =      -1.6637561840229713 [Eh]
	 Correlation Energy        =      -2.2368885186968930 [Eh]
	 Total Energy              =    -541.8197251232680856 [Eh]

	 ================> DF-SCS-MP2 Energies <==================
	-----------------------------------------------------------
	 SCS Same-Spin Scale       =       0.3333333333333333 [-]
	 SCS Opposite-Spin Scale   =       1.2000000000000000 [-]
	 SCS Same-Spin Energy      =      -0.1910441115579739 [Eh]
	 SCS Opposite-Spin Energy  =      -1.9965074208275655 [Eh]
	 SCS Correlation Energy    =      -2.1875515323855392 [Eh]
	 SCS Total Energy          =    -541.7703881369567398 [Eh]
	-----------------------------------------------------------

  Dipole Moment: [D]
     X:     2.7093      Y:    -5.5489      Z:     0.7003     Total:     6.2146

*** Psi4 exiting successfully. Buy a developer a beer!
