                               Psi4 1.3.2 release

  ==> Input File <==

--------------------------------------------------------------------------
#psi4
#
memory 32 gb

molecule  {
0 1
  O        0.1763910     2.6970700    -0.0085580
  C        0.2089260     1.4725840     0.0042240
  N        1.4659430     0.7906670    -0.0052000
  C        1.6696020    -0.5667920     0.0018180
  N        0.7040600    -1.4531590     0.0111340
  C       -0.5247500    -0.8567100    -0.0036900
  C       -0.8535700     0.4975280     0.0150930
  N       -2.2178770     0.6874110     0.0132550
  C       -2.7081380    -0.5423290     0.0003530
  N       -1.7302440    -1.5082620    -0.0074590
  N        2.9938440    -0.9829686     0.0200240
  H        2.2638450     1.4140280    -0.1046570
  H       -3.7608750    -0.7937900    -0.0035550
  H       -1.8528420    -2.5141400    -0.0211820
  H        3.0628590    -1.9839740     0.0678780
  H        3.6422020    -0.4648880     0.5003130
units angstrom
no_reorient  #important for SAPT in psi4, default
symmetry c1  #important for SAPT in psi4, default
}

set PROPERTIES_ORIGIN ["COM"]
properties('MP2/aug-cc-pvtz', properties = ['dipole'])
--------------------------------------------------------------------------

    Molecular point group: c1
  Charge       = 0
  Multiplicity = 1
  Basis Set: AUG-CC-PVTZ
    Blend: AUG-CC-PVTZ
  Basis Set: (AUG-CC-PVTZ AUX)
    Blend: AUG-CC-PVTZ-JKFIT

    Orbital Energies [Eh]
    ---------------------

    Doubly Occupied:

       1A    -20.524006     2A    -15.635577     3A    -15.631542
       4A    -15.605468     5A    -15.572269     6A    -15.564706
       7A    -11.400050     8A    -11.367570     9A    -11.327320
      10A    -11.313578    11A    -11.250489    12A     -1.393127
      13A     -1.360406    14A     -1.335770    15A     -1.224647
      16A     -1.218050    17A     -1.177717    18A     -1.031996
      19A     -0.906489    20A     -0.888006    21A     -0.844454
      22A     -0.805271    23A     -0.740826    24A     -0.735387
      25A     -0.711933    26A     -0.675857    27A     -0.655524
      28A     -0.634808    29A     -0.614528    30A     -0.600962
      31A     -0.596756    32A     -0.547155    33A     -0.499237
      34A     -0.457376    35A     -0.442770    36A     -0.432597
      37A     -0.432280    38A     -0.411648    39A     -0.301621

  @DF-RHF Final Energy:  -539.58644758033165

   => Energetics <=

    Nuclear Repulsion Energy =            593.8343048759896874
    One-Electron Energy =               -1913.1019616699838934
    Two-Electron Energy =                 779.6812092136626688
    Total Energy =                       -539.5864475803316509
  Basis Set: (AUG-CC-PVTZ AUX)
    Blend: AUG-CC-PVTZ-RI
    Molecular point group: c1

    Geometry (in Angstrom), charge = 0, multiplicity = 1:

       Center              X                  Y                   Z               Mass
    ------------   -----------------  -----------------  -----------------  -----------------
         O            0.198029326230     2.668747570554    -0.014937208860    15.994914619570
         C            0.230564326230     1.444261570554    -0.002155208860    12.000000000000
         N            1.487581326230     0.762344570554    -0.011579208860    14.003074004430
         C            1.691240326230    -0.595114429446    -0.004561208860    12.000000000000
         N            0.725698326230    -1.481481429446     0.004754791140    14.003074004430
         C           -0.503111673770    -0.885032429446    -0.010069208860    12.000000000000
         C           -0.831931673770     0.469205570554     0.008713791140    12.000000000000
         N           -2.196238673770     0.659088570554     0.006875791140    14.003074004430
         C           -2.686499673770    -0.570651429446    -0.006026208860    12.000000000000
         N           -1.708605673770    -1.536584429446    -0.013838208860    14.003074004430
         N            3.015482326230    -1.011291029446     0.013644791140    14.003074004430
         H            2.285483326230     1.385705570554    -0.111036208860     1.007825032230
         H           -3.739236673770    -0.822112429446    -0.009934208860     1.007825032230
         H           -1.831203673770    -2.542462429446    -0.027561208860     1.007825032230
         H            3.084497326230    -2.012296429446     0.061498791140     1.007825032230
         H            3.663840326230    -0.493210429446     0.493933791140     1.007825032230

  Basis Set: AUG-CC-PVTZ
    Blend: AUG-CC-PVTZ
  Basis Set: (AUG-CC-PVTZ AUX)
    Blend: AUG-CC-PVTZ-JKFIT
	 Reference Energy          =    -539.5864475803316509 [Eh]
	 Singles Energy            =      -0.0000000000000000 [Eh]
	 Same-Spin Energy          =      -0.5726593661068626 [Eh]
	 Opposite-Spin Energy      =      -1.6620027735739415 [Eh]
	 Correlation Energy        =      -2.2346621396808040 [Eh]
	 Total Energy              =    -541.8211097200124868 [Eh]

	 ================> DF-SCS-MP2 Energies <==================
	-----------------------------------------------------------
	 SCS Same-Spin Scale       =       0.3333333333333333 [-]
	 SCS Opposite-Spin Scale   =       1.2000000000000000 [-]
	 SCS Same-Spin Energy      =      -0.1908864553689542 [Eh]
	 SCS Opposite-Spin Energy  =      -1.9944033282887297 [Eh]
	 SCS Correlation Energy    =      -2.1852897836576837 [Eh]
	 SCS Total Energy          =    -541.7717373639893594 [Eh]
	-----------------------------------------------------------

  Dipole Moment: [D]
     X:     2.8139      Y:    -5.6362      Z:     0.6381     Total:     6.3319

*** Psi4 exiting successfully. Buy a developer a beer!
