                               Psi4 1.3.2 release

  ==> Input File <==

--------------------------------------------------------------------------
#psi4
#
memory 32 gb

molecule  {
0 1
  O        0.1763910     2.6970700    -0.0085580
  C        0.2089260     1.4725840     0.0042240
  N        1.4659430     0.7906670    -0.0052000
  C        1.6696020    -0.5667920     0.0018180
  N        0.7040600    -1.4531590     0.0111340
  C       -0.5247500    -0.8567100    -0.0036900
  C       -0.8535700     0.4975280     0.0150930
  N       -2.2178770     0.6874110     0.0132550
  C       -2.7081380    -0.5423290     0.0003530
  N       -1.7302440    -1.5082620    -0.0074590
  N        2.9897270    -0.9822980    -0.0798890
  H        2.2638450     1.4140280    -0.1046570
  H       -3.7608750    -0.7937900    -0.0035550
  H       -1.8528420    -2.5141400    -0.0211820
  H        3.0628590    -1.9839740     0.0678780
  H        3.6306056    -0.4740622     0.5480766
units angstrom
no_reorient  #important for SAPT in psi4, default
symmetry c1  #important for SAPT in psi4, default
}

set PROPERTIES_ORIGIN ["COM"]
properties('MP2/aug-cc-pvtz', properties = ['dipole'])
--------------------------------------------------------------------------

    Molecular point group: c1
  Charge       = 0
  Multiplicity = 1
  Basis Set: AUG-CC-PVTZ
    Blend: AUG-CC-PVTZ
  Basis Set: (AUG-CC-PVTZ AUX)
    Blend: AUG-CC-PVTZ-JKFIT

    Orbital Energies [Eh]
    ---------------------

    Doubly Occupied:

       1A    -20.524536     2A    -15.636489     3A    -15.632088
       4A    -15.613644     5A    -15.574124     6A    -15.565545
       7A    -11.398278     8A    -11.368153     9A    -11.327700
      10A    -11.314603    11A    -11.251841    12A     -1.393673
      13A     -1.361173    14A     -1.335812    15A     -1.220009
      16A     -1.218116    17A     -1.178469    18A     -1.031293
      19A     -0.907008    20A     -0.884673    21A     -0.845212
      22A     -0.797840    23A     -0.740338    24A     -0.729141
      25A     -0.698468    26A     -0.672761    27A     -0.656009
      28A     -0.633430    29A     -0.614799    30A     -0.601602
      31A     -0.596255    32A     -0.547829    33A     -0.500061
      34A     -0.463658    35A     -0.443428    36A     -0.433308
      37A     -0.432744    38A     -0.412448    39A     -0.303366

  @DF-RHF Final Energy:  -539.58666310581339

   => Energetics <=

    Nuclear Repulsion Energy =            593.5984479604975377
    One-Electron Energy =               -1912.6503714640155067
    Two-Electron Energy =                 779.4652603977046965
    Total Energy =                       -539.5866631058133862
  Basis Set: (AUG-CC-PVTZ AUX)
    Blend: AUG-CC-PVTZ-RI
    Molecular point group: c1

    Geometry (in Angstrom), charge = 0, multiplicity = 1:

       Center              X                  Y                   Z               Mass
    ------------   -----------------  -----------------  -----------------  -----------------
         O            0.198488366738     2.668746614092    -0.005993434878    15.994914619570
         C            0.231023366738     1.444260614092     0.006788565122    12.000000000000
         N            1.488040366738     0.762343614092    -0.002635434878    14.003074004430
         C            1.691699366738    -0.595115385908     0.004382565122    12.000000000000
         N            0.726157366738    -1.481482385908     0.013698565122    14.003074004430
         C           -0.502652633262    -0.885033385908    -0.001125434878    12.000000000000
         C           -0.831472633262     0.469204614092     0.017657565122    12.000000000000
         N           -2.195779633262     0.659087614092     0.015819565122    14.003074004430
         C           -2.686040633262    -0.570652385908     0.002917565122    12.000000000000
         N           -1.708146633262    -1.536585385908    -0.004894434878    14.003074004430
         N            3.011824366738    -1.010621385908    -0.077324434878    14.003074004430
         H            2.285942366738     1.385704614092    -0.102092434878     1.007825032230
         H           -3.738777633262    -0.822113385908    -0.000990434878     1.007825032230
         H           -1.830744633262    -2.542463385908    -0.018617434878     1.007825032230
         H            3.084956366738    -2.012297385908     0.070442565122     1.007825032230
         H            3.652702966738    -0.502385585908     0.550641165122     1.007825032230

  Basis Set: AUG-CC-PVTZ
    Blend: AUG-CC-PVTZ
  Basis Set: (AUG-CC-PVTZ AUX)
    Blend: AUG-CC-PVTZ-JKFIT
	 Reference Energy          =    -539.5866631058133862 [Eh]
	 Singles Energy            =      -0.0000000000000000 [Eh]
	 Same-Spin Energy          =      -0.5731468322941707 [Eh]
	 Opposite-Spin Energy      =      -1.6635464714581278 [Eh]
	 Correlation Energy        =      -2.2366933037522987 [Eh]
	 Total Energy              =    -541.8233564095656902 [Eh]

	 ================> DF-SCS-MP2 Energies <==================
	-----------------------------------------------------------
	 SCS Same-Spin Scale       =       0.3333333333333333 [-]
	 SCS Opposite-Spin Scale   =       1.2000000000000000 [-]
	 SCS Same-Spin Energy      =      -0.1910489440980569 [Eh]
	 SCS Opposite-Spin Energy  =      -1.9962557657497533 [Eh]
	 SCS Correlation Energy    =      -2.1873047098478100 [Eh]
	 SCS Total Energy          =    -541.7739678156611944 [Eh]
	-----------------------------------------------------------

  Dipole Moment: [D]
     X:     2.5983      Y:    -5.6482      Z:     0.8945     Total:     6.2812

*** Psi4 exiting successfully. Buy a developer a beer!
