                               Psi4 1.3.2 release

  ==> Input File <==

--------------------------------------------------------------------------
#psi4
#
memory 32 gb

molecule  {
0 1
  O        0.1763910     2.6970700    -0.0085580
  C        0.2089260     1.4725840     0.0042240
  N        1.4659430     0.7906670    -0.0052000
  C        1.6696020    -0.5667920     0.0018180
  N        0.7040600    -1.4531590     0.0111340
  C       -0.5247500    -0.8567100    -0.0036900
  C       -0.8535700     0.4975280     0.0150930
  N       -2.2178770     0.6874110     0.0132550
  C       -2.7081380    -0.5423290     0.0003530
  N       -1.7302440    -1.5082620    -0.0074590
  N        2.9897270    -0.9822980    -0.0798890
  H        2.2638450     1.4140280    -0.1046570
  H       -3.7608750    -0.7937900    -0.0035550
  H       -1.8527973    -2.5157587     0.1288093
  H        3.0628590    -1.9839740     0.0678780
  H        3.6422020    -0.4648880     0.5003130
units angstrom
no_reorient  #important for SAPT in psi4, default
symmetry c1  #important for SAPT in psi4, default
}

set PROPERTIES_ORIGIN ["COM"]
properties('MP2/aug-cc-pvtz', properties = ['dipole'])
--------------------------------------------------------------------------

    Molecular point group: c1
  Charge       = 0
  Multiplicity = 1
  Basis Set: AUG-CC-PVTZ
    Blend: AUG-CC-PVTZ
  Basis Set: (AUG-CC-PVTZ AUX)
    Blend: AUG-CC-PVTZ-JKFIT

    Orbital Energies [Eh]
    ---------------------

    Doubly Occupied:

       1A    -20.524460     2A    -15.636632     3A    -15.632057
       4A    -15.612410     5A    -15.573636     6A    -15.565476
       7A    -11.398641     8A    -11.368062     9A    -11.327536
      10A    -11.314207    11A    -11.251575    12A     -1.393572
      13A     -1.360735    14A     -1.335814    15A     -1.220827
      16A     -1.218332    17A     -1.177412    18A     -1.031355
      19A     -0.906582    20A     -0.885254    21A     -0.842527
      22A     -0.798819    23A     -0.740338    24A     -0.730333
      25A     -0.700063    26A     -0.673719    27A     -0.655207
      28A     -0.633776    29A     -0.615425    30A     -0.602469
      31A     -0.594369    32A     -0.548008    33A     -0.499774
      34A     -0.462580    35A     -0.443306    36A     -0.433220
      37A     -0.432644    38A     -0.412359    39A     -0.302968

  @DF-RHF Final Energy:  -539.58662549941596

   => Energetics <=

    Nuclear Repulsion Energy =            593.6029921359988748
    One-Electron Energy =               -1912.6662757043304737
    Two-Electron Energy =                 779.4766580689156399
    Total Energy =                       -539.5866254994159590
  Basis Set: (AUG-CC-PVTZ AUX)
    Blend: AUG-CC-PVTZ-RI
    Molecular point group: c1

    Geometry (in Angstrom), charge = 0, multiplicity = 1:

       Center              X                  Y                   Z               Mass
    ------------   -----------------  -----------------  -----------------  -----------------
         O            0.198410695518     2.668696202627    -0.006675513909    15.994914619570
         C            0.230945695518     1.444210202627     0.006106486091    12.000000000000
         N            1.487962695518     0.762293202627    -0.003317513909    14.003074004430
         C            1.691621695518    -0.595165797373     0.003700486091    12.000000000000
         N            0.726079695518    -1.481532797373     0.013016486091    14.003074004430
         C           -0.502730304482    -0.885083797373    -0.001807513909    12.000000000000
         C           -0.831550304482     0.469154202627     0.016975486091    12.000000000000
         N           -2.195857304482     0.659037202627     0.015137486091    14.003074004430
         C           -2.686118304482    -0.570702797373     0.002235486091    12.000000000000
         N           -1.708224304482    -1.536635797373    -0.005576513909    14.003074004430
         N            3.011746695518    -1.010671797373    -0.078006513909    14.003074004430
         H            2.285864695518     1.385654202627    -0.102774513909     1.007825032230
         H           -3.738855304482    -0.822163797373    -0.001672513909     1.007825032230
         H           -1.830777604482    -2.544132497373     0.130691786091     1.007825032230
         H            3.084878695518    -2.012347797373     0.069760486091     1.007825032230
         H            3.664221695518    -0.493261797373     0.502195486091     1.007825032230

  Basis Set: AUG-CC-PVTZ
    Blend: AUG-CC-PVTZ
  Basis Set: (AUG-CC-PVTZ AUX)
    Blend: AUG-CC-PVTZ-JKFIT
	 Reference Energy          =    -539.5866254994159590 [Eh]
	 Singles Energy            =      -0.0000000000000000 [Eh]
	 Same-Spin Energy          =      -0.5730998495169806 [Eh]
	 Opposite-Spin Energy      =      -1.6633513597923544 [Eh]
	 Correlation Energy        =      -2.2364512093093349 [Eh]
	 Total Energy              =    -541.8230767087252389 [Eh]

	 ================> DF-SCS-MP2 Energies <==================
	-----------------------------------------------------------
	 SCS Same-Spin Scale       =       0.3333333333333333 [-]
	 SCS Opposite-Spin Scale   =       1.2000000000000000 [-]
	 SCS Same-Spin Energy      =      -0.1910332831723268 [Eh]
	 SCS Opposite-Spin Energy  =      -1.9960216317508253 [Eh]
	 SCS Correlation Energy    =      -2.1870549149231522 [Eh]
	 SCS Total Energy          =    -541.7736804143390827 [Eh]
	-----------------------------------------------------------

  Dipole Moment: [D]
     X:     2.6723      Y:    -5.6222      Z:     1.0663     Total:     6.3156

*** Psi4 exiting successfully. Buy a developer a beer!
