                               Psi4 1.3.2 release

  ==> Input File <==

--------------------------------------------------------------------------
#psi4
#
memory 32 gb

molecule  {
0 1
  O        0.1763910     2.6970700    -0.0085580
  C        0.2089260     1.4725840     0.0042240
  N        1.4659430     0.7906670    -0.0052000
  C        1.6696020    -0.5667920     0.0018180
  N        0.7040600    -1.4531590     0.0111340
  C       -0.5247500    -0.8567100    -0.0036900
  C       -0.8535700     0.4975280     0.0150930
  N       -2.2178770     0.6874110     0.0132550
  C       -2.7081380    -0.5423290     0.0003530
  N       -1.7306168    -1.5086612     0.0425380
  N        2.9897270    -0.9822980    -0.0798890
  H        2.2638450     1.4140280    -0.1046570
  H       -3.7608750    -0.7937900    -0.0035550
  H       -1.8528420    -2.5141400    -0.0211820
  H        3.0628590    -1.9839740     0.0678780
  H        3.6422020    -0.4648880     0.5003130
units angstrom
no_reorient  #important for SAPT in psi4, default
symmetry c1  #important for SAPT in psi4, default
}

set PROPERTIES_ORIGIN ["COM"]
properties('MP2/aug-cc-pvtz', properties = ['dipole'])
--------------------------------------------------------------------------

    Molecular point group: c1
  Charge       = 0
  Multiplicity = 1
  Basis Set: AUG-CC-PVTZ
    Blend: AUG-CC-PVTZ
  Basis Set: (AUG-CC-PVTZ AUX)
    Blend: AUG-CC-PVTZ-JKFIT

    Orbital Energies [Eh]
    ---------------------

    Doubly Occupied:

       1A    -20.524485     2A    -15.636201     3A    -15.632078
       4A    -15.612420     5A    -15.573672     6A    -15.565435
       7A    -11.398656     8A    -11.368093     9A    -11.327714
      10A    -11.314420    11A    -11.251625    12A     -1.393588
      13A     -1.360765    14A     -1.335843    15A     -1.220851
      16A     -1.218371    17A     -1.178095    18A     -1.031362
      19A     -0.906672    20A     -0.885306    21A     -0.844432
      22A     -0.799045    23A     -0.740271    24A     -0.730230
      25A     -0.700809    26A     -0.672811    27A     -0.656685
      28A     -0.633259    29A     -0.614383    30A     -0.601846
      31A     -0.596598    32A     -0.547856    33A     -0.499727
      34A     -0.462901    35A     -0.443214    36A     -0.433765
      37A     -0.432069    38A     -0.412512    39A     -0.302909

  @DF-RHF Final Energy:  -539.58702338836724

   => Energetics <=

    Nuclear Repulsion Energy =            593.6130506792102324
    One-Electron Energy =               -1912.6781998138401377
    Two-Electron Energy =                 779.4781257462625490
    Total Energy =                       -539.5870233883672427
  Basis Set: (AUG-CC-PVTZ AUX)
    Blend: AUG-CC-PVTZ-RI
    Molecular point group: c1

    Geometry (in Angstrom), charge = 0, multiplicity = 1:

       Center              X                  Y                   Z               Mass
    ------------   -----------------  -----------------  -----------------  -----------------
         O            0.198445554282     2.668722410348    -0.010309733367    15.994914619570
         C            0.230980554282     1.444236410348     0.002472266633    12.000000000000
         N            1.487997554282     0.762319410348    -0.006951733367    14.003074004430
         C            1.691656554282    -0.595139589652     0.000066266633    12.000000000000
         N            0.726114554282    -1.481506589652     0.009382266633    14.003074004430
         C           -0.502695445718    -0.885057589652    -0.005441733367    12.000000000000
         C           -0.831515445718     0.469180410348     0.013341266633    12.000000000000
         N           -2.195822445718     0.659063410348     0.011503266633    14.003074004430
         C           -2.686083445718    -0.570676589652    -0.001398733367    12.000000000000
         N           -1.708562245718    -1.537008789652     0.040786266633    14.003074004430
         N            3.011781554282    -1.010645589652    -0.081640733367    14.003074004430
         H            2.285899554282     1.385680410348    -0.106408733367     1.007825032230
         H           -3.738820445718    -0.822137589652    -0.005306733367     1.007825032230
         H           -1.830787445718    -2.542487589652    -0.022933733367     1.007825032230
         H            3.084913554282    -2.012321589652     0.066126266633     1.007825032230
         H            3.664256554282    -0.493235589652     0.498561266633     1.007825032230

  Basis Set: AUG-CC-PVTZ
    Blend: AUG-CC-PVTZ
  Basis Set: (AUG-CC-PVTZ AUX)
    Blend: AUG-CC-PVTZ-JKFIT
	 Reference Energy          =    -539.5870233883672427 [Eh]
	 Singles Energy            =      -0.0000000000000000 [Eh]
	 Same-Spin Energy          =      -0.5730483389867678 [Eh]
	 Opposite-Spin Energy      =      -1.6632593614251574 [Eh]
	 Correlation Energy        =      -2.2363077004119249 [Eh]
	 Total Energy              =    -541.8233310887791276 [Eh]

	 ================> DF-SCS-MP2 Energies <==================
	-----------------------------------------------------------
	 SCS Same-Spin Scale       =       0.3333333333333333 [-]
	 SCS Opposite-Spin Scale   =       1.2000000000000000 [-]
	 SCS Same-Spin Energy      =      -0.1910161129955892 [Eh]
	 SCS Opposite-Spin Energy  =      -1.9959112337101887 [Eh]
	 SCS Correlation Energy    =      -2.1869273467057782 [Eh]
	 SCS Total Energy          =    -541.7739507350730719 [Eh]
	-----------------------------------------------------------

  Dipole Moment: [D]
     X:     2.6734      Y:    -5.6237      Z:     0.7968     Total:     6.2775

*** Psi4 exiting successfully. Buy a developer a beer!
