                               Psi4 1.3.2 release

  ==> Input File <==

--------------------------------------------------------------------------
#psi4
#
memory 32 gb

molecule  {
0 1
  O        0.1763910     2.6970700    -0.0085580
  C        0.2089260     1.4725840     0.0042240
  N        1.4659430     0.7906670    -0.0052000
  C        1.6696020    -0.5667920     0.0018180
  N        0.7040600    -1.4531590     0.0111340
  C       -0.5247500    -0.8567100    -0.0036900
  C       -0.8535700     0.4975280     0.0150930
  N       -2.2178770     0.6874110     0.0132550
  C       -2.7081380    -0.5423290     0.0003530
  N       -1.7302440    -1.5082620    -0.0074590
  N        2.9897270    -0.9822980    -0.0798890
  H        2.2719358     1.4196463     0.0450192
  H       -3.7608750    -0.7937900    -0.0035550
  H       -1.8528420    -2.5141400    -0.0211820
  H        3.0628590    -1.9839740     0.0678780
  H        3.6422020    -0.4648880     0.5003130
units angstrom
no_reorient  #important for SAPT in psi4, default
symmetry c1  #important for SAPT in psi4, default
}

set PROPERTIES_ORIGIN ["COM"]
properties('MP2/aug-cc-pvtz', properties = ['dipole'])
--------------------------------------------------------------------------

    Molecular point group: c1
  Charge       = 0
  Multiplicity = 1
  Basis Set: AUG-CC-PVTZ
    Blend: AUG-CC-PVTZ
  Basis Set: (AUG-CC-PVTZ AUX)
    Blend: AUG-CC-PVTZ-JKFIT

    Orbital Energies [Eh]
    ---------------------

    Doubly Occupied:

       1A    -20.524348     2A    -15.636206     3A    -15.632677
       4A    -15.612460     5A    -15.573600     6A    -15.565300
       7A    -11.398585     8A    -11.368028     9A    -11.327561
      10A    -11.314301    11A    -11.251475    12A     -1.393417
      13A     -1.360935    14A     -1.335785    15A     -1.220638
      16A     -1.218108    17A     -1.178171    18A     -1.031332
      19A     -0.906687    20A     -0.885084    21A     -0.844937
      22A     -0.798919    23A     -0.739627    24A     -0.730159
      25A     -0.700147    26A     -0.673241    27A     -0.657979
      28A     -0.633096    29A     -0.614617    30A     -0.600495
      31A     -0.596505    32A     -0.548183    33A     -0.499953
      34A     -0.462475    35A     -0.443201    36A     -0.434037
      37A     -0.431471    38A     -0.412207    39A     -0.302898

  @DF-RHF Final Energy:  -539.58684097236699

   => Energetics <=

    Nuclear Repulsion Energy =            593.6116079883693146
    One-Electron Energy =               -1912.6792069987111518
    Two-Electron Energy =                 779.4807580379748515
    Total Energy =                       -539.5868409723669856
  Basis Set: (AUG-CC-PVTZ AUX)
    Blend: AUG-CC-PVTZ-RI
    Molecular point group: c1

    Geometry (in Angstrom), charge = 0, multiplicity = 1:

       Center              X                  Y                   Z               Mass
    ------------   -----------------  -----------------  -----------------  -----------------
         O            0.198357010694     2.668647916244    -0.006673411513    15.994914619570
         C            0.230892010694     1.444161916244     0.006108588487    12.000000000000
         N            1.487909010694     0.762244916244    -0.003315411513    14.003074004430
         C            1.691568010694    -0.595214083756     0.003702588487    12.000000000000
         N            0.726026010694    -1.481581083756     0.013018588487    14.003074004430
         C           -0.502783989306    -0.885132083756    -0.001805411513    12.000000000000
         C           -0.831603989306     0.469105916244     0.016977588487    12.000000000000
         N           -2.195910989306     0.658988916244     0.015139588487    14.003074004430
         C           -2.686171989306    -0.570751083756     0.002237588487    12.000000000000
         N           -1.708277989306    -1.536684083756    -0.005574411513    14.003074004430
         N            3.011693010694    -1.010720083756    -0.078004411513    14.003074004430
         H            2.293901810694     1.391224216244     0.046903788487     1.007825032230
         H           -3.738908989306    -0.822212083756    -0.001670411513     1.007825032230
         H           -1.830875989306    -2.542562083756    -0.019297411513     1.007825032230
         H            3.084825010694    -2.012396083756     0.069762588487     1.007825032230
         H            3.664168010694    -0.493310083756     0.502197588487     1.007825032230

  Basis Set: AUG-CC-PVTZ
    Blend: AUG-CC-PVTZ
  Basis Set: (AUG-CC-PVTZ AUX)
    Blend: AUG-CC-PVTZ-JKFIT
	 Reference Energy          =    -539.5868409723669856 [Eh]
	 Singles Energy            =      -0.0000000000000000 [Eh]
	 Same-Spin Energy          =      -0.5730872829553211 [Eh]
	 Opposite-Spin Energy      =      -1.6633342628542938 [Eh]
	 Correlation Energy        =      -2.2364215458096148 [Eh]
	 Total Energy              =    -541.8232625181766480 [Eh]

	 ================> DF-SCS-MP2 Energies <==================
	-----------------------------------------------------------
	 SCS Same-Spin Scale       =       0.3333333333333333 [-]
	 SCS Opposite-Spin Scale   =       1.2000000000000000 [-]
	 SCS Same-Spin Energy      =      -0.1910290943184403 [Eh]
	 SCS Opposite-Spin Energy  =      -1.9960011154251525 [Eh]
	 SCS Correlation Energy    =      -2.1870302097435927 [Eh]
	 SCS Total Energy          =    -541.7738711821106108 [Eh]
	-----------------------------------------------------------

  Dipole Moment: [D]
     X:     2.6782      Y:    -5.6282      Z:     1.0387     Total:     6.3188

*** Psi4 exiting successfully. Buy a developer a beer!
