                               Psi4 1.3.2 release

  ==> Input File <==

--------------------------------------------------------------------------
#psi4
#
memory 32 gb

molecule  {
0 1
  O        0.1763910     2.6970700    -0.0085580
  C        0.2089260     1.4725840     0.0042240
  N        1.4659430     0.7906670    -0.0052000
  C        1.6696020    -0.5667920     0.0018180
  N        0.7040600    -1.4531590     0.0111340
  C       -0.5247500    -0.8567100    -0.0036900
  C       -0.8535700     0.4975280     0.0150930
  N       -2.2178770     0.6874110     0.0132550
  C       -2.7081380    -0.5423290     0.0003530
  N       -1.7302440    -1.5082620    -0.0074590
  N        2.9897270    -0.9822980    -0.0798890
  H        2.2638450     1.4140280    -0.1046570
  H       -3.7608750    -0.7937900    -0.0035550
  H       -1.8528420    -2.5141400    -0.0211820
  H        3.0628590    -1.9839740     0.0678780
  H        3.6190092    -0.4832363     0.5958401
units angstrom
no_reorient  #important for SAPT in psi4, default
symmetry c1  #important for SAPT in psi4, default
}

set PROPERTIES_ORIGIN ["COM"]
properties('MP2/aug-cc-pvtz', properties = ['dipole'])
--------------------------------------------------------------------------

    Molecular point group: c1
  Charge       = 0
  Multiplicity = 1
  Basis Set: AUG-CC-PVTZ
    Blend: AUG-CC-PVTZ
  Basis Set: (AUG-CC-PVTZ AUX)
    Blend: AUG-CC-PVTZ-JKFIT

    Orbital Energies [Eh]
    ---------------------

    Doubly Occupied:

       1A    -20.524649     2A    -15.636734     3A    -15.632159
       4A    -15.615091     5A    -15.574629     6A    -15.565769
       7A    -11.397964     8A    -11.368270     9A    -11.327804
      10A    -11.314880    11A    -11.252198    12A     -1.393766
      13A     -1.361368    14A     -1.335718    15A     -1.219598
      16A     -1.217366    17A     -1.178659    18A     -1.031190
      19A     -0.907134    20A     -0.884080    21A     -0.845427
      22A     -0.796560    23A     -0.740324    24A     -0.728013
      25A     -0.696079    26A     -0.672169    27A     -0.655550
      28A     -0.632875    29A     -0.614908    30A     -0.601747
      31A     -0.595721    32A     -0.547688    33A     -0.500311
      34A     -0.464730    35A     -0.443613    36A     -0.433458
      37A     -0.432850    38A     -0.412646    39A     -0.303791

  @DF-RHF Final Energy:  -539.58513746287394

   => Energetics <=

    Nuclear Repulsion Energy =            593.5341366663789131
    One-Electron Energy =               -1912.5235727104698071
    Two-Electron Energy =                 779.4042985812168354
    Total Energy =                       -539.5851374628739450
  Basis Set: (AUG-CC-PVTZ AUX)
    Blend: AUG-CC-PVTZ-RI
    Molecular point group: c1

    Geometry (in Angstrom), charge = 0, multiplicity = 1:

       Center              X                  Y                   Z               Mass
    ------------   -----------------  -----------------  -----------------  -----------------
         O            0.198565739713     2.668807825107    -0.006312120340    15.994914619570
         C            0.231100739713     1.444321825107     0.006469879660    12.000000000000
         N            1.488117739713     0.762404825107    -0.002954120340    14.003074004430
         C            1.691776739713    -0.595054174893     0.004063879660    12.000000000000
         N            0.726234739713    -1.481421174893     0.013379879660    14.003074004430
         C           -0.502575260287    -0.884972174893    -0.001444120340    12.000000000000
         C           -0.831395260287     0.469265825107     0.017338879660    12.000000000000
         N           -2.195702260287     0.659148825107     0.015500879660    14.003074004430
         C           -2.685963260287    -0.570591174893     0.002598879660    12.000000000000
         N           -1.708069260287    -1.536524174893    -0.005213120340    14.003074004430
         N            3.011901739713    -1.010560174893    -0.077643120340    14.003074004430
         H            2.286019739713     1.385765825107    -0.102411120340     1.007825032230
         H           -3.738700260287    -0.822052174893    -0.001309120340     1.007825032230
         H           -1.830667260287    -2.542402174893    -0.018936120340     1.007825032230
         H            3.085033739713    -2.012236174893     0.070123879660     1.007825032230
         H            3.641183939713    -0.511498474893     0.598085979660     1.007825032230

  Basis Set: AUG-CC-PVTZ
    Blend: AUG-CC-PVTZ
  Basis Set: (AUG-CC-PVTZ AUX)
    Blend: AUG-CC-PVTZ-JKFIT
	 Reference Energy          =    -539.5851374628739450 [Eh]
	 Singles Energy            =      -0.0000000000000000 [Eh]
	 Same-Spin Energy          =      -0.5732745057907699 [Eh]
	 Opposite-Spin Energy      =      -1.6639415366569774 [Eh]
	 Correlation Energy        =      -2.2372160424477472 [Eh]
	 Total Energy              =    -541.8223535053216438 [Eh]

	 ================> DF-SCS-MP2 Energies <==================
	-----------------------------------------------------------
	 SCS Same-Spin Scale       =       0.3333333333333333 [-]
	 SCS Opposite-Spin Scale   =       1.2000000000000000 [-]
	 SCS Same-Spin Energy      =      -0.1910915019302566 [Eh]
	 SCS Opposite-Spin Energy  =      -1.9967298439883727 [Eh]
	 SCS Correlation Energy    =      -2.1878213459186293 [Eh]
	 SCS Total Energy          =    -541.7729588087926231 [Eh]
	-----------------------------------------------------------

  Dipole Moment: [D]
     X:     2.5278      Y:    -5.6624      Z:     0.9416     Total:     6.2721

*** Psi4 exiting successfully. Buy a developer a beer!
