                               Psi4 1.3.2 release

  ==> Input File <==

--------------------------------------------------------------------------
#psi4
#
memory 32 gb

molecule  {
0 1
  O        0.1763910     2.6970700    -0.0085580
  C        0.2089260     1.4725840     0.0042240
  N        1.4659430     0.7906670    -0.0052000
  C        1.6696020    -0.5667920     0.0018180
  N        0.7040600    -1.4531590     0.0111340
  C       -0.5247500    -0.8567100    -0.0036900
  C       -0.8535700     0.4975280     0.0150930
  N       -2.2178770     0.6874110     0.0132550
  C       -2.7081380    -0.5423290     0.0003530
  N       -1.7302440    -1.5082620    -0.0074590
  N        2.9897270    -0.9822980    -0.0798890
  H        2.2773296     1.4233919     0.1448034
  H       -3.7608750    -0.7937900    -0.0035550
  H       -1.8528420    -2.5141400    -0.0211820
  H        3.0628590    -1.9839740     0.0678780
  H        3.6422020    -0.4648880     0.5003130
units angstrom
no_reorient  #important for SAPT in psi4, default
symmetry c1  #important for SAPT in psi4, default
}

set PROPERTIES_ORIGIN ["COM"]
properties('MP2/aug-cc-pvtz', properties = ['dipole'])
--------------------------------------------------------------------------

    Molecular point group: c1
  Charge       = 0
  Multiplicity = 1
  Basis Set: AUG-CC-PVTZ
    Blend: AUG-CC-PVTZ
  Basis Set: (AUG-CC-PVTZ AUX)
    Blend: AUG-CC-PVTZ-JKFIT

    Orbital Energies [Eh]
    ---------------------

    Doubly Occupied:

       1A    -20.524378     2A    -15.636239     3A    -15.633680
       4A    -15.612424     5A    -15.573651     6A    -15.565305
       7A    -11.398424     8A    -11.367925     9A    -11.327583
      10A    -11.314297    11A    -11.251468    12A     -1.393075
      13A     -1.360920    14A     -1.335523    15A     -1.220247
      16A     -1.217308    17A     -1.177936    18A     -1.031227
      19A     -0.906017    20A     -0.884277    21A     -0.844857
      22A     -0.798343    23A     -0.736988    24A     -0.729730
      25A     -0.699579    26A     -0.673218    27A     -0.658927
      28A     -0.632234    29A     -0.614595    30A     -0.600897
      31A     -0.594587    32A     -0.548277    33A     -0.499971
      34A     -0.462331    35A     -0.443166    36A     -0.434881
      37A     -0.430489    38A     -0.412192    39A     -0.302888

  @DF-RHF Final Energy:  -539.58491320493056

   => Energetics <=

    Nuclear Repulsion Energy =            593.5208656112849894
    One-Electron Energy =               -1912.5114462785770684
    Two-Electron Energy =                 779.4056674623615208
    Total Energy =                       -539.5849132049305581
  Basis Set: (AUG-CC-PVTZ AUX)
    Blend: AUG-CC-PVTZ-RI
    Molecular point group: c1

    Geometry (in Angstrom), charge = 0, multiplicity = 1:

       Center              X                  Y                   Z               Mass
    ------------   -----------------  -----------------  -----------------  -----------------
         O            0.198321022426     2.668622925021    -0.007339187134    15.994914619570
         C            0.230856022426     1.444136925021     0.005442812866    12.000000000000
         N            1.487873022426     0.762219925021    -0.003981187134    14.003074004430
         C            1.691532022426    -0.595239074979     0.003036812866    12.000000000000
         N            0.725990022426    -1.481606074979     0.012352812866    14.003074004430
         C           -0.502819977574    -0.885157074979    -0.002471187134    12.000000000000
         C           -0.831639977574     0.469080925021     0.016311812866    12.000000000000
         N           -2.195946977574     0.658963925021     0.014473812866    14.003074004430
         C           -2.686207977574    -0.570776074979     0.001571812866    12.000000000000
         N           -1.708313977574    -1.536709074979    -0.006240187134    14.003074004430
         N            3.011657022426    -1.010745074979    -0.078670187134    14.003074004430
         H            2.299259622426     1.394944825021     0.146022212866     1.007825032230
         H           -3.738944977574    -0.822237074979    -0.002336187134     1.007825032230
         H           -1.830911977574    -2.542587074979    -0.019963187134     1.007825032230
         H            3.084789022426    -2.012421074979     0.069096812866     1.007825032230
         H            3.664132022426    -0.493335074979     0.501531812866     1.007825032230

  Basis Set: AUG-CC-PVTZ
    Blend: AUG-CC-PVTZ
  Basis Set: (AUG-CC-PVTZ AUX)
    Blend: AUG-CC-PVTZ-JKFIT
	 Reference Energy          =    -539.5849132049305581 [Eh]
	 Singles Energy            =      -0.0000000000000000 [Eh]
	 Same-Spin Energy          =      -0.5732286598551061 [Eh]
	 Opposite-Spin Energy      =      -1.6636715325570544 [Eh]
	 Correlation Energy        =      -2.2369001924121603 [Eh]
	 Total Energy              =    -541.8218133973426802 [Eh]

	 ================> DF-SCS-MP2 Energies <==================
	-----------------------------------------------------------
	 SCS Same-Spin Scale       =       0.3333333333333333 [-]
	 SCS Opposite-Spin Scale   =       1.2000000000000000 [-]
	 SCS Same-Spin Energy      =      -0.1910762199517020 [Eh]
	 SCS Opposite-Spin Energy  =      -1.9964058390684651 [Eh]
	 SCS Correlation Energy    =      -2.1874820590201671 [Eh]
	 SCS Total Energy          =    -541.7723952639506706 [Eh]
	-----------------------------------------------------------

  Dipole Moment: [D]
     X:     2.6733      Y:    -5.6276      Z:     1.1672     Total:     6.3387

*** Psi4 exiting successfully. Buy a developer a beer!
