                               Psi4 1.3.2 release

  ==> Input File <==

--------------------------------------------------------------------------
#psi4
#
memory 32 gb

molecule  {
0 1
  O        0.1763910     2.6970700    -0.0085580
  C        0.2089260     1.4725840     0.0042240
  N        1.4659430     0.7906670    -0.0052000
  C        1.6696020    -0.5667920     0.0018180
  N        0.7040600    -1.4531590     0.0111340
  C       -0.5247500    -0.8567100    -0.0036900
  C       -0.8535700     0.4975280     0.0150930
  N       -2.2178770     0.6874110     0.0132550
  C       -2.7081380    -0.5423290     0.0003530
  N       -1.7324810    -1.5106571     0.2925231
  N        2.9897270    -0.9822980    -0.0798890
  H        2.2638450     1.4140280    -0.1046570
  H       -3.7608750    -0.7937900    -0.0035550
  H       -1.8528420    -2.5141400    -0.0211820
  H        3.0628590    -1.9839740     0.0678780
  H        3.6422020    -0.4648880     0.5003130
units angstrom
no_reorient  #important for SAPT in psi4, default
symmetry c1  #important for SAPT in psi4, default
}

set PROPERTIES_ORIGIN ["COM"]
properties('MP2/aug-cc-pvtz', properties = ['dipole'])
--------------------------------------------------------------------------

    Molecular point group: c1
  Charge       = 0
  Multiplicity = 1
  Basis Set: AUG-CC-PVTZ
    Blend: AUG-CC-PVTZ
  Basis Set: (AUG-CC-PVTZ AUX)
    Blend: AUG-CC-PVTZ-JKFIT

    Orbital Energies [Eh]
    ---------------------

    Doubly Occupied:

       1A    -20.526183     2A    -15.636350     3A    -15.634218
       4A    -15.613795     5A    -15.575300     6A    -15.570347
       7A    -11.400568     8A    -11.369878     9A    -11.331584
      10A    -11.317626    11A    -11.255283    12A     -1.394362
      13A     -1.355226    14A     -1.333390    15A     -1.222295
      16A     -1.219626    17A     -1.172807    18A     -1.030974
      19A     -0.900774    20A     -0.886825    21A     -0.831235
      22A     -0.794627    23A     -0.738861    24A     -0.727137
      25A     -0.699353    26A     -0.668371    27A     -0.654725
      28A     -0.627821    29A     -0.612100    30A     -0.602009
      31A     -0.593667    32A     -0.548303    33A     -0.498926
      34A     -0.465416    35A     -0.444933    36A     -0.437915
      37A     -0.429808    38A     -0.420706    39A     -0.303137

  @DF-RHF Final Energy:  -539.56779602954532

   => Energetics <=

    Nuclear Repulsion Energy =            592.3449700592203726
    One-Electron Energy =               -1910.1326095934055047
    Two-Electron Energy =                 778.2198435046396980
    Total Energy =                       -539.5677960295453204
  Basis Set: (AUG-CC-PVTZ AUX)
    Blend: AUG-CC-PVTZ-RI
    Molecular point group: c1

    Geometry (in Angstrom), charge = 0, multiplicity = 1:

       Center              X                  Y                   Z               Mass
    ------------   -----------------  -----------------  -----------------  -----------------
         O            0.198618375418     2.668907440766    -0.033484665728    15.994914619570
         C            0.231153375418     1.444421440766    -0.020702665728    12.000000000000
         N            1.488170375418     0.762504440766    -0.030126665728    14.003074004430
         C            1.691829375418    -0.594954559234    -0.023108665728    12.000000000000
         N            0.726287375418    -1.481321559234    -0.013792665728    14.003074004430
         C           -0.502522624582    -0.884872559234    -0.028616665728    12.000000000000
         C           -0.831342624582     0.469365440766    -0.009833665728    12.000000000000
         N           -2.195649624582     0.659248440766    -0.011671665728    14.003074004430
         C           -2.685910624582    -0.570491559234    -0.024573665728    12.000000000000
         N           -1.710253624582    -1.538819659234     0.267596434272    14.003074004430
         N            3.011954375418    -1.010460559234    -0.104815665728    14.003074004430
         H            2.286072375418     1.385865440766    -0.129583665728     1.007825032230
         H           -3.738647624582    -0.821952559234    -0.028481665728     1.007825032230
         H           -1.830614624582    -2.542302559234    -0.046108665728     1.007825032230
         H            3.085086375418    -2.012136559234     0.042951334272     1.007825032230
         H            3.664429375418    -0.493050559234     0.475386334272     1.007825032230

  Basis Set: AUG-CC-PVTZ
    Blend: AUG-CC-PVTZ
  Basis Set: (AUG-CC-PVTZ AUX)
    Blend: AUG-CC-PVTZ-JKFIT
	 Reference Energy          =    -539.5677960295453204 [Eh]
	 Singles Energy            =      -0.0000000000000000 [Eh]
	 Same-Spin Energy          =      -0.5734364210627038 [Eh]
	 Opposite-Spin Energy      =      -1.6658677865783100 [Eh]
	 Correlation Energy        =      -2.2393042076410139 [Eh]
	 Total Energy              =    -541.8071002371863187 [Eh]

	 ================> DF-SCS-MP2 Energies <==================
	-----------------------------------------------------------
	 SCS Same-Spin Scale       =       0.3333333333333333 [-]
	 SCS Opposite-Spin Scale   =       1.2000000000000000 [-]
	 SCS Same-Spin Energy      =      -0.1911454736875679 [Eh]
	 SCS Opposite-Spin Energy  =      -1.9990413438939720 [Eh]
	 SCS Correlation Energy    =      -2.1901868175815400 [Eh]
	 SCS Total Energy          =    -541.7579828471268684 [Eh]
	-----------------------------------------------------------

  Dipole Moment: [D]
     X:     2.8196      Y:    -5.3185      Z:     0.5444     Total:     6.0443

*** Psi4 exiting successfully. Buy a developer a beer!
