                               Psi4 1.3.2 release

  ==> Input File <==

--------------------------------------------------------------------------
#psi4
#
memory 32 gb

molecule  {
0 1
  O        0.1763910     2.6970700    -0.0085580
  C        0.2089260     1.4725840     0.0042240
  N        1.4659430     0.7906670    -0.0052000
  C        1.6696020    -0.5667920     0.0018180
  N        0.7040600    -1.4531590     0.0111340
  C       -0.5247500    -0.8567100    -0.0036900
  C       -0.8535700     0.4975280     0.0150930
  N       -2.2189505     0.6884286    -0.1867395
  C       -2.7081380    -0.5423290     0.0003530
  N       -1.7302440    -1.5082620    -0.0074590
  N        2.9897270    -0.9822980    -0.0798890
  H        2.2638450     1.4140280    -0.1046570
  H       -3.7608750    -0.7937900    -0.0035550
  H       -1.8528420    -2.5141400    -0.0211820
  H        3.0628590    -1.9839740     0.0678780
  H        3.6422020    -0.4648880     0.5003130
units angstrom
no_reorient  #important for SAPT in psi4, default
symmetry c1  #important for SAPT in psi4, default
}

set PROPERTIES_ORIGIN ["COM"]
properties('MP2/aug-cc-pvtz', properties = ['dipole'])
--------------------------------------------------------------------------

    Molecular point group: c1
  Charge       = 0
  Multiplicity = 1
  Basis Set: AUG-CC-PVTZ
    Blend: AUG-CC-PVTZ
  Basis Set: (AUG-CC-PVTZ AUX)
    Blend: AUG-CC-PVTZ-JKFIT

    Orbital Energies [Eh]
    ---------------------

    Doubly Occupied:

       1A    -20.524434     2A    -15.636672     3A    -15.632022
       4A    -15.612555     5A    -15.573962     6A    -15.568370
       7A    -11.398825     8A    -11.367837     9A    -11.328295
      10A    -11.317276    11A    -11.252381    12A     -1.393305
      13A     -1.359914    14A     -1.335194    15A     -1.220894
      16A     -1.217287    17A     -1.174955    18A     -1.030581
      19A     -0.906938    20A     -0.884638    21A     -0.844416
      22A     -0.799093    23A     -0.739158    24A     -0.729140
      25A     -0.700825    26A     -0.672978    27A     -0.657691
      28A     -0.631468    29A     -0.614247    30A     -0.598592
      31A     -0.594910    32A     -0.547602    33A     -0.501172
      34A     -0.461762    35A     -0.445177    36A     -0.436384
      37A     -0.430445    38A     -0.407302    39A     -0.302131

  @DF-RHF Final Energy:  -539.57780494370161

   => Energetics <=

    Nuclear Repulsion Energy =            593.1344831713909116
    One-Electron Energy =               -1911.7229226282481704
    Two-Electron Energy =                 779.0106345131556509
    Total Energy =                       -539.5778049437016080
  Basis Set: (AUG-CC-PVTZ AUX)
    Blend: AUG-CC-PVTZ-RI
    Molecular point group: c1

    Geometry (in Angstrom), charge = 0, multiplicity = 1:

       Center              X                  Y                   Z               Mass
    ------------   -----------------  -----------------  -----------------  -----------------
         O            0.198510512854     2.668591065543     0.012865792307    15.994914619570
         C            0.231045512854     1.444105065543     0.025647792307    12.000000000000
         N            1.488062512854     0.762188065543     0.016223792307    14.003074004430
         C            1.691721512854    -0.595270934457     0.023241792307    12.000000000000
         N            0.726179512854    -1.481637934457     0.032557792307    14.003074004430
         C           -0.502630487146    -0.885188934457     0.017733792307    12.000000000000
         C           -0.831450487146     0.469049065543     0.036516792307    12.000000000000
         N           -2.196830987146     0.659949665543    -0.165315707693    14.003074004430
         C           -2.686018487146    -0.570807934457     0.021776792307    12.000000000000
         N           -1.708124487146    -1.536740934457     0.013964792307    14.003074004430
         N            3.011846512854    -1.010776934457    -0.058465207693    14.003074004430
         H            2.285964512854     1.385549065543    -0.083233207693     1.007825032230
         H           -3.738755487146    -0.822268934457     0.017868792307     1.007825032230
         H           -1.830722487146    -2.542618934457     0.000241792307     1.007825032230
         H            3.084978512854    -2.012452934457     0.089301792307     1.007825032230
         H            3.664321512854    -0.493366934457     0.521736792307     1.007825032230

  Basis Set: AUG-CC-PVTZ
    Blend: AUG-CC-PVTZ
  Basis Set: (AUG-CC-PVTZ AUX)
    Blend: AUG-CC-PVTZ-JKFIT
	 Reference Energy          =    -539.5778049437016080 [Eh]
	 Singles Energy            =      -0.0000000000000000 [Eh]
	 Same-Spin Energy          =      -0.5734441328113439 [Eh]
	 Opposite-Spin Energy      =      -1.6645150628741676 [Eh]
	 Correlation Energy        =      -2.2379591956855114 [Eh]
	 Total Energy              =    -541.8157641393871700 [Eh]

	 ================> DF-SCS-MP2 Energies <==================
	-----------------------------------------------------------
	 SCS Same-Spin Scale       =       0.3333333333333333 [-]
	 SCS Opposite-Spin Scale   =       1.2000000000000000 [-]
	 SCS Same-Spin Energy      =      -0.1911480442704480 [Eh]
	 SCS Opposite-Spin Energy  =      -1.9974180754490010 [Eh]
	 SCS Correlation Energy    =      -2.1885661197194488 [Eh]
	 SCS Total Energy          =    -541.7663710634210474 [Eh]
	-----------------------------------------------------------

  Dipole Moment: [D]
     X:     2.6902      Y:    -5.6366      Z:     1.1004     Total:     6.3418

*** Psi4 exiting successfully. Buy a developer a beer!
