                               Psi4 1.3.2 release

  ==> Input File <==

--------------------------------------------------------------------------
#psi4
#
memory 32 gb

molecule  {
0 1
  O        0.1763910     2.6970700    -0.0085580
  C        0.2089260     1.4725840     0.0042240
  N        1.4659430     0.7906670    -0.0052000
  C        1.6696020    -0.5667920     0.0018180
  N        0.7040600    -1.4531590     0.0111340
  C       -0.5247500    -0.8567100    -0.0036900
  C       -0.8535700     0.4975280     0.0150930
  N       -2.2178770     0.6874110     0.0132550
  C       -2.7081380    -0.5423290     0.0003530
  N       -1.7302440    -1.5082620    -0.0074590
  N        2.9897270    -0.9822980    -0.0798890
  H        2.2638450     1.4140280    -0.1046570
  H       -3.7608750    -0.7937900    -0.0035550
  H       -1.8528420    -2.5141400    -0.0211820
  H        3.0628590    -1.9839740     0.0678780
  H        3.5842201    -0.5107589     0.7391308
units angstrom
no_reorient  #important for SAPT in psi4, default
symmetry c1  #important for SAPT in psi4, default
}

set PROPERTIES_ORIGIN ["COM"]
properties('MP2/aug-cc-pvtz', properties = ['dipole'])
--------------------------------------------------------------------------

    Molecular point group: c1
  Charge       = 0
  Multiplicity = 1
  Basis Set: AUG-CC-PVTZ
    Blend: AUG-CC-PVTZ
  Basis Set: (AUG-CC-PVTZ AUX)
    Blend: AUG-CC-PVTZ-JKFIT

    Orbital Energies [Eh]
    ---------------------

    Doubly Occupied:

       1A    -20.524940     2A    -15.637441     3A    -15.632243
       4A    -15.620393     5A    -15.576098     6A    -15.566414
       7A    -11.397160     8A    -11.368566     9A    -11.328114
      10A    -11.315671    11A    -11.253216    12A     -1.393991
      13A     -1.361919    14A     -1.335343    15A     -1.219653
      16A     -1.213323    17A     -1.179167    18A     -1.030809
      19A     -0.907487    20A     -0.882392    21A     -0.846050
      22A     -0.793335    23A     -0.740291    24A     -0.725309
      25A     -0.689389    26A     -0.669298    27A     -0.653464
      28A     -0.629690    29A     -0.615090    30A     -0.602162
      31A     -0.593209    32A     -0.547078    33A     -0.500996
      34A     -0.467799    35A     -0.444138    36A     -0.433887
      37A     -0.433093    38A     -0.413207    39A     -0.304961

  @DF-RHF Final Energy:  -539.57627043758328

   => Energetics <=

    Nuclear Repulsion Energy =            593.3031115678144261
    One-Electron Energy =               -1912.0651934411400816
    Two-Electron Energy =                 779.1858114357424938
    Total Energy =                       -539.5762704375832755
  Basis Set: (AUG-CC-PVTZ AUX)
    Blend: AUG-CC-PVTZ-RI
    Molecular point group: c1

    Geometry (in Angstrom), charge = 0, multiplicity = 1:

       Center              X                  Y                   Z               Mass
    ------------   -----------------  -----------------  -----------------  -----------------
         O            0.198797857971     2.668991460152    -0.007268178060    15.994914619570
         C            0.231332857971     1.444505460152     0.005513821940    12.000000000000
         N            1.488349857971     0.762588460152    -0.003910178060    14.003074004430
         C            1.692008857971    -0.594870539848     0.003107821940    12.000000000000
         N            0.726466857971    -1.481237539848     0.012423821940    14.003074004430
         C           -0.502343142029    -0.884788539848    -0.002400178060    12.000000000000
         C           -0.831163142029     0.469449460152     0.016382821940    12.000000000000
         N           -2.195470142029     0.659332460152     0.014544821940    14.003074004430
         C           -2.685731142029    -0.570407539848     0.001642821940    12.000000000000
         N           -1.707837142029    -1.536340539848    -0.006169178060    14.003074004430
         N            3.012133857971    -1.010376539848    -0.078599178060    14.003074004430
         H            2.286251857971     1.385949460152    -0.103367178060     1.007825032230
         H           -3.738468142029    -0.821868539848    -0.002265178060     1.007825032230
         H           -1.830435142029    -2.542218539848    -0.019892178060     1.007825032230
         H            3.085265857971    -2.012052539848     0.069167821940     1.007825032230
         H            3.606626957971    -0.538837439848     0.740420621940     1.007825032230

  Basis Set: AUG-CC-PVTZ
    Blend: AUG-CC-PVTZ
  Basis Set: (AUG-CC-PVTZ AUX)
    Blend: AUG-CC-PVTZ-JKFIT
	 Reference Energy          =    -539.5762704375832755 [Eh]
	 Singles Energy            =      -0.0000000000000000 [Eh]
	 Same-Spin Energy          =      -0.5737298728766247 [Eh]
	 Opposite-Spin Energy      =      -1.6654189017165542 [Eh]
	 Correlation Energy        =      -2.2391487745931791 [Eh]
	 Total Energy              =    -541.8154192121764936 [Eh]

	 ================> DF-SCS-MP2 Energies <==================
	-----------------------------------------------------------
	 SCS Same-Spin Scale       =       0.3333333333333333 [-]
	 SCS Opposite-Spin Scale   =       1.2000000000000000 [-]
	 SCS Same-Spin Energy      =      -0.1912432909588749 [Eh]
	 SCS Opposite-Spin Energy  =      -1.9985026820598648 [Eh]
	 SCS Correlation Energy    =      -2.1897459730187396 [Eh]
	 SCS Total Energy          =    -541.7660164106019920 [Eh]
	-----------------------------------------------------------

  Dipole Moment: [D]
     X:     2.3174      Y:    -5.7085      Z:     1.0620     Total:     6.2518

*** Psi4 exiting successfully. Buy a developer a beer!
