                               Psi4 1.3.2 release

  ==> Input File <==

--------------------------------------------------------------------------
#psi4
#
memory 32 gb

molecule  {
0 1
  O        0.1763910     2.6970700    -0.0085580
  C        0.2089260     1.4725840     0.0042240
  N        1.4659430     0.7906670    -0.0052000
  C        1.6696020    -0.5667920     0.0018180
  N        0.7040600    -1.4531590     0.0111340
  C       -0.5247500    -0.8567100    -0.0036900
  C       -0.8535700     0.4975280     0.0150930
  N       -2.2178770     0.6874110     0.0132550
  C       -2.7081380    -0.5423290     0.0003530
  N       -1.7302440    -1.5082620    -0.0074590
  N        2.9897270    -0.9822980    -0.0798890
  H        2.2665419     1.4159008    -0.0547649
  H       -3.7608750    -0.7937900    -0.0035550
  H       -1.8528420    -2.5141400    -0.0211820
  H        3.0628590    -1.9839740     0.0678780
  H        3.6422020    -0.4648880     0.5003130
units angstrom
no_reorient  #important for SAPT in psi4, default
symmetry c1  #important for SAPT in psi4, default
}

set PROPERTIES_ORIGIN ["COM"]
properties('MP2/aug-cc-pvtz', properties = ['dipole'])
--------------------------------------------------------------------------

    Molecular point group: c1
  Charge       = 0
  Multiplicity = 1
  Basis Set: AUG-CC-PVTZ
    Blend: AUG-CC-PVTZ
  Basis Set: (AUG-CC-PVTZ AUX)
    Blend: AUG-CC-PVTZ-JKFIT

    Orbital Energies [Eh]
    ---------------------

    Doubly Occupied:

       1A    -20.524378     2A    -15.636217     3A    -15.632108
       4A    -15.612428     5A    -15.573597     6A    -15.565308
       7A    -11.398631     8A    -11.368050     9A    -11.327575
      10A    -11.314313    11A    -11.251479    12A     -1.393570
      13A     -1.360958    14A     -1.335889    15A     -1.220845
      16A     -1.218362    17A     -1.178272    18A     -1.031378
      19A     -0.906937    20A     -0.885344    21A     -0.844985
      22A     -0.799183    23A     -0.740586    24A     -0.730301
      25A     -0.700547    26A     -0.673222    27A     -0.656918
      28A     -0.633664    29A     -0.614652    30A     -0.600904
      31A     -0.597004    32A     -0.548034    33A     -0.499868
      34A     -0.462558    35A     -0.443228    36A     -0.433220
      37A     -0.432460    38A     -0.412231    39A     -0.302917

  @DF-RHF Final Energy:  -539.58757461952689

   => Energetics <=

    Nuclear Repulsion Energy =            593.6531854830950579
    One-Electron Energy =               -1912.7572800399768767
    Two-Electron Energy =                 779.5165199373549285
    Total Energy =                       -539.5875746195268903
  Basis Set: (AUG-CC-PVTZ AUX)
    Blend: AUG-CC-PVTZ-RI
    Molecular point group: c1

    Geometry (in Angstrom), charge = 0, multiplicity = 1:

       Center              X                  Y                   Z               Mass
    ------------   -----------------  -----------------  -----------------  -----------------
         O            0.198392999629     2.668672906799    -0.006007636560    15.994914619570
         C            0.230927999629     1.444186906799     0.006774363440    12.000000000000
         N            1.487944999629     0.762269906799    -0.002649636560    14.003074004430
         C            1.691603999629    -0.595189093201     0.004368363440    12.000000000000
         N            0.726061999629    -1.481556093201     0.013684363440    14.003074004430
         C           -0.502748000371    -0.885107093201    -0.001139636560    12.000000000000
         C           -0.831568000371     0.469130906799     0.017643363440    12.000000000000
         N           -2.195875000371     0.659013906799     0.015805363440    14.003074004430
         C           -2.686136000371    -0.570726093201     0.002903363440    12.000000000000
         N           -1.708242000371    -1.536659093201    -0.004908636560    14.003074004430
         N            3.011728999629    -1.010695093201    -0.077338636560    14.003074004430
         H            2.288543899629     1.387503706799    -0.052214536560     1.007825032230
         H           -3.738873000371    -0.822187093201    -0.001004636560     1.007825032230
         H           -1.830840000371    -2.542537093201    -0.018631636560     1.007825032230
         H            3.084860999629    -2.012371093201     0.070428363440     1.007825032230
         H            3.664203999629    -0.493285093201     0.502863363440     1.007825032230

  Basis Set: AUG-CC-PVTZ
    Blend: AUG-CC-PVTZ
  Basis Set: (AUG-CC-PVTZ AUX)
    Blend: AUG-CC-PVTZ-JKFIT
	 Reference Energy          =    -539.5875746195268903 [Eh]
	 Singles Energy            =      -0.0000000000000000 [Eh]
	 Same-Spin Energy          =      -0.5730303910131114 [Eh]
	 Opposite-Spin Energy      =      -1.6631959071823021 [Eh]
	 Correlation Energy        =      -2.2362262981954135 [Eh]
	 Total Energy              =    -541.8238009177223375 [Eh]

	 ================> DF-SCS-MP2 Energies <==================
	-----------------------------------------------------------
	 SCS Same-Spin Scale       =       0.3333333333333333 [-]
	 SCS Opposite-Spin Scale   =       1.2000000000000000 [-]
	 SCS Same-Spin Energy      =      -0.1910101303377038 [Eh]
	 SCS Opposite-Spin Energy  =      -1.9958350886187626 [Eh]
	 SCS Correlation Energy    =      -2.1868452189564662 [Eh]
	 SCS Total Energy          =    -541.7744198384833680 [Eh]
	-----------------------------------------------------------

  Dipole Moment: [D]
     X:     2.6740      Y:    -5.6317      Z:     0.9090     Total:     6.3002

*** Psi4 exiting successfully. Buy a developer a beer!
