                               Psi4 1.3.2 release

  ==> Input File <==

--------------------------------------------------------------------------
#psi4
#
memory 32 gb

molecule  {
0 1
  O        0.1763910     2.6970700    -0.0085580
  C        0.2089260     1.4725840     0.0042240
  N        1.4659430     0.7906670    -0.0052000
  C        1.6696020    -0.5667920     0.0018180
  N        0.7040600    -1.4531590     0.0111340
  C       -0.5247500    -0.8567100    -0.0036900
  C       -0.8559263     0.4954057    -0.2848902
  N       -2.2178770     0.6874110     0.0132550
  C       -2.7081380    -0.5423290     0.0003530
  N       -1.7302440    -1.5082620    -0.0074590
  N        2.9897270    -0.9822980    -0.0798890
  H        2.2638450     1.4140280    -0.1046570
  H       -3.7608750    -0.7937900    -0.0035550
  H       -1.8528420    -2.5141400    -0.0211820
  H        3.0628590    -1.9839740     0.0678780
  H        3.6422020    -0.4648880     0.5003130
units angstrom
no_reorient  #important for SAPT in psi4, default
symmetry c1  #important for SAPT in psi4, default
}

set PROPERTIES_ORIGIN ["COM"]
properties('MP2/aug-cc-pvtz', properties = ['dipole'])
--------------------------------------------------------------------------

    Molecular point group: c1
  Charge       = 0
  Multiplicity = 1
  Basis Set: AUG-CC-PVTZ
    Blend: AUG-CC-PVTZ
  Basis Set: (AUG-CC-PVTZ AUX)
    Blend: AUG-CC-PVTZ-JKFIT

    Orbital Energies [Eh]
    ---------------------

    Doubly Occupied:

       1A    -20.525827     2A    -15.636377     3A    -15.631918
       4A    -15.614550     5A    -15.574564     6A    -15.565038
       7A    -11.401856     8A    -11.369219     9A    -11.334311
      10A    -11.313958    11A    -11.255037    12A     -1.393035
      13A     -1.359756    14A     -1.335890    15A     -1.221693
      16A     -1.218304    17A     -1.173526    18A     -1.025498
      19A     -0.901493    20A     -0.885472    21A     -0.838585
      22A     -0.798605    23A     -0.740689    24A     -0.729519
      25A     -0.702069    26A     -0.669166    27A     -0.650661
      28A     -0.634303    29A     -0.613836    30A     -0.606417
      31A     -0.583409    32A     -0.545261    33A     -0.498083
      34A     -0.466964    35A     -0.440997    36A     -0.434869
      37A     -0.425211    38A     -0.407595    39A     -0.303354

  @DF-RHF Final Energy:  -539.56182242514490

   => Energetics <=

    Nuclear Repulsion Energy =            592.3575399398404215
    One-Electron Energy =               -1910.1848966775512508
    Two-Electron Energy =                 778.2655343125660465
    Total Energy =                       -539.5618224251448964
  Basis Set: (AUG-CC-PVTZ AUX)
    Blend: AUG-CC-PVTZ-RI
    Molecular point group: c1

    Geometry (in Angstrom), charge = 0, multiplicity = 1:

       Center              X                  Y                   Z               Mass
    ------------   -----------------  -----------------  -----------------  -----------------
         O            0.198598188139     2.668854006843     0.018157177537    15.994914619570
         C            0.231133188139     1.444368006843     0.030939177537    12.000000000000
         N            1.488150188139     0.762451006843     0.021515177537    14.003074004430
         C            1.691809188139    -0.595007993157     0.028533177537    12.000000000000
         N            0.726267188139    -1.481374993157     0.037849177537    14.003074004430
         C           -0.502542811861    -0.884925993157     0.023025177537    12.000000000000
         C           -0.833719111861     0.467189706843    -0.258175022463    12.000000000000
         N           -2.195669811861     0.659195006843     0.039970177537    14.003074004430
         C           -2.685930811861    -0.570544993157     0.027068177537    12.000000000000
         N           -1.708036811861    -1.536477993157     0.019256177537    14.003074004430
         N            3.011934188139    -1.010513993157    -0.053173822463    14.003074004430
         H            2.286052188139     1.385812006843    -0.077941822463     1.007825032230
         H           -3.738667811861    -0.822005993157     0.023160177537     1.007825032230
         H           -1.830634811861    -2.542355993157     0.005533177537     1.007825032230
         H            3.085066188139    -2.012189993157     0.094593177537     1.007825032230
         H            3.664409188139    -0.493103993157     0.527028177537     1.007825032230

  Basis Set: AUG-CC-PVTZ
    Blend: AUG-CC-PVTZ
  Basis Set: (AUG-CC-PVTZ AUX)
    Blend: AUG-CC-PVTZ-JKFIT
	 Reference Energy          =    -539.5618224251448964 [Eh]
	 Singles Energy            =      -0.0000000000000000 [Eh]
	 Same-Spin Energy          =      -0.5733984555941349 [Eh]
	 Opposite-Spin Energy      =      -1.6649952808438682 [Eh]
	 Correlation Energy        =      -2.2383937364380033 [Eh]
	 Total Energy              =    -541.8002161615828527 [Eh]

	 ================> DF-SCS-MP2 Energies <==================
	-----------------------------------------------------------
	 SCS Same-Spin Scale       =       0.3333333333333333 [-]
	 SCS Opposite-Spin Scale   =       1.2000000000000000 [-]
	 SCS Same-Spin Energy      =      -0.1911328185313783 [Eh]
	 SCS Opposite-Spin Energy  =      -1.9979943370126416 [Eh]
	 SCS Correlation Energy    =      -2.1891271555440199 [Eh]
	 SCS Total Energy          =    -541.7509495806889390 [Eh]
	-----------------------------------------------------------

  Dipole Moment: [D]
     X:     2.7693      Y:    -5.6284      Z:     0.8417     Total:     6.3290

*** Psi4 exiting successfully. Buy a developer a beer!
