                               Psi4 1.3.2 release

  ==> Input File <==

--------------------------------------------------------------------------
#psi4
#
memory 32 gb

molecule  {
0 1
  O        0.1763910     2.6970700    -0.0085580
  C        0.2089260     1.4725840     0.0042240
  N        1.4659430     0.7906670    -0.0052000
  C        1.6696020    -0.5667920     0.0018180
  N        0.7040600    -1.4531590     0.0111340
  C       -0.5247500    -0.8567100    -0.0036900
  C       -0.8539627     0.4971743    -0.0349042
  N       -2.2178770     0.6874110     0.0132550
  C       -2.7081380    -0.5423290     0.0003530
  N       -1.7302440    -1.5082620    -0.0074590
  N        2.9897270    -0.9822980    -0.0798890
  H        2.2638450     1.4140280    -0.1046570
  H       -3.7608750    -0.7937900    -0.0035550
  H       -1.8528420    -2.5141400    -0.0211820
  H        3.0628590    -1.9839740     0.0678780
  H        3.6422020    -0.4648880     0.5003130
units angstrom
no_reorient  #important for SAPT in psi4, default
symmetry c1  #important for SAPT in psi4, default
}

set PROPERTIES_ORIGIN ["COM"]
properties('MP2/aug-cc-pvtz', properties = ['dipole'])
--------------------------------------------------------------------------

    Molecular point group: c1
  Charge       = 0
  Multiplicity = 1
  Basis Set: AUG-CC-PVTZ
    Blend: AUG-CC-PVTZ
  Basis Set: (AUG-CC-PVTZ AUX)
    Blend: AUG-CC-PVTZ-JKFIT

    Orbital Energies [Eh]
    ---------------------

    Doubly Occupied:

       1A    -20.524508     2A    -15.636184     3A    -15.631980
       4A    -15.612413     5A    -15.573617     6A    -15.565297
       7A    -11.398680     8A    -11.368078     9A    -11.327636
      10A    -11.314306    11A    -11.251523    12A     -1.393575
      13A     -1.360982    14A     -1.335889    15A     -1.220814
      16A     -1.218332    17A     -1.178175    18A     -1.031262
      19A     -0.906691    20A     -0.885259    21A     -0.844886
      22A     -0.799149    23A     -0.740380    24A     -0.730334
      25A     -0.700922    26A     -0.672916    27A     -0.656015
      28A     -0.633920    29A     -0.614545    30A     -0.602971
      31A     -0.595241    32A     -0.547740    33A     -0.499746
      34A     -0.462929    35A     -0.443062    36A     -0.433894
      37A     -0.431811    38A     -0.412175    39A     -0.302916

  @DF-RHF Final Energy:  -539.58699068825217

   => Energetics <=

    Nuclear Repulsion Energy =            593.6364679976207981
    One-Electron Energy =               -1912.7254144851165165
    Two-Electron Energy =                 779.5019557992436603
    Total Energy =                       -539.5869906882521718
  Basis Set: (AUG-CC-PVTZ AUX)
    Blend: AUG-CC-PVTZ-RI
    Molecular point group: c1

    Geometry (in Angstrom), charge = 0, multiplicity = 1:

       Center              X                  Y                   Z               Mass
    ------------   -----------------  -----------------  -----------------  -----------------
         O            0.198442191502     2.668713501825    -0.001702761035    15.994914619570
         C            0.230977191502     1.444227501825     0.011079238965    12.000000000000
         N            1.487994191502     0.762310501825     0.001655238965    14.003074004430
         C            1.691653191502    -0.595148498175     0.008673238965    12.000000000000
         N            0.726111191502    -1.481515498175     0.017989238965    14.003074004430
         C           -0.502698808498    -0.885066498175     0.003165238965    12.000000000000
         C           -0.831911508498     0.468817801825    -0.028048961035    12.000000000000
         N           -2.195825808498     0.659054501825     0.020110238965    14.003074004430
         C           -2.686086808498    -0.570685498175     0.007208238965    12.000000000000
         N           -1.708192808498    -1.536618498175    -0.000603761035    14.003074004430
         N            3.011778191502    -1.010654498175    -0.073033761035    14.003074004430
         H            2.285896191502     1.385671501825    -0.097801761035     1.007825032230
         H           -3.738823808498    -0.822146498175     0.003300238965     1.007825032230
         H           -1.830790808498    -2.542496498175    -0.014326761035     1.007825032230
         H            3.084910191502    -2.012330498175     0.074733238965     1.007825032230
         H            3.664253191502    -0.493244498175     0.507168238965     1.007825032230

  Basis Set: AUG-CC-PVTZ
    Blend: AUG-CC-PVTZ
  Basis Set: (AUG-CC-PVTZ AUX)
    Blend: AUG-CC-PVTZ-JKFIT
	 Reference Energy          =    -539.5869906882521718 [Eh]
	 Singles Energy            =      -0.0000000000000000 [Eh]
	 Same-Spin Energy          =      -0.5730309112345575 [Eh]
	 Opposite-Spin Energy      =      -1.6631730002854859 [Eh]
	 Correlation Energy        =      -2.2362039115200432 [Eh]
	 Total Energy              =    -541.8231945997722505 [Eh]

	 ================> DF-SCS-MP2 Energies <==================
	-----------------------------------------------------------
	 SCS Same-Spin Scale       =       0.3333333333333333 [-]
	 SCS Opposite-Spin Scale   =       1.2000000000000000 [-]
	 SCS Same-Spin Energy      =      -0.1910103037448525 [Eh]
	 SCS Opposite-Spin Energy  =      -1.9958076003425829 [Eh]
	 SCS Correlation Energy    =      -2.1868179040874356 [Eh]
	 SCS Total Energy          =    -541.7738085923396056 [Eh]
	-----------------------------------------------------------

  Dipole Moment: [D]
     X:     2.6711      Y:    -5.6318      Z:     0.8401     Total:     6.2895

*** Psi4 exiting successfully. Buy a developer a beer!
