                               Psi4 1.3.2 release

  ==> Input File <==

--------------------------------------------------------------------------
#psi4
#
memory 32 gb

molecule  {
0 1
  O        0.1763910     2.6970700    -0.0085580
  C        0.2089260     1.4725840     0.0042240
  N        1.4659430     0.7906670    -0.0052000
  C        1.6696020    -0.5667920     0.0018180
  N        0.7040600    -1.4531590     0.0111340
  C       -0.5247500    -0.8567100    -0.0036900
  C       -0.8551409     0.4961132    -0.1848958
  N       -2.2178770     0.6874110     0.0132550
  C       -2.7081380    -0.5423290     0.0003530
  N       -1.7302440    -1.5082620    -0.0074590
  N        2.9897270    -0.9822980    -0.0798890
  H        2.2638450     1.4140280    -0.1046570
  H       -3.7608750    -0.7937900    -0.0035550
  H       -1.8528420    -2.5141400    -0.0211820
  H        3.0628590    -1.9839740     0.0678780
  H        3.6422020    -0.4648880     0.5003130
units angstrom
no_reorient  #important for SAPT in psi4, default
symmetry c1  #important for SAPT in psi4, default
}

set PROPERTIES_ORIGIN ["COM"]
properties('MP2/aug-cc-pvtz', properties = ['dipole'])
--------------------------------------------------------------------------

    Molecular point group: c1
  Charge       = 0
  Multiplicity = 1
  Basis Set: AUG-CC-PVTZ
    Blend: AUG-CC-PVTZ
  Basis Set: (AUG-CC-PVTZ AUX)
    Blend: AUG-CC-PVTZ-JKFIT

    Orbital Energies [Eh]
    ---------------------

    Doubly Occupied:

       1A    -20.525111     2A    -15.636191     3A    -15.631929
       4A    -15.613283     5A    -15.573977     6A    -15.565250
       7A    -11.400011     8A    -11.368644     9A    -11.330402
      10A    -11.314126    11A    -11.253030    12A     -1.393341
      13A     -1.360449    14A     -1.335902    15A     -1.221150
      16A     -1.218272    17A     -1.176250    18A     -1.028813
      19A     -0.904308    20A     -0.885356    21A     -0.842127
      22A     -0.798870    23A     -0.740500    24A     -0.730007
      25A     -0.701574    26A     -0.671149    27A     -0.653408
      28A     -0.634125    29A     -0.614051    30A     -0.606190
      31A     -0.588874    32A     -0.546543    33A     -0.499015
      34A     -0.465093    35A     -0.441931    36A     -0.435155
      37A     -0.428085    38A     -0.410360    39A     -0.303020

  @DF-RHF Final Energy:  -539.57632792616550

   => Energetics <=

    Nuclear Repulsion Energy =            593.0996566662590794
    One-Electron Energy =               -1911.6602249103782469
    Two-Electron Energy =                 778.9842403179536632
    Total Energy =                       -539.5763279261655043
  Basis Set: (AUG-CC-PVTZ AUX)
    Blend: AUG-CC-PVTZ-RI
    Molecular point group: c1

    Geometry (in Angstrom), charge = 0, multiplicity = 1:

       Center              X                  Y                   Z               Mass
    ------------   -----------------  -----------------  -----------------  -----------------
         O            0.198535792662     2.668797800069     0.010213202108    15.994914619570
         C            0.231070792662     1.444311800069     0.022995202108    12.000000000000
         N            1.488087792662     0.762394800069     0.013571202108    14.003074004430
         C            1.691746792662    -0.595064199931     0.020589202108    12.000000000000
         N            0.726204792662    -1.481431199931     0.029905202108    14.003074004430
         C           -0.502605207338    -0.884982199931     0.015081202108    12.000000000000
         C           -0.832996107338     0.467841000069    -0.166124597892    12.000000000000
         N           -2.195732207338     0.659138800069     0.032026202108    14.003074004430
         C           -2.685993207338    -0.570601199931     0.019124202108    12.000000000000
         N           -1.708099207338    -1.536534199931     0.011312202108    14.003074004430
         N            3.011871792662    -1.010570199931    -0.061117797892    14.003074004430
         H            2.285989792662     1.385755800069    -0.085885797892     1.007825032230
         H           -3.738730207338    -0.822062199931     0.015216202108     1.007825032230
         H           -1.830697207338    -2.542412199931    -0.002410797892     1.007825032230
         H            3.085003792662    -2.012246199931     0.086649202108     1.007825032230
         H            3.664346792662    -0.493160199931     0.519084202108     1.007825032230

  Basis Set: AUG-CC-PVTZ
    Blend: AUG-CC-PVTZ
  Basis Set: (AUG-CC-PVTZ AUX)
    Blend: AUG-CC-PVTZ-JKFIT
	 Reference Energy          =    -539.5763279261655043 [Eh]
	 Singles Energy            =      -0.0000000000000000 [Eh]
	 Same-Spin Energy          =      -0.5731799588078968 [Eh]
	 Opposite-Spin Energy      =      -1.6637410119029257 [Eh]
	 Correlation Energy        =      -2.2369209707108224 [Eh]
	 Total Energy              =    -541.8132488968763028 [Eh]

	 ================> DF-SCS-MP2 Energies <==================
	-----------------------------------------------------------
	 SCS Same-Spin Scale       =       0.3333333333333333 [-]
	 SCS Opposite-Spin Scale   =       1.2000000000000000 [-]
	 SCS Same-Spin Energy      =      -0.1910599862692989 [Eh]
	 SCS Opposite-Spin Energy  =      -1.9964892142835107 [Eh]
	 SCS Correlation Energy    =      -2.1875492005528097 [Eh]
	 SCS Total Energy          =    -541.7638771267182847 [Eh]
	-----------------------------------------------------------

  Dipole Moment: [D]
     X:     2.7122      Y:    -5.6273      Z:     0.8340     Total:     6.3022

*** Psi4 exiting successfully. Buy a developer a beer!
