                               Psi4 1.3.2 release

  ==> Input File <==

--------------------------------------------------------------------------
#psi4
#
memory 32 gb

molecule  {
0 1
  O        0.1763910     2.6970700    -0.0085580
  C        0.2089260     1.4725840     0.0042240
  N        1.4659430     0.7906670    -0.0052000
  C        1.6696020    -0.5667920     0.0018180
  N        0.7040600    -1.4531590     0.0111340
  C       -0.5247500    -0.8567100    -0.0036900
  C       -0.8535700     0.4975280     0.0150930
  N       -2.2178770     0.6874110     0.0132550
  C       -2.7081380    -0.5423290     0.0003530
  N       -1.7302440    -1.5082620    -0.0074590
  N        2.9897270    -0.9822980    -0.0798890
  H        2.2638450     1.4140280    -0.1046570
  H       -3.7608750    -0.7937900    -0.0035550
  H       -1.8527527    -2.5173775     0.2788005
  H        3.0628590    -1.9839740     0.0678780
  H        3.6422020    -0.4648880     0.5003130
units angstrom
no_reorient  #important for SAPT in psi4, default
symmetry c1  #important for SAPT in psi4, default
}

set PROPERTIES_ORIGIN ["COM"]
properties('MP2/aug-cc-pvtz', properties = ['dipole'])
--------------------------------------------------------------------------

    Molecular point group: c1
  Charge       = 0
  Multiplicity = 1
  Basis Set: AUG-CC-PVTZ
    Blend: AUG-CC-PVTZ
  Basis Set: (AUG-CC-PVTZ AUX)
    Blend: AUG-CC-PVTZ-JKFIT

    Orbital Energies [Eh]
    ---------------------

    Doubly Occupied:

       1A    -20.524598     2A    -15.637753     3A    -15.632220
       4A    -15.612475     5A    -15.573678     6A    -15.565930
       7A    -11.398718     8A    -11.368175     9A    -11.327350
      10A    -11.313881    11A    -11.251867    12A     -1.393593
      13A     -1.360076    14A     -1.335631    15A     -1.220890
      16A     -1.218313    17A     -1.174991    18A     -1.031305
      19A     -0.905833    20A     -0.885256    21A     -0.835659
      22A     -0.797466    23A     -0.740273    24A     -0.730303
      25A     -0.698754    26A     -0.673504    27A     -0.653261
      28A     -0.633579    29A     -0.616130    30A     -0.603114
      31A     -0.591151    32A     -0.548120    33A     -0.499493
      34A     -0.462608    35A     -0.443456    36A     -0.433368
      37A     -0.432729    38A     -0.412776    39A     -0.303076

  @DF-RHF Final Energy:  -539.58282684171411

   => Energetics <=

    Nuclear Repulsion Energy =            593.4518415455144122
    One-Electron Energy =               -1912.3866339062856241
    Two-Electron Energy =                 779.3519655190569893
    Total Energy =                       -539.5828268417141089
  Basis Set: (AUG-CC-PVTZ AUX)
    Blend: AUG-CC-PVTZ-RI
    Molecular point group: c1

    Geometry (in Angstrom), charge = 0, multiplicity = 1:

       Center              X                  Y                   Z               Mass
    ------------   -----------------  -----------------  -----------------  -----------------
         O            0.198410397940     2.668707003511    -0.007676278402    15.994914619570
         C            0.230945397940     1.444221003511     0.005105721598    12.000000000000
         N            1.487962397940     0.762304003511    -0.004318278402    14.003074004430
         C            1.691621397940    -0.595154996489     0.002699721598    12.000000000000
         N            0.726079397940    -1.481521996489     0.012015721598    14.003074004430
         C           -0.502730602060    -0.885072996489    -0.002808278402    12.000000000000
         C           -0.831550602060     0.469165003511     0.015974721598    12.000000000000
         N           -2.195857602060     0.659048003511     0.014136721598    14.003074004430
         C           -2.686118602060    -0.570691996489     0.001234721598    12.000000000000
         N           -1.708224602060    -1.536624996489    -0.006577278402    14.003074004430
         N            3.011746397940    -1.010660996489    -0.079007278402    14.003074004430
         H            2.285864397940     1.385665003511    -0.103775278402     1.007825032230
         H           -3.738855602060    -0.822152996489    -0.002673278402     1.007825032230
         H           -1.830733302060    -2.545740496489     0.279682221598     1.007825032230
         H            3.084878397940    -2.012336996489     0.068759721598     1.007825032230
         H            3.664221397940    -0.493250996489     0.501194721598     1.007825032230

  Basis Set: AUG-CC-PVTZ
    Blend: AUG-CC-PVTZ
  Basis Set: (AUG-CC-PVTZ AUX)
    Blend: AUG-CC-PVTZ-JKFIT
	 Reference Energy          =    -539.5828268417141089 [Eh]
	 Singles Energy            =      -0.0000000000000000 [Eh]
	 Same-Spin Energy          =      -0.5733065714380818 [Eh]
	 Opposite-Spin Energy      =      -1.6638795250140623 [Eh]
	 Correlation Energy        =      -2.2371860964521444 [Eh]
	 Total Energy              =    -541.8200129381662009 [Eh]

	 ================> DF-SCS-MP2 Energies <==================
	-----------------------------------------------------------
	 SCS Same-Spin Scale       =       0.3333333333333333 [-]
	 SCS Opposite-Spin Scale   =       1.2000000000000000 [-]
	 SCS Same-Spin Energy      =      -0.1911021904793606 [Eh]
	 SCS Opposite-Spin Energy  =      -1.9966554300168746 [Eh]
	 SCS Correlation Energy    =      -2.1877576204962352 [Eh]
	 SCS Total Energy          =    -541.7705844622103086 [Eh]
	-----------------------------------------------------------

  Dipole Moment: [D]
     X:     2.6846      Y:    -5.5813      Z:     1.2846     Total:     6.3252

*** Psi4 exiting successfully. Buy a developer a beer!
