                               Psi4 1.3.2 release

  ==> Input File <==

--------------------------------------------------------------------------
#psi4
#
memory 32 gb

molecule  {
0 1
  O        0.1763910     2.6970700    -0.0085580
  C        0.2089260     1.4725840     0.0042240
  N        1.4659430     0.7906670    -0.0052000
  C        1.6696020    -0.5667920     0.0018180
  N        0.7040600    -1.4531590     0.0111340
  C       -0.5247500    -0.8567100    -0.0036900
  C       -0.8535700     0.4975280     0.0150930
  N       -2.2178770     0.6874110     0.0132550
  C       -2.7081380    -0.5423290     0.0003530
  N       -1.7302440    -1.5082620    -0.0074590
  N        2.9897270    -0.9822980    -0.0798890
  H        2.2638450     1.4140280    -0.1046570
  H       -3.7605720    -0.7918360    -0.2035452
  H       -1.8528420    -2.5141400    -0.0211820
  H        3.0628590    -1.9839740     0.0678780
  H        3.6422020    -0.4648880     0.5003130
units angstrom
no_reorient  #important for SAPT in psi4, default
symmetry c1  #important for SAPT in psi4, default
}

set PROPERTIES_ORIGIN ["COM"]
properties('MP2/aug-cc-pvtz', properties = ['dipole'])
--------------------------------------------------------------------------

    Molecular point group: c1
  Charge       = 0
  Multiplicity = 1
  Basis Set: AUG-CC-PVTZ
    Blend: AUG-CC-PVTZ
  Basis Set: (AUG-CC-PVTZ AUX)
    Blend: AUG-CC-PVTZ-JKFIT

    Orbital Energies [Eh]
    ---------------------

    Doubly Occupied:

       1A    -20.524702     2A    -15.636106     3A    -15.632219
       4A    -15.612563     5A    -15.573792     6A    -15.565898
       7A    -11.398893     8A    -11.368305     9A    -11.327944
      10A    -11.315505    11A    -11.251845    12A     -1.393813
      13A     -1.361115    14A     -1.336068    15A     -1.221015
      16A     -1.218567    17A     -1.178456    18A     -1.031168
      19A     -0.906378    20A     -0.885277    21A     -0.844368
      22A     -0.798456    23A     -0.740314    24A     -0.729700
      25A     -0.700503    26A     -0.673274    27A     -0.655005
      28A     -0.635021    29A     -0.615215    30A     -0.605063
      31A     -0.589031    32A     -0.548153    33A     -0.499899
      34A     -0.463054    35A     -0.443314    36A     -0.433759
      37A     -0.432457    38A     -0.412320    39A     -0.303082

  @DF-RHF Final Energy:  -539.58515326192321

   => Energetics <=

    Nuclear Repulsion Energy =            593.5839627527834637
    One-Electron Energy =               -1912.6149980752545616
    Two-Electron Energy =                 779.4458820605478877
    Total Energy =                       -539.5851532619232103
  Basis Set: (AUG-CC-PVTZ AUX)
    Blend: AUG-CC-PVTZ-RI
    Molecular point group: c1

    Geometry (in Angstrom), charge = 0, multiplicity = 1:

       Center              X                  Y                   Z               Mass
    ------------   -----------------  -----------------  -----------------  -----------------
         O            0.198408972101     2.668672365020    -0.004340383193    15.994914619570
         C            0.230943972101     1.444186365020     0.008441616807    12.000000000000
         N            1.487960972101     0.762269365020    -0.000982383193    14.003074004430
         C            1.691619972101    -0.595189634980     0.006035616807    12.000000000000
         N            0.726077972101    -1.481556634980     0.015351616807    14.003074004430
         C           -0.502732027899    -0.885107634980     0.000527616807    12.000000000000
         C           -0.831552027899     0.469130365020     0.019310616807    12.000000000000
         N           -2.195859027899     0.659013365020     0.017472616807    14.003074004430
         C           -2.686120027899    -0.570726634980     0.004570616807    12.000000000000
         N           -1.708226027899    -1.536659634980    -0.003241383193    14.003074004430
         N            3.011744972101    -1.010695634980    -0.075671383193    14.003074004430
         H            2.285862972101     1.385630365020    -0.100439383193     1.007825032230
         H           -3.738554027899    -0.820233634980    -0.199327583193     1.007825032230
         H           -1.830824027899    -2.542537634980    -0.016964383193     1.007825032230
         H            3.084876972101    -2.012371634980     0.072095616807     1.007825032230
         H            3.664219972101    -0.493285634980     0.504530616807     1.007825032230

  Basis Set: AUG-CC-PVTZ
    Blend: AUG-CC-PVTZ
  Basis Set: (AUG-CC-PVTZ AUX)
    Blend: AUG-CC-PVTZ-JKFIT
	 Reference Energy          =    -539.5851532619232103 [Eh]
	 Singles Energy            =      -0.0000000000000000 [Eh]
	 Same-Spin Energy          =      -0.5732002890038450 [Eh]
	 Opposite-Spin Energy      =      -1.6635227900772049 [Eh]
	 Correlation Energy        =      -2.2367230790810497 [Eh]
	 Total Energy              =    -541.8218763410042129 [Eh]

	 ================> DF-SCS-MP2 Energies <==================
	-----------------------------------------------------------
	 SCS Same-Spin Scale       =       0.3333333333333333 [-]
	 SCS Opposite-Spin Scale   =       1.2000000000000000 [-]
	 SCS Same-Spin Energy      =      -0.1910667630012817 [Eh]
	 SCS Opposite-Spin Energy  =      -1.9962273480926458 [Eh]
	 SCS Correlation Energy    =      -2.1872941110939275 [Eh]
	 SCS Total Energy          =    -541.7724473730171439 [Eh]
	-----------------------------------------------------------

  Dipole Moment: [D]
     X:     2.7120      Y:    -5.6154      Z:     0.7002     Total:     6.2752

*** Psi4 exiting successfully. Buy a developer a beer!
