                               Psi4 1.3.2 release

  ==> Input File <==

--------------------------------------------------------------------------
#psi4
#
memory 32 gb

molecule  {
0 1
  O        0.1763910     2.6970700    -0.0085580
  C        0.2089260     1.4725840     0.0042240
  N        1.4659430     0.7906670    -0.0052000
  C        1.6696020    -0.5667920     0.0018180
  N        0.7040600    -1.4531590     0.0111340
  C       -0.5247500    -0.8567100    -0.0036900
  C       -0.8535700     0.4975280     0.0150930
  N       -2.2178770     0.6874110     0.0132550
  C       -2.7081380    -0.5423290     0.0003530
  N       -1.7302440    -1.5082620    -0.0074590
  N        2.9897270    -0.9822980    -0.0798890
  H        2.2638450     1.4140280    -0.1046570
  H       -3.7606477    -0.7923245    -0.1535477
  H       -1.8528420    -2.5141400    -0.0211820
  H        3.0628590    -1.9839740     0.0678780
  H        3.6422020    -0.4648880     0.5003130
units angstrom
no_reorient  #important for SAPT in psi4, default
symmetry c1  #important for SAPT in psi4, default
}

set PROPERTIES_ORIGIN ["COM"]
properties('MP2/aug-cc-pvtz', properties = ['dipole'])
--------------------------------------------------------------------------

    Molecular point group: c1
  Charge       = 0
  Multiplicity = 1
  Basis Set: AUG-CC-PVTZ
    Blend: AUG-CC-PVTZ
  Basis Set: (AUG-CC-PVTZ AUX)
    Blend: AUG-CC-PVTZ-JKFIT

    Orbital Energies [Eh]
    ---------------------

    Doubly Occupied:

       1A    -20.524575     2A    -15.636162     3A    -15.632122
       4A    -15.612481     5A    -15.573714     6A    -15.565651
       7A    -11.398770     8A    -11.368185     9A    -11.327794
      10A    -11.314993    11A    -11.251688    12A     -1.393706
      13A     -1.361053    14A     -1.335985    15A     -1.220922
      16A     -1.218467    17A     -1.178377    18A     -1.031255
      19A     -0.906587    20A     -0.885266    21A     -0.844635
      22A     -0.798762    23A     -0.740331    24A     -0.729985
      25A     -0.700616    26A     -0.673223    27A     -0.655269
      28A     -0.634839    29A     -0.615056    30A     -0.604382
      31A     -0.591339    32A     -0.548057    33A     -0.499837
      34A     -0.462916    35A     -0.443247    36A     -0.433562
      37A     -0.432484    38A     -0.412288    39A     -0.303009

  @DF-RHF Final Energy:  -539.58625683711205

   => Energetics <=

    Nuclear Repulsion Energy =            593.6147167533104039
    One-Electron Energy =               -1912.6787710742810305
    Two-Electron Energy =                 779.4777974838585806
    Total Energy =                       -539.5862568371120460
  Basis Set: (AUG-CC-PVTZ AUX)
    Blend: AUG-CC-PVTZ-RI
    Molecular point group: c1

    Geometry (in Angstrom), charge = 0, multiplicity = 1:

       Center              X                  Y                   Z               Mass
    ------------   -----------------  -----------------  -----------------  -----------------
         O            0.198409477183     2.668675624368    -0.004673974248    15.994914619570
         C            0.230944477183     1.444189624368     0.008108025752    12.000000000000
         N            1.487961477183     0.762272624368    -0.001315974248    14.003074004430
         C            1.691620477183    -0.595186375632     0.005702025752    12.000000000000
         N            0.726078477183    -1.481553375632     0.015018025752    14.003074004430
         C           -0.502731522817    -0.885104375632     0.000194025752    12.000000000000
         C           -0.831551522817     0.469133624368     0.018977025752    12.000000000000
         N           -2.195858522817     0.659016624368     0.017139025752    14.003074004430
         C           -2.686119522817    -0.570723375632     0.004237025752    12.000000000000
         N           -1.708225522817    -1.536656375632    -0.003574974248    14.003074004430
         N            3.011745477183    -1.010692375632    -0.076004974248    14.003074004430
         H            2.285863477183     1.385633624368    -0.100772974248     1.007825032230
         H           -3.738629222817    -0.820718875632    -0.149663674248     1.007825032230
         H           -1.830823522817    -2.542534375632    -0.017297974248     1.007825032230
         H            3.084877477183    -2.012368375632     0.071762025752     1.007825032230
         H            3.664220477183    -0.493282375632     0.504197025752     1.007825032230

  Basis Set: AUG-CC-PVTZ
    Blend: AUG-CC-PVTZ
  Basis Set: (AUG-CC-PVTZ AUX)
    Blend: AUG-CC-PVTZ-JKFIT
	 Reference Energy          =    -539.5862568371120460 [Eh]
	 Singles Energy            =      -0.0000000000000000 [Eh]
	 Same-Spin Energy          =      -0.5731271053570015 [Eh]
	 Opposite-Spin Energy      =      -1.6633752466341956 [Eh]
	 Correlation Energy        =      -2.2365023519911968 [Eh]
	 Total Energy              =    -541.8227591891032944 [Eh]

	 ================> DF-SCS-MP2 Energies <==================
	-----------------------------------------------------------
	 SCS Same-Spin Scale       =       0.3333333333333333 [-]
	 SCS Opposite-Spin Scale   =       1.2000000000000000 [-]
	 SCS Same-Spin Energy      =      -0.1910423684523338 [Eh]
	 SCS Opposite-Spin Energy  =      -1.9960502959610347 [Eh]
	 SCS Correlation Energy    =      -2.1870926644133686 [Eh]
	 SCS Total Energy          =    -541.7733495015254448 [Eh]
	-----------------------------------------------------------

  Dipole Moment: [D]
     X:     2.6928      Y:    -5.6234      Z:     0.7358     Total:     6.2782

*** Psi4 exiting successfully. Buy a developer a beer!
