                               Psi4 1.3.2 release

  ==> Input File <==

--------------------------------------------------------------------------
#psi4
#
memory 32 gb

molecule  {
0 1
  O        0.1763910     2.6970700    -0.0085580
  C        0.2089260     1.4725840     0.0042240
  N        1.4659430     0.7906670    -0.0052000
  C        1.6696020    -0.5667920     0.0018180
  N        0.7040600    -1.4531590     0.0111340
  C       -0.5247500    -0.8567100    -0.0036900
  C       -0.8535700     0.4975280     0.0150930
  N       -2.2178770     0.6874110     0.0132550
  C       -2.7081380    -0.5423290     0.0003530
  N       -1.7302440    -1.5082620    -0.0074590
  N        2.9897270    -0.9822980    -0.0798890
  H        2.2746327     1.4215191     0.0949113
  H       -3.7608750    -0.7937900    -0.0035550
  H       -1.8528420    -2.5141400    -0.0211820
  H        3.0628590    -1.9839740     0.0678780
  H        3.6422020    -0.4648880     0.5003130
units angstrom
no_reorient  #important for SAPT in psi4, default
symmetry c1  #important for SAPT in psi4, default
}

set PROPERTIES_ORIGIN ["COM"]
properties('MP2/aug-cc-pvtz', properties = ['dipole'])
--------------------------------------------------------------------------

    Molecular point group: c1
  Charge       = 0
  Multiplicity = 1
  Basis Set: AUG-CC-PVTZ
    Blend: AUG-CC-PVTZ
  Basis Set: (AUG-CC-PVTZ AUX)
    Blend: AUG-CC-PVTZ-JKFIT

    Orbital Energies [Eh]
    ---------------------

    Doubly Occupied:

       1A    -20.524356     2A    -15.636217     3A    -15.633127
       4A    -15.612451     5A    -15.573619     6A    -15.565301
       7A    -11.398518     8A    -11.367986     9A    -11.327568
      10A    -11.314298    11A    -11.251472    12A     -1.393268
      13A     -1.360926    14A     -1.335673    15A     -1.220446
      16A     -1.217788    17A     -1.178070    18A     -1.031286
      19A     -0.906396    20A     -0.884745    21A     -0.844900
      22A     -0.798665    23A     -0.738489    24A     -0.730003
      25A     -0.699889    26A     -0.673234    27A     -0.658471
      28A     -0.632698    29A     -0.614605    30A     -0.600649
      31A     -0.595670    32A     -0.548237    33A     -0.499971
      34A     -0.462410    35A     -0.443185    36A     -0.434461
      37A     -0.430974    38A     -0.412198    39A     -0.302892

  @DF-RHF Final Energy:  -539.58605357268539

   => Energetics <=

    Nuclear Repulsion Energy =            593.5721280302839205
    One-Electron Energy =               -1912.6061451880502773
    Two-Electron Energy =                 779.4479635850809700
    Total Energy =                       -539.5860535726853868
  Basis Set: (AUG-CC-PVTZ AUX)
    Blend: AUG-CC-PVTZ-RI
    Molecular point group: c1

    Geometry (in Angstrom), charge = 0, multiplicity = 1:

       Center              X                  Y                   Z               Mass
    ------------   -----------------  -----------------  -----------------  -----------------
         O            0.198339016560     2.668635420632    -0.007006299324    15.994914619570
         C            0.230874016560     1.444149420632     0.005775700676    12.000000000000
         N            1.487891016560     0.762232420632    -0.003648299324    14.003074004430
         C            1.691550016560    -0.595226579368     0.003369700676    12.000000000000
         N            0.726008016560    -1.481593579368     0.012685700676    14.003074004430
         C           -0.502801983440    -0.885144579368    -0.002138299324    12.000000000000
         C           -0.831621983440     0.469093420632     0.016644700676    12.000000000000
         N           -2.195928983440     0.658976420632     0.014806700676    14.003074004430
         C           -2.686189983440    -0.570763579368     0.001904700676    12.000000000000
         N           -1.708295983440    -1.536696579368    -0.005907299324    14.003074004430
         N            3.011675016560    -1.010732579368    -0.078337299324    14.003074004430
         H            2.296580716560     1.393084520632     0.096463000676     1.007825032230
         H           -3.738926983440    -0.822224579368    -0.002003299324     1.007825032230
         H           -1.830893983440    -2.542574579368    -0.019630299324     1.007825032230
         H            3.084807016560    -2.012408579368     0.069429700676     1.007825032230
         H            3.664150016560    -0.493322579368     0.501864700676     1.007825032230

  Basis Set: AUG-CC-PVTZ
    Blend: AUG-CC-PVTZ
  Basis Set: (AUG-CC-PVTZ AUX)
    Blend: AUG-CC-PVTZ-JKFIT
	 Reference Energy          =    -539.5860535726853868 [Eh]
	 Singles Energy            =      -0.0000000000000000 [Eh]
	 Same-Spin Energy          =      -0.5731475435045450 [Eh]
	 Opposite-Spin Energy      =      -1.6634775187447546 [Eh]
	 Correlation Energy        =      -2.2366250622492996 [Eh]
	 Total Energy              =    -541.8226786349347321 [Eh]

	 ================> DF-SCS-MP2 Energies <==================
	-----------------------------------------------------------
	 SCS Same-Spin Scale       =       0.3333333333333333 [-]
	 SCS Opposite-Spin Scale   =       1.2000000000000000 [-]
	 SCS Same-Spin Energy      =      -0.1910491811681816 [Eh]
	 SCS Opposite-Spin Energy  =      -1.9961730224937053 [Eh]
	 SCS Correlation Energy    =      -2.1872222036618871 [Eh]
	 SCS Total Energy          =    -541.7732757763473046 [Eh]
	-----------------------------------------------------------

  Dipole Moment: [D]
     X:     2.6769      Y:    -5.6275      Z:     1.1031     Total:     6.3286

*** Psi4 exiting successfully. Buy a developer a beer!
