                               Psi4 1.3.2 release

  ==> Input File <==

--------------------------------------------------------------------------
#psi4
#
memory 32 gb

molecule  {
0 1
  O        0.1763910     2.6970700    -0.0085580
  C        0.2089260     1.4725840     0.0042240
  N        1.4659430     0.7906670    -0.0052000
  C        1.6696020    -0.5667920     0.0018180
  N        0.7040600    -1.4531590     0.0111340
  C       -0.5247500    -0.8567100    -0.0036900
  C       -0.8535700     0.4975280     0.0150930
  N       -2.2178770     0.6874110     0.0132550
  C       -2.7081380    -0.5423290     0.0003530
  N       -1.7302440    -1.5082620    -0.0074590
  N        2.9897270    -0.9822980    -0.0798890
  H        2.2692388     1.4177736    -0.0048728
  H       -3.7608750    -0.7937900    -0.0035550
  H       -1.8528420    -2.5141400    -0.0211820
  H        3.0628590    -1.9839740     0.0678780
  H        3.6422020    -0.4648880     0.5003130
units angstrom
no_reorient  #important for SAPT in psi4, default
symmetry c1  #important for SAPT in psi4, default
}

set PROPERTIES_ORIGIN ["COM"]
properties('MP2/aug-cc-pvtz', properties = ['dipole'])
--------------------------------------------------------------------------

    Molecular point group: c1
  Charge       = 0
  Multiplicity = 1
  Basis Set: AUG-CC-PVTZ
    Blend: AUG-CC-PVTZ
  Basis Set: (AUG-CC-PVTZ AUX)
    Blend: AUG-CC-PVTZ-JKFIT

    Orbital Energies [Eh]
    ---------------------

    Doubly Occupied:

       1A    -20.524355     2A    -15.636206     3A    -15.632336
       4A    -15.612452     5A    -15.573592     6A    -15.565302
       7A    -11.398624     8A    -11.368050     9A    -11.327563
      10A    -11.314306    11A    -11.251477    12A     -1.393519
      13A     -1.360946    14A     -1.335858    15A     -1.220783
      16A     -1.218291    17A     -1.178238    18A     -1.031363
      19A     -0.906871    20A     -0.885285    21A     -0.844966
      22A     -0.799095    23A     -0.740337    24A     -0.730250
      25A     -0.700365    26A     -0.673237    27A     -0.657459
      28A     -0.633422    29A     -0.614633    30A     -0.600556
      31A     -0.596974    32A     -0.548116    33A     -0.499919
      34A     -0.462524    35A     -0.443216    36A     -0.433616
      37A     -0.431974    38A     -0.412218    39A     -0.302907

  @DF-RHF Final Energy:  -539.58733402504356

   => Energetics <=

    Nuclear Repulsion Energy =            593.6387529605067357
    One-Electron Energy =               -1912.7297775315810213
    Two-Electron Energy =                 779.5036905460307253
    Total Energy =                       -539.5873340250435604
  Basis Set: (AUG-CC-PVTZ AUX)
    Blend: AUG-CC-PVTZ-RI
    Molecular point group: c1

    Geometry (in Angstrom), charge = 0, multiplicity = 1:

       Center              X                  Y                   Z               Mass
    ------------   -----------------  -----------------  -----------------  -----------------
         O            0.198375005495     2.668660411188    -0.006340524370    15.994914619570
         C            0.230910005495     1.444174411188     0.006441475630    12.000000000000
         N            1.487927005495     0.762257411188    -0.002982524370    14.003074004430
         C            1.691586005495    -0.595201588812     0.004035475630    12.000000000000
         N            0.726044005495    -1.481568588812     0.013351475630    14.003074004430
         C           -0.502765994505    -0.885119588812    -0.001472524370    12.000000000000
         C           -0.831585994505     0.469118411188     0.017310475630    12.000000000000
         N           -2.195892994505     0.659001411188     0.015472475630    14.003074004430
         C           -2.686153994505    -0.570738588812     0.002570475630    12.000000000000
         N           -1.708259994505    -1.536671588812    -0.005241524370    14.003074004430
         N            3.011711005495    -1.010707588812    -0.077671524370    14.003074004430
         H            2.291222805495     1.389364011188    -0.002655324370     1.007825032230
         H           -3.738890994505    -0.822199588812    -0.001337524370     1.007825032230
         H           -1.830857994505    -2.542549588812    -0.018964524370     1.007825032230
         H            3.084843005495    -2.012383588812     0.070095475630     1.007825032230
         H            3.664186005495    -0.493297588812     0.502530475630     1.007825032230

  Basis Set: AUG-CC-PVTZ
    Blend: AUG-CC-PVTZ
  Basis Set: (AUG-CC-PVTZ AUX)
    Blend: AUG-CC-PVTZ-JKFIT
	 Reference Energy          =    -539.5873340250435604 [Eh]
	 Singles Energy            =      -0.0000000000000000 [Eh]
	 Same-Spin Energy          =      -0.5730481747063998 [Eh]
	 Opposite-Spin Energy      =      -1.6632405649315349 [Eh]
	 Correlation Energy        =      -2.2362887396379350 [Eh]
	 Total Energy              =    -541.8236227646815450 [Eh]

	 ================> DF-SCS-MP2 Energies <==================
	-----------------------------------------------------------
	 SCS Same-Spin Scale       =       0.3333333333333333 [-]
	 SCS Opposite-Spin Scale   =       1.2000000000000000 [-]
	 SCS Same-Spin Energy      =      -0.1910160582354666 [Eh]
	 SCS Opposite-Spin Energy  =      -1.9958886779178417 [Eh]
	 SCS Correlation Energy    =      -2.1869047361533083 [Eh]
	 SCS Total Energy          =    -541.7742387611968979 [Eh]
	-----------------------------------------------------------

  Dipole Moment: [D]
     X:     2.6772      Y:    -5.6296      Z:     0.9739     Total:     6.3093

*** Psi4 exiting successfully. Buy a developer a beer!
