                               Psi4 1.3.2 release

  ==> Input File <==

--------------------------------------------------------------------------
#psi4
#
memory 32 gb

molecule  {
0 1
  O        0.1763910     2.6970700    -0.0085580
  C        0.2089260     1.4725840     0.0042240
  N        1.4659430     0.7906670    -0.0052000
  C        1.6696020    -0.5667920     0.0018180
  N        0.7040600    -1.4531590     0.0111340
  C       -0.5247500    -0.8567100    -0.0036900
  C       -0.8535700     0.4975280     0.0150930
  N       -2.2178770     0.6874110     0.0132550
  C       -2.7081380    -0.5423290     0.0003530
  N       -1.7302440    -1.5082620    -0.0074590
  N        2.9897270    -0.9822980    -0.0798890
  H        2.2638450     1.4140280    -0.1046570
  H       -3.7608750    -0.7937900    -0.0035550
  H       -1.8528420    -2.5141400    -0.0211820
  H        3.0628590    -1.9839740     0.0678780
  H        3.5726237    -0.5199330     0.7868944
units angstrom
no_reorient  #important for SAPT in psi4, default
symmetry c1  #important for SAPT in psi4, default
}

set PROPERTIES_ORIGIN ["COM"]
properties('MP2/aug-cc-pvtz', properties = ['dipole'])
--------------------------------------------------------------------------

    Molecular point group: c1
  Charge       = 0
  Multiplicity = 1
  Basis Set: AUG-CC-PVTZ
    Blend: AUG-CC-PVTZ
  Basis Set: (AUG-CC-PVTZ AUX)
    Blend: AUG-CC-PVTZ-JKFIT

    Orbital Energies [Eh]
    ---------------------

    Doubly Occupied:

       1A    -20.525023     2A    -15.637666     3A    -15.632230
       4A    -15.622411     5A    -15.576570     6A    -15.566619
       7A    -11.396949     8A    -11.368649     9A    -11.328220
      10A    -11.315921    11A    -11.253536    12A     -1.394052
      13A     -1.362092    14A     -1.335210    15A     -1.219750
      16A     -1.211847    17A     -1.179317    18A     -1.030677
      19A     -0.907597    20A     -0.881892    21A     -0.846250
      22A     -0.792496    23A     -0.740277    24A     -0.724668
      25A     -0.687747    26A     -0.668093    27A     -0.652571
      28A     -0.627983    29A     -0.615066    30A     -0.602293
      31A     -0.591942    32A     -0.546816    33A     -0.501197
      34A     -0.468743    35A     -0.444305    36A     -0.434021
      37A     -0.433151    38A     -0.413384    39A     -0.305309

  @DF-RHF Final Energy:  -539.57180809621821

   => Energetics <=

    Nuclear Repulsion Energy =            593.2165414223311473
    One-Electron Energy =               -1911.8916225691700674
    Two-Electron Energy =                 779.1032730506207145
    Total Energy =                       -539.5718080962182057
  Basis Set: (AUG-CC-PVTZ AUX)
    Blend: AUG-CC-PVTZ-RI
    Molecular point group: c1

    Geometry (in Angstrom), charge = 0, multiplicity = 1:

       Center              X                  Y                   Z               Mass
    ------------   -----------------  -----------------  -----------------  -----------------
         O            0.198875230946     2.669052671167    -0.007586864189    15.994914619570
         C            0.231410230946     1.444566671167     0.005195135811    12.000000000000
         N            1.488427230946     0.762649671167    -0.004228864189    14.003074004430
         C            1.692086230946    -0.594809328833     0.002789135811    12.000000000000
         N            0.726544230946    -1.481176328833     0.012105135811    14.003074004430
         C           -0.502265769054    -0.884727328833    -0.002718864189    12.000000000000
         C           -0.831085769054     0.469510671167     0.016064135811    12.000000000000
         N           -2.195392769054     0.659393671167     0.014226135811    14.003074004430
         C           -2.685653769054    -0.570346328833     0.001324135811    12.000000000000
         N           -1.707759769054    -1.536279328833    -0.006487864189    14.003074004430
         N            3.012211230946    -1.010315328833    -0.078917864189    14.003074004430
         H            2.286329230946     1.386010671167    -0.103685864189     1.007825032230
         H           -3.738390769054    -0.821807328833    -0.002583864189     1.007825032230
         H           -1.830357769054    -2.542157328833    -0.020210864189     1.007825032230
         H            3.085343230946    -2.011991328833     0.068849135811     1.007825032230
         H            3.595107930946    -0.547950328833     0.787865535811     1.007825032230

  Basis Set: AUG-CC-PVTZ
    Blend: AUG-CC-PVTZ
  Basis Set: (AUG-CC-PVTZ AUX)
    Blend: AUG-CC-PVTZ-JKFIT
	 Reference Energy          =    -539.5718080962182057 [Eh]
	 Singles Energy            =      -0.0000000000000000 [Eh]
	 Same-Spin Energy          =      -0.5738991950125503 [Eh]
	 Opposite-Spin Energy      =      -1.6660050057427056 [Eh]
	 Correlation Energy        =      -2.2399042007552561 [Eh]
	 Total Energy              =    -541.8117122969734964 [Eh]

	 ================> DF-SCS-MP2 Energies <==================
	-----------------------------------------------------------
	 SCS Same-Spin Scale       =       0.3333333333333333 [-]
	 SCS Opposite-Spin Scale   =       1.2000000000000000 [-]
	 SCS Same-Spin Energy      =      -0.1912997316708501 [Eh]
	 SCS Opposite-Spin Energy  =      -1.9992060068912467 [Eh]
	 SCS Correlation Energy    =      -2.1905057385620967 [Eh]
	 SCS Total Energy          =    -541.7623138347803433 [Eh]
	-----------------------------------------------------------

  Dipole Moment: [D]
     X:     2.2478      Y:    -5.7247      Z:     1.0953     Total:     6.2469

*** Psi4 exiting successfully. Buy a developer a beer!
