                               Psi4 1.3.2 release

  ==> Input File <==

--------------------------------------------------------------------------
#psi4
#
memory 32 gb

molecule  {
0 1
  O        0.1763910     2.6970700    -0.0085580
  C        0.2089260     1.4725840     0.0042240
  N        1.4659430     0.7906670    -0.0052000
  C        1.6696020    -0.5667920     0.0018180
  N        0.7040600    -1.4531590     0.0111340
  C       -0.5247500    -0.8567100    -0.0036900
  C       -0.8535700     0.4975280     0.0150930
  N       -2.2178770     0.6874110     0.0132550
  C       -2.7081380    -0.5423290     0.0003530
  N       -1.7302440    -1.5082620    -0.0074590
  N        2.9897270    -0.9822980    -0.0798890
  H        2.2638450     1.4140280    -0.1046570
  H       -3.7607235    -0.7928130    -0.1035501
  H       -1.8528420    -2.5141400    -0.0211820
  H        3.0628590    -1.9839740     0.0678780
  H        3.6422020    -0.4648880     0.5003130
units angstrom
no_reorient  #important for SAPT in psi4, default
symmetry c1  #important for SAPT in psi4, default
}

set PROPERTIES_ORIGIN ["COM"]
properties('MP2/aug-cc-pvtz', properties = ['dipole'])
--------------------------------------------------------------------------

    Molecular point group: c1
  Charge       = 0
  Multiplicity = 1
  Basis Set: AUG-CC-PVTZ
    Blend: AUG-CC-PVTZ
  Basis Set: (AUG-CC-PVTZ AUX)
    Blend: AUG-CC-PVTZ-JKFIT

    Orbital Energies [Eh]
    ---------------------

    Doubly Occupied:

       1A    -20.524485     2A    -15.636205     3A    -15.632053
       4A    -15.612423     5A    -15.573658     6A    -15.565471
       7A    -11.398681     8A    -11.368098     9A    -11.327685
      10A    -11.314624    11A    -11.251574    12A     -1.393629
      13A     -1.361009    14A     -1.335925    15A     -1.220855
      16A     -1.218395    17A     -1.178320    18A     -1.031321
      19A     -0.906746    20A     -0.885260    21A     -0.844833
      22A     -0.798990    23A     -0.740346    24A     -0.730187
      25A     -0.700686    26A     -0.673193    27A     -0.655592
      28A     -0.634568    29A     -0.614910    30A     -0.603562
      31A     -0.593378    32A     -0.547989    33A     -0.499800
      34A     -0.462790    35A     -0.443211    36A     -0.433392
      37A     -0.432524    38A     -0.412265    39A     -0.302959

  @DF-RHF Final Energy:  -539.58700851439903

   => Energetics <=

    Nuclear Repulsion Energy =            593.6369476129158329
    One-Electron Energy =               -1912.7247328836504039
    Two-Electron Energy =                 779.5007767563354264
    Total Energy =                       -539.5870085143990309
  Basis Set: (AUG-CC-PVTZ AUX)
    Blend: AUG-CC-PVTZ-RI
    Molecular point group: c1

    Geometry (in Angstrom), charge = 0, multiplicity = 1:

       Center              X                  Y                   Z               Mass
    ------------   -----------------  -----------------  -----------------  -----------------
         O            0.198409982932     2.668678883715    -0.005007565971    15.994914619570
         C            0.230944982932     1.444192883715     0.007774434029    12.000000000000
         N            1.487961982932     0.762275883715    -0.001649565971    14.003074004430
         C            1.691620982932    -0.595183116285     0.005368434029    12.000000000000
         N            0.726078982932    -1.481550116285     0.014684434029    14.003074004430
         C           -0.502731017068    -0.885101116285    -0.000139565971    12.000000000000
         C           -0.831551017068     0.469136883715     0.018643434029    12.000000000000
         N           -2.195858017068     0.659019883715     0.016805434029    14.003074004430
         C           -2.686119017068    -0.570720116285     0.003903434029    12.000000000000
         N           -1.708225017068    -1.536653116285    -0.003908565971    14.003074004430
         N            3.011745982932    -1.010689116285    -0.076338565971    14.003074004430
         H            2.285863982932     1.385636883715    -0.101106565971     1.007825032230
         H           -3.738704517068    -0.821204116285    -0.099999665971     1.007825032230
         H           -1.830823017068    -2.542531116285    -0.017631565971     1.007825032230
         H            3.084877982932    -2.012365116285     0.071428434029     1.007825032230
         H            3.664220982932    -0.493279116285     0.503863434029     1.007825032230

  Basis Set: AUG-CC-PVTZ
    Blend: AUG-CC-PVTZ
  Basis Set: (AUG-CC-PVTZ AUX)
    Blend: AUG-CC-PVTZ-JKFIT
	 Reference Energy          =    -539.5870085143990309 [Eh]
	 Singles Energy            =      -0.0000000000000000 [Eh]
	 Same-Spin Energy          =      -0.5730747784922330 [Eh]
	 Opposite-Spin Energy      =      -1.6632751155592715 [Eh]
	 Correlation Energy        =      -2.2363498940515045 [Eh]
	 Total Energy              =    -541.8233584084505310 [Eh]

	 ================> DF-SCS-MP2 Energies <==================
	-----------------------------------------------------------
	 SCS Same-Spin Scale       =       0.3333333333333333 [-]
	 SCS Opposite-Spin Scale   =       1.2000000000000000 [-]
	 SCS Same-Spin Energy      =      -0.1910249261640777 [Eh]
	 SCS Opposite-Spin Energy  =      -1.9959301386711257 [Eh]
	 SCS Correlation Energy    =      -2.1869550648352032 [Eh]
	 SCS Total Energy          =    -541.7739635792341915 [Eh]
	-----------------------------------------------------------

  Dipole Moment: [D]
     X:     2.6790      Y:    -5.6293      Z:     0.7717     Total:     6.2819

*** Psi4 exiting successfully. Buy a developer a beer!
