                               Psi4 1.3.2 release

  ==> Input File <==

--------------------------------------------------------------------------
#psi4
#
memory 32 gb

molecule  {
0 1
  O        0.1763910     2.6970700    -0.0085580
  C        0.2089260     1.4725840     0.0042240
  N        1.4659430     0.7906670    -0.0052000
  C        1.6696020    -0.5667920     0.0018180
  N        0.7040600    -1.4531590     0.0111340
  C       -0.5247500    -0.8567100    -0.0036900
  C       -0.8535700     0.4975280     0.0150930
  N       -2.2192189     0.6886830    -0.2367382
  C       -2.7081380    -0.5423290     0.0003530
  N       -1.7302440    -1.5082620    -0.0074590
  N        2.9897270    -0.9822980    -0.0798890
  H        2.2638450     1.4140280    -0.1046570
  H       -3.7608750    -0.7937900    -0.0035550
  H       -1.8528420    -2.5141400    -0.0211820
  H        3.0628590    -1.9839740     0.0678780
  H        3.6422020    -0.4648880     0.5003130
units angstrom
no_reorient  #important for SAPT in psi4, default
symmetry c1  #important for SAPT in psi4, default
}

set PROPERTIES_ORIGIN ["COM"]
properties('MP2/aug-cc-pvtz', properties = ['dipole'])
--------------------------------------------------------------------------

    Molecular point group: c1
  Charge       = 0
  Multiplicity = 1
  Basis Set: AUG-CC-PVTZ
    Blend: AUG-CC-PVTZ
  Basis Set: (AUG-CC-PVTZ AUX)
    Blend: AUG-CC-PVTZ-JKFIT

    Orbital Energies [Eh]
    ---------------------

    Doubly Occupied:

       1A    -20.524418     2A    -15.636979     3A    -15.632021
       4A    -15.612638     5A    -15.574156     6A    -15.570079
       7A    -11.398936     8A    -11.367712     9A    -11.328657
      10A    -11.318973    11A    -11.252849    12A     -1.393162
      13A     -1.359385    14A     -1.334801    15A     -1.220934
      16A     -1.216765    17A     -1.173011    18A     -1.030113
      19A     -0.906985    20A     -0.884317    21A     -0.844241
      22A     -0.799050    23A     -0.738617    24A     -0.728470
      25A     -0.700905    26A     -0.672882    27A     -0.657904
      28A     -0.630828    29A     -0.614112    30A     -0.598479
      31A     -0.592131    32A     -0.547395    33A     -0.501777
      34A     -0.461636    35A     -0.446142    36A     -0.437022
      37A     -0.429924    38A     -0.405008    39A     -0.301592

  @DF-RHF Final Energy:  -539.57218961117110

   => Energetics <=

    Nuclear Repulsion Energy =            592.8456899925936341
    One-Electron Energy =               -1911.1457548888784004
    Two-Electron Energy =                 778.7278752851136687
    Total Energy =                       -539.5721896111710976
  Basis Set: (AUG-CC-PVTZ AUX)
    Blend: AUG-CC-PVTZ-RI
    Molecular point group: c1

    Geometry (in Angstrom), charge = 0, multiplicity = 1:

       Center              X                  Y                   Z               Mass
    ------------   -----------------  -----------------  -----------------  -----------------
         O            0.198535394945     2.668567481327     0.017500934524    15.994914619570
         C            0.231070394945     1.444081481327     0.030282934524    12.000000000000
         N            1.488087394945     0.762164481327     0.020858934524    14.003074004430
         C            1.691746394945    -0.595294518673     0.027876934524    12.000000000000
         N            0.726204394945    -1.481661518673     0.037192934524    14.003074004430
         C           -0.502605605055    -0.885212518673     0.022368934524    12.000000000000
         C           -0.831425605055     0.469025481327     0.041151934524    12.000000000000
         N           -2.197074505055     0.660180481327    -0.210679265476    14.003074004430
         C           -2.685993605055    -0.570831518673     0.026411934524    12.000000000000
         N           -1.708099605055    -1.536764518673     0.018599934524    14.003074004430
         N            3.011871394945    -1.010800518673    -0.053830065476    14.003074004430
         H            2.285989394945     1.385525481327    -0.078598065476     1.007825032230
         H           -3.738730605055    -0.822292518673     0.022503934524     1.007825032230
         H           -1.830697605055    -2.542642518673     0.004876934524     1.007825032230
         H            3.085003394945    -2.012476518673     0.093936934524     1.007825032230
         H            3.664346394945    -0.493390518673     0.526371934524     1.007825032230

  Basis Set: AUG-CC-PVTZ
    Blend: AUG-CC-PVTZ
  Basis Set: (AUG-CC-PVTZ AUX)
    Blend: AUG-CC-PVTZ-JKFIT
	 Reference Energy          =    -539.5721896111710976 [Eh]
	 Singles Energy            =      -0.0000000000000000 [Eh]
	 Same-Spin Energy          =      -0.5736989084362816 [Eh]
	 Opposite-Spin Energy      =      -1.6653503236768215 [Eh]
	 Correlation Energy        =      -2.2390492321131030 [Eh]
	 Total Energy              =    -541.8112388432841726 [Eh]

	 ================> DF-SCS-MP2 Energies <==================
	-----------------------------------------------------------
	 SCS Same-Spin Scale       =       0.3333333333333333 [-]
	 SCS Opposite-Spin Scale   =       1.2000000000000000 [-]
	 SCS Same-Spin Energy      =      -0.1912329694787605 [Eh]
	 SCS Opposite-Spin Energy  =      -1.9984203884121856 [Eh]
	 SCS Correlation Energy    =      -2.1896533578909461 [Eh]
	 SCS Total Energy          =    -541.7618429690620587 [Eh]
	-----------------------------------------------------------

  Dipole Moment: [D]
     X:     2.7005      Y:    -5.6379      Z:     1.1624     Total:     6.3584

*** Psi4 exiting successfully. Buy a developer a beer!
