                               Psi4 1.3.2 release

  ==> Input File <==

--------------------------------------------------------------------------
#psi4
#
memory 32 gb

molecule  {
0 1
  O        0.1763910     2.6970700    -0.0085580
  C        0.2089260     1.4725840     0.0042240
  N        1.4659430     0.7906670    -0.0052000
  C        1.6696020    -0.5667920     0.0018180
  N        0.7040600    -1.4531590     0.0111340
  C       -0.5247500    -0.8567100    -0.0036900
  C       -0.8535700     0.4975280     0.0150930
  N       -2.2184137     0.6879198    -0.0867423
  C       -2.7081380    -0.5423290     0.0003530
  N       -1.7302440    -1.5082620    -0.0074590
  N        2.9897270    -0.9822980    -0.0798890
  H        2.2638450     1.4140280    -0.1046570
  H       -3.7608750    -0.7937900    -0.0035550
  H       -1.8528420    -2.5141400    -0.0211820
  H        3.0628590    -1.9839740     0.0678780
  H        3.6422020    -0.4648880     0.5003130
units angstrom
no_reorient  #important for SAPT in psi4, default
symmetry c1  #important for SAPT in psi4, default
}

set PROPERTIES_ORIGIN ["COM"]
properties('MP2/aug-cc-pvtz', properties = ['dipole'])
--------------------------------------------------------------------------

    Molecular point group: c1
  Charge       = 0
  Multiplicity = 1
  Basis Set: AUG-CC-PVTZ
    Blend: AUG-CC-PVTZ
  Basis Set: (AUG-CC-PVTZ AUX)
    Blend: AUG-CC-PVTZ-JKFIT

    Orbital Energies [Eh]
    ---------------------

    Doubly Occupied:

       1A    -20.524437     2A    -15.636293     3A    -15.632014
       4A    -15.612439     5A    -15.573700     6A    -15.566055
       7A    -11.398672     8A    -11.367991     9A    -11.327793
      10A    -11.315009    11A    -11.251713    12A     -1.393506
      13A     -1.360694    14A     -1.335713    15A     -1.220835
      16A     -1.218067    17A     -1.177435    18A     -1.031206
      19A     -0.906881    20A     -0.885108    21A     -0.844757
      22A     -0.799162    23A     -0.740043    24A     -0.729992
      25A     -0.700721    26A     -0.673123    27A     -0.657125
      28A     -0.632723    29A     -0.614490    30A     -0.599409
      31A     -0.597750    32A     -0.547858    33A     -0.500262
      34A     -0.462111    35A     -0.443824    36A     -0.434650
      37A     -0.431588    38A     -0.410798    39A     -0.302815

  @DF-RHF Final Energy:  -539.58517602822428

   => Energetics <=

    Nuclear Repulsion Energy =            593.5248773834672420
    One-Electron Energy =               -1912.5025817762091265
    Two-Electron Energy =                 779.3925283645177160
    Total Energy =                       -539.5851760282242822
  Basis Set: (AUG-CC-PVTZ AUX)
    Blend: AUG-CC-PVTZ-RI
    Molecular point group: c1

    Geometry (in Angstrom), charge = 0, multiplicity = 1:

       Center              X                  Y                   Z               Mass
    ------------   -----------------  -----------------  -----------------  -----------------
         O            0.198460748674     2.668638233977     0.003595526414    15.994914619570
         C            0.230995748674     1.444152233977     0.016377526414    12.000000000000
         N            1.488012748674     0.762235233977     0.006953526414    14.003074004430
         C            1.691671748674    -0.595223766023     0.013971526414    12.000000000000
         N            0.726129748674    -1.481590766023     0.023287526414    14.003074004430
         C           -0.502680251326    -0.885141766023     0.008463526414    12.000000000000
         C           -0.831500251326     0.469096233977     0.027246526414    12.000000000000
         N           -2.196343951326     0.659488033977    -0.074588773586    14.003074004430
         C           -2.686068251326    -0.570760766023     0.012506526414    12.000000000000
         N           -1.708174251326    -1.536693766023     0.004694526414    14.003074004430
         N            3.011796748674    -1.010729766023    -0.067735473586    14.003074004430
         H            2.285914748674     1.385596233977    -0.092503473586     1.007825032230
         H           -3.738805251326    -0.822221766023     0.008598526414     1.007825032230
         H           -1.830772251326    -2.542571766023    -0.009028473586     1.007825032230
         H            3.084928748674    -2.012405766023     0.080031526414     1.007825032230
         H            3.664271748674    -0.493319766023     0.512466526414     1.007825032230

  Basis Set: AUG-CC-PVTZ
    Blend: AUG-CC-PVTZ
  Basis Set: (AUG-CC-PVTZ AUX)
    Blend: AUG-CC-PVTZ-JKFIT
	 Reference Energy          =    -539.5851760282242822 [Eh]
	 Singles Energy            =      -0.0000000000000000 [Eh]
	 Same-Spin Energy          =      -0.5731204875376157 [Eh]
	 Opposite-Spin Energy      =      -1.6634788199306865 [Eh]
	 Correlation Energy        =      -2.2365993074683024 [Eh]
	 Total Energy              =    -541.8217753356925641 [Eh]

	 ================> DF-SCS-MP2 Energies <==================
	-----------------------------------------------------------
	 SCS Same-Spin Scale       =       0.3333333333333333 [-]
	 SCS Opposite-Spin Scale   =       1.2000000000000000 [-]
	 SCS Same-Spin Energy      =      -0.1910401625125386 [Eh]
	 SCS Opposite-Spin Energy  =      -1.9961745839168237 [Eh]
	 SCS Correlation Energy    =      -2.1872147464293623 [Eh]
	 SCS Total Energy          =    -541.7723907746536725 [Eh]
	-----------------------------------------------------------

  Dipole Moment: [D]
     X:     2.6752      Y:    -5.6344      Z:     0.9732     Total:     6.3128

*** Psi4 exiting successfully. Buy a developer a beer!
