                               Psi4 1.3.2 release

  ==> Input File <==

--------------------------------------------------------------------------
#psi4
#
memory 32 gb

molecule  {
0 1
  O        0.1763910     2.6970700    -0.0085580
  C        0.2089260     1.4725840     0.0042240
  N        1.4659430     0.7906670    -0.0052000
  C        1.6696020    -0.5667920     0.0018180
  N        0.7040600    -1.4531590     0.0111340
  C       -0.5247500    -0.8567100    -0.0036900
  C       -0.8535700     0.4975280     0.0150930
  N       -2.2178770     0.6874110     0.0132550
  C       -2.7081380    -0.5423290     0.0003530
  N       -1.7302440    -1.5082620    -0.0074590
  N        2.9979610    -0.9836392     0.1199369
  H        2.2638450     1.4140280    -0.1046570
  H       -3.7608750    -0.7937900    -0.0035550
  H       -1.8528420    -2.5141400    -0.0211820
  H        3.0628590    -1.9839740     0.0678780
  H        3.6422020    -0.4648880     0.5003130
units angstrom
no_reorient  #important for SAPT in psi4, default
symmetry c1  #important for SAPT in psi4, default
}

set PROPERTIES_ORIGIN ["COM"]
properties('MP2/aug-cc-pvtz', properties = ['dipole'])
--------------------------------------------------------------------------

    Molecular point group: c1
  Charge       = 0
  Multiplicity = 1
  Basis Set: AUG-CC-PVTZ
    Blend: AUG-CC-PVTZ
  Basis Set: (AUG-CC-PVTZ AUX)
    Blend: AUG-CC-PVTZ-JKFIT

    Orbital Energies [Eh]
    ---------------------

    Doubly Occupied:

       1A    -20.523881     2A    -15.635380     3A    -15.631493
       4A    -15.600328     5A    -15.571958     6A    -15.564525
       7A    -11.401882     8A    -11.367416     9A    -11.327477
      10A    -11.313366    11A    -11.250190    12A     -1.392857
      13A     -1.360215    14A     -1.335142    15A     -1.227262
      16A     -1.217970    17A     -1.177603    18A     -1.033009
      19A     -0.906378    20A     -0.890506    21A     -0.844395
      22A     -0.812251    23A     -0.744718    24A     -0.737749
      25A     -0.715467    26A     -0.676610    27A     -0.655272
      28A     -0.634351    29A     -0.614518    30A     -0.600706
      31A     -0.596408    32A     -0.546471    33A     -0.499121
      34A     -0.453722    35A     -0.442544    36A     -0.432447
      37A     -0.432206    38A     -0.411430    39A     -0.300981

  @DF-RHF Final Energy:  -539.57716364020484

   => Energetics <=

    Nuclear Repulsion Energy =            593.8247358756741505
    One-Electron Energy =               -1913.0433918826001900
    Two-Electron Energy =                 779.6414923667211951
    Total Energy =                       -539.5771636402048443
  Basis Set: (AUG-CC-PVTZ AUX)
    Blend: AUG-CC-PVTZ-RI
    Molecular point group: c1

    Geometry (in Angstrom), charge = 0, multiplicity = 1:

       Center              X                  Y                   Z               Mass
    ------------   -----------------  -----------------  -----------------  -----------------
         O            0.197647658697     2.668809738698    -0.024199659700    15.994914619570
         C            0.230182658697     1.444323738698    -0.011417659700    12.000000000000
         N            1.487199658697     0.762406738698    -0.020841659700    14.003074004430
         C            1.690858658697    -0.595052261302    -0.013823659700    12.000000000000
         N            0.725316658697    -1.481419261302    -0.004507659700    14.003074004430
         C           -0.503493341303    -0.884970261302    -0.019331659700    12.000000000000
         C           -0.832313341303     0.469267738698    -0.000548659700    12.000000000000
         N           -2.196620341303     0.659150738698    -0.002386659700    14.003074004430
         C           -2.686881341303    -0.570589261302    -0.015288659700    12.000000000000
         N           -1.708987341303    -1.536522261302    -0.023100659700    14.003074004430
         N            3.019217658697    -1.011899461302     0.104295240300    14.003074004430
         H            2.285101658697     1.385767738698    -0.120298659700     1.007825032230
         H           -3.739618341303    -0.822050261302    -0.019196659700     1.007825032230
         H           -1.831585341303    -2.542400261302    -0.036823659700     1.007825032230
         H            3.084115658697    -2.012234261302     0.052236340300     1.007825032230
         H            3.663458658697    -0.493148261302     0.484671340300     1.007825032230

  Basis Set: AUG-CC-PVTZ
    Blend: AUG-CC-PVTZ
  Basis Set: (AUG-CC-PVTZ AUX)
    Blend: AUG-CC-PVTZ-JKFIT
	 Reference Energy          =    -539.5771636402048443 [Eh]
	 Singles Energy            =      -0.0000000000000000 [Eh]
	 Same-Spin Energy          =      -0.5725664978684715 [Eh]
	 Opposite-Spin Energy      =      -1.6615984862095701 [Eh]
	 Correlation Energy        =      -2.2341649840780415 [Eh]
	 Total Energy              =    -541.8113286242828508 [Eh]

	 ================> DF-SCS-MP2 Energies <==================
	-----------------------------------------------------------
	 SCS Same-Spin Scale       =       0.3333333333333333 [-]
	 SCS Opposite-Spin Scale   =       1.2000000000000000 [-]
	 SCS Same-Spin Energy      =      -0.1908554992894905 [Eh]
	 SCS Opposite-Spin Energy  =      -1.9939181834514841 [Eh]
	 SCS Correlation Energy    =      -2.1847736827409747 [Eh]
	 SCS Total Energy          =    -541.7619373229458688 [Eh]
	-----------------------------------------------------------

  Dipole Moment: [D]
     X:     2.8776      Y:    -5.6204      Z:     0.3959     Total:     6.3266

*** Psi4 exiting successfully. Buy a developer a beer!
