                               Psi4 1.3.2 release

  ==> Input File <==

--------------------------------------------------------------------------
#psi4
#
memory 32 gb

molecule  {
0 1
  O        0.1763910     2.6970700    -0.0085580
  C        0.2089260     1.4725840     0.0042240
  N        1.4659430     0.7906670    -0.0052000
  C        1.6696020    -0.5667920     0.0018180
  N        0.7040600    -1.4531590     0.0111340
  C       -0.5247500    -0.8567100    -0.0036900
  C       -0.8535700     0.4975280     0.0150930
  N       -2.2186821     0.6881742    -0.1367409
  C       -2.7081380    -0.5423290     0.0003530
  N       -1.7302440    -1.5082620    -0.0074590
  N        2.9897270    -0.9822980    -0.0798890
  H        2.2638450     1.4140280    -0.1046570
  H       -3.7608750    -0.7937900    -0.0035550
  H       -1.8528420    -2.5141400    -0.0211820
  H        3.0628590    -1.9839740     0.0678780
  H        3.6422020    -0.4648880     0.5003130
units angstrom
no_reorient  #important for SAPT in psi4, default
symmetry c1  #important for SAPT in psi4, default
}

set PROPERTIES_ORIGIN ["COM"]
properties('MP2/aug-cc-pvtz', properties = ['dipole'])
--------------------------------------------------------------------------

    Molecular point group: c1
  Charge       = 0
  Multiplicity = 1
  Basis Set: AUG-CC-PVTZ
    Blend: AUG-CC-PVTZ
  Basis Set: (AUG-CC-PVTZ AUX)
    Blend: AUG-CC-PVTZ-JKFIT

    Orbital Energies [Eh]
    ---------------------

    Doubly Occupied:

       1A    -20.524439     2A    -15.636443     3A    -15.632019
       4A    -15.612488     5A    -15.573809     6A    -15.567022
       7A    -11.398737     8A    -11.367929     9A    -11.328007
      10A    -11.315950    11A    -11.251998    12A     -1.393421
      13A     -1.360358    14A     -1.335498    15A     -1.220861
      16A     -1.217731    17A     -1.176415    18A     -1.030948
      19A     -0.906903    20A     -0.884907    21A     -0.844593
      22A     -0.799132    23A     -0.739652    24A     -0.729640
      25A     -0.700763    26A     -0.673059    27A     -0.657432
      28A     -0.632108    29A     -0.614374    30A     -0.598658
      31A     -0.597019    32A     -0.547754    33A     -0.500664
      34A     -0.461921    35A     -0.444399    36A     -0.435576
      37A     -0.430993    38A     -0.409261    39A     -0.302542

  @DF-RHF Final Energy:  -539.58212301451897

   => Energetics <=

    Nuclear Repulsion Energy =            593.3615653386071926
    One-Electron Energy =               -1912.1765304549730899
    Two-Electron Energy =                 779.2328421018468134
    Total Energy =                       -539.5821230145189702
  Basis Set: (AUG-CC-PVTZ AUX)
    Blend: AUG-CC-PVTZ-RI
    Molecular point group: c1

    Geometry (in Angstrom), charge = 0, multiplicity = 1:

       Center              X                  Y                   Z               Mass
    ------------   -----------------  -----------------  -----------------  -----------------
         O            0.198485630764     2.668614649760     0.008230659360    15.994914619570
         C            0.231020630764     1.444128649760     0.021012659360    12.000000000000
         N            1.488037630764     0.762211649760     0.011588659360    14.003074004430
         C            1.691696630764    -0.595247350240     0.018606659360    12.000000000000
         N            0.726154630764    -1.481614350240     0.027922659360    14.003074004430
         C           -0.502655369236    -0.885165350240     0.013098659360    12.000000000000
         C           -0.831475369236     0.469072649760     0.031881659360    12.000000000000
         N           -2.196587469236     0.659718849760    -0.119952240640    14.003074004430
         C           -2.686043369236    -0.570784350240     0.017141659360    12.000000000000
         N           -1.708149369236    -1.536717350240     0.009329659360    14.003074004430
         N            3.011821630764    -1.010753350240    -0.063100340640    14.003074004430
         H            2.285939630764     1.385572649760    -0.087868340640     1.007825032230
         H           -3.738780369236    -0.822245350240     0.013233659360     1.007825032230
         H           -1.830747369236    -2.542595350240    -0.004393340640     1.007825032230
         H            3.084953630764    -2.012429350240     0.084666659360     1.007825032230
         H            3.664296630764    -0.493343350240     0.517101659360     1.007825032230

  Basis Set: AUG-CC-PVTZ
    Blend: AUG-CC-PVTZ
  Basis Set: (AUG-CC-PVTZ AUX)
    Blend: AUG-CC-PVTZ-JKFIT
	 Reference Energy          =    -539.5821230145189702 [Eh]
	 Singles Energy            =      -0.0000000000000000 [Eh]
	 Same-Spin Energy          =      -0.5732518829873854 [Eh]
	 Opposite-Spin Energy      =      -1.6638938968953161 [Eh]
	 Correlation Energy        =      -2.2371457798827015 [Eh]
	 Total Energy              =    -541.8192687944016370 [Eh]

	 ================> DF-SCS-MP2 Energies <==================
	-----------------------------------------------------------
	 SCS Same-Spin Scale       =       0.3333333333333333 [-]
	 SCS Opposite-Spin Scale   =       1.2000000000000000 [-]
	 SCS Same-Spin Energy      =      -0.1910839609957951 [Eh]
	 SCS Opposite-Spin Energy  =      -1.9966726762743792 [Eh]
	 SCS Correlation Energy    =      -2.1877566372701742 [Eh]
	 SCS Total Energy          =    -541.7698796517890969 [Eh]
	-----------------------------------------------------------

  Dipole Moment: [D]
     X:     2.6817      Y:    -5.6353      Z:     1.0372     Total:     6.3265

*** Psi4 exiting successfully. Buy a developer a beer!
