                               Psi4 1.3.2 release

  ==> Input File <==

--------------------------------------------------------------------------
#psi4
#
memory 32 gb

molecule  {
0 1
  O        0.1763910     2.6970700    -0.0085580
  C        0.2089260     1.4725840     0.0042240
  N        1.4659430     0.7906670    -0.0052000
  C        1.6696020    -0.5667920     0.0018180
  N        0.7040600    -1.4531590     0.0111340
  C       -0.5247500    -0.8567100    -0.0036900
  C       -0.8535700     0.4975280     0.0150930
  N       -2.2178770     0.6874110     0.0132550
  C       -2.7081380    -0.5423290     0.0003530
  N       -1.7302440    -1.5082620    -0.0074590
  N        3.0000196    -0.9839745     0.1698934
  H        2.2638450     1.4140280    -0.1046570
  H       -3.7608750    -0.7937900    -0.0035550
  H       -1.8528420    -2.5141400    -0.0211820
  H        3.0628590    -1.9839740     0.0678780
  H        3.6422020    -0.4648880     0.5003130
units angstrom
no_reorient  #important for SAPT in psi4, default
symmetry c1  #important for SAPT in psi4, default
}

set PROPERTIES_ORIGIN ["COM"]
properties('MP2/aug-cc-pvtz', properties = ['dipole'])
--------------------------------------------------------------------------

    Molecular point group: c1
  Charge       = 0
  Multiplicity = 1
  Basis Set: AUG-CC-PVTZ
    Blend: AUG-CC-PVTZ
  Basis Set: (AUG-CC-PVTZ AUX)
    Blend: AUG-CC-PVTZ-JKFIT

    Orbital Energies [Eh]
    ---------------------

    Doubly Occupied:

       1A    -20.523946     2A    -15.635484     3A    -15.631653
       4A    -15.598379     5A    -15.572251     6A    -15.564620
       7A    -11.402853     8A    -11.367479     9A    -11.327727
      10A    -11.313490    11A    -11.250343    12A     -1.392814
      13A     -1.360288    14A     -1.334658    15A     -1.228094
      16A     -1.218090    17A     -1.177740    18A     -1.033664
      19A     -0.906471    20A     -0.891611    21A     -0.844562
      22A     -0.815266    23A     -0.747308    24A     -0.737945
      25A     -0.714510    26A     -0.676766    27A     -0.655416
      28A     -0.633656    29A     -0.614609    30A     -0.600704
      31A     -0.596100    32A     -0.546158    33A     -0.499267
      34A     -0.452600    35A     -0.442517    36A     -0.432551
      37A     -0.432291    38A     -0.411492    39A     -0.300978

  @DF-RHF Final Energy:  -539.57000340005629

   => Energetics <=

    Nuclear Repulsion Energy =            593.7466326462013058
    One-Electron Energy =               -1912.8605613590284520
    Two-Electron Energy =                 779.5439253127708525
    Total Energy =                       -539.5700034000562937
  Basis Set: (AUG-CC-PVTZ AUX)
    Blend: AUG-CC-PVTZ-RI
    Molecular point group: c1

    Geometry (in Angstrom), charge = 0, multiplicity = 1:

       Center              X                  Y                   Z               Mass
    ------------   -----------------  -----------------  -----------------  -----------------
         O            0.197456815659     2.668840822770    -0.028830889755    15.994914619570
         C            0.229991815659     1.444354822770    -0.016048889755    12.000000000000
         N            1.487008815659     0.762437822770    -0.025472889755    14.003074004430
         C            1.690667815659    -0.595021177230    -0.018454889755    12.000000000000
         N            0.725125815659    -1.481388177230    -0.009138889755    14.003074004430
         C           -0.503684184341    -0.884939177230    -0.023962889755    12.000000000000
         C           -0.832504184341     0.469298822770    -0.005179889755    12.000000000000
         N           -2.196811184341     0.659181822770    -0.007017889755    14.003074004430
         C           -2.687072184341    -0.570558177230    -0.019919889755    12.000000000000
         N           -1.709178184341    -1.536491177230    -0.027731889755    14.003074004430
         N            3.021085415659    -1.012203677230     0.149620510245    14.003074004430
         H            2.284910815659     1.385798822770    -0.124929889755     1.007825032230
         H           -3.739809184341    -0.822019177230    -0.023827889755     1.007825032230
         H           -1.831776184341    -2.542369177230    -0.041454889755     1.007825032230
         H            3.083924815659    -2.012203177230     0.047605110245     1.007825032230
         H            3.663267815659    -0.493117177230     0.480040110245     1.007825032230

  Basis Set: AUG-CC-PVTZ
    Blend: AUG-CC-PVTZ
  Basis Set: (AUG-CC-PVTZ AUX)
    Blend: AUG-CC-PVTZ-JKFIT
	 Reference Energy          =    -539.5700034000562937 [Eh]
	 Singles Energy            =      -0.0000000000000000 [Eh]
	 Same-Spin Energy          =      -0.5726087751712884 [Eh]
	 Opposite-Spin Energy      =      -1.6616721788961093 [Eh]
	 Correlation Energy        =      -2.2342809540673976 [Eh]
	 Total Energy              =    -541.8042843541236380 [Eh]

	 ================> DF-SCS-MP2 Energies <==================
	-----------------------------------------------------------
	 SCS Same-Spin Scale       =       0.3333333333333333 [-]
	 SCS Opposite-Spin Scale   =       1.2000000000000000 [-]
	 SCS Same-Spin Energy      =      -0.1908695917237628 [Eh]
	 SCS Opposite-Spin Energy  =      -1.9940066146753310 [Eh]
	 SCS Correlation Energy    =      -2.1848762063990939 [Eh]
	 SCS Total Energy          =    -541.7548796064553471 [Eh]
	-----------------------------------------------------------

  Dipole Moment: [D]
     X:     2.8745      Y:    -5.6045      Z:     0.2621     Total:     6.3041

*** Psi4 exiting successfully. Buy a developer a beer!
