                               Psi4 1.3.2 release

  ==> Input File <==

--------------------------------------------------------------------------
#psi4
#
memory 32 gb

molecule  {
0 1
  O        0.1763910     2.6970700    -0.0085580
  C        0.2089260     1.4725840     0.0042240
  N        1.4659430     0.7906670    -0.0052000
  C        1.6696020    -0.5667920     0.0018180
  N        0.7040600    -1.4531590     0.0111340
  C       -0.5247500    -0.8567100    -0.0036900
  C       -0.8535700     0.4975280     0.0150930
  N       -2.2178770     0.6874110     0.0132550
  C       -2.7081380    -0.5423290     0.0003530
  N       -1.7302440    -1.5082620    -0.0074590
  N        2.9897270    -0.9822980    -0.0798890
  H        2.2638450     1.4140280    -0.1046570
  H       -3.7604205    -0.7908590    -0.3035403
  H       -1.8528420    -2.5141400    -0.0211820
  H        3.0628590    -1.9839740     0.0678780
  H        3.6422020    -0.4648880     0.5003130
units angstrom
no_reorient  #important for SAPT in psi4, default
symmetry c1  #important for SAPT in psi4, default
}

set PROPERTIES_ORIGIN ["COM"]
properties('MP2/aug-cc-pvtz', properties = ['dipole'])
--------------------------------------------------------------------------

    Molecular point group: c1
  Charge       = 0
  Multiplicity = 1
  Basis Set: AUG-CC-PVTZ
    Blend: AUG-CC-PVTZ
  Basis Set: (AUG-CC-PVTZ AUX)
    Blend: AUG-CC-PVTZ-JKFIT

    Orbital Energies [Eh]
    ---------------------

    Doubly Occupied:

       1A    -20.525060     2A    -15.635965     3A    -15.632489
       4A    -15.612802     5A    -15.574014     6A    -15.566583
       7A    -11.399236     8A    -11.368643     9A    -11.328363
      10A    -11.316935    11A    -11.252284    12A     -1.394113
      13A     -1.361291    14A     -1.336304    15A     -1.221279
      16A     -1.218847    17A     -1.178679    18A     -1.030957
      19A     -0.905864    20A     -0.885321    21A     -0.843672
      22A     -0.797655    23A     -0.740298    24A     -0.728920
      25A     -0.700154    26A     -0.673441    27A     -0.654689
      28A     -0.635104    29A     -0.615562    30A     -0.606074
      31A     -0.583538    32A     -0.548423    33A     -0.500086
      34A     -0.463366    35A     -0.443532    36A     -0.434225
      37A     -0.432439    38A     -0.412417    39A     -0.303297

  @DF-RHF Final Energy:  -539.58171379117994

   => Energetics <=

    Nuclear Repulsion Energy =            593.4986204221750086
    One-Electron Energy =               -1912.4368318557721977
    Two-Electron Energy =                 779.3564976424172528
    Total Energy =                       -539.5817137911799364
  Basis Set: (AUG-CC-PVTZ AUX)
    Blend: AUG-CC-PVTZ-RI
    Molecular point group: c1

    Geometry (in Angstrom), charge = 0, multiplicity = 1:

       Center              X                  Y                   Z               Mass
    ------------   -----------------  -----------------  -----------------  -----------------
         O            0.198407961269     2.668665846325    -0.003673200415    15.994914619570
         C            0.230942961269     1.444179846325     0.009108799585    12.000000000000
         N            1.487959961269     0.762262846325    -0.000315200415    14.003074004430
         C            1.691618961269    -0.595196153675     0.006702799585    12.000000000000
         N            0.726076961269    -1.481563153675     0.016018799585    14.003074004430
         C           -0.502733038731    -0.885114153675     0.001194799585    12.000000000000
         C           -0.831553038731     0.469123846325     0.019977799585    12.000000000000
         N           -2.195860038731     0.659006846325     0.018139799585    14.003074004430
         C           -2.686121038731    -0.570733153675     0.005237799585    12.000000000000
         N           -1.708227038731    -1.536666153675    -0.002574200415    14.003074004430
         N            3.011743961269    -1.010702153675    -0.075004200415    14.003074004430
         H            2.285861961269     1.385623846325    -0.099772200415     1.007825032230
         H           -3.738403538731    -0.819263153675    -0.298655500415     1.007825032230
         H           -1.830825038731    -2.542544153675    -0.016297200415     1.007825032230
         H            3.084875961269    -2.012378153675     0.072762799585     1.007825032230
         H            3.664218961269    -0.493292153675     0.505197799585     1.007825032230

  Basis Set: AUG-CC-PVTZ
    Blend: AUG-CC-PVTZ
  Basis Set: (AUG-CC-PVTZ AUX)
    Blend: AUG-CC-PVTZ-JKFIT
	 Reference Energy          =    -539.5817137911799364 [Eh]
	 Singles Energy            =      -0.0000000000000000 [Eh]
	 Same-Spin Energy          =      -0.5734063669950203 [Eh]
	 Opposite-Spin Energy      =      -1.6639727682520671 [Eh]
	 Correlation Energy        =      -2.2373791352470875 [Eh]
	 Total Energy              =    -541.8190929264270608 [Eh]

	 ================> DF-SCS-MP2 Energies <==================
	-----------------------------------------------------------
	 SCS Same-Spin Scale       =       0.3333333333333333 [-]
	 SCS Opposite-Spin Scale   =       1.2000000000000000 [-]
	 SCS Same-Spin Energy      =      -0.1911354556650068 [Eh]
	 SCS Opposite-Spin Energy  =      -1.9967673219024804 [Eh]
	 SCS Correlation Energy    =      -2.1879027775674871 [Eh]
	 SCS Total Energy          =    -541.7696165687474377 [Eh]
	-----------------------------------------------------------

  Dipole Moment: [D]
     X:     2.7660      Y:    -5.5935      Z:     0.6306     Total:     6.2718

*** Psi4 exiting successfully. Buy a developer a beer!
