                               Psi4 1.3.2 release

  ==> Input File <==

--------------------------------------------------------------------------
#psi4
#
memory 32 gb

molecule  {
0 1
  O        0.1763910     2.6970700    -0.0085580
  C        0.2089260     1.4725840     0.0042240
  N        1.4659430     0.7906670    -0.0052000
  C        1.6696020    -0.5667920     0.0018180
  N        0.7040600    -1.4531590     0.0111340
  C       -0.5247500    -0.8567100    -0.0036900
  C       -0.8535700     0.4975280     0.0150930
  N       -2.2178770     0.6874110     0.0132550
  C       -2.7081380    -0.5423290     0.0003530
  N       -1.7302440    -1.5082620    -0.0074590
  N        2.9897270    -0.9822980    -0.0798890
  H        2.2800265     1.4252647     0.1946955
  H       -3.7608750    -0.7937900    -0.0035550
  H       -1.8528420    -2.5141400    -0.0211820
  H        3.0628590    -1.9839740     0.0678780
  H        3.6422020    -0.4648880     0.5003130
units angstrom
no_reorient  #important for SAPT in psi4, default
symmetry c1  #important for SAPT in psi4, default
}

set PROPERTIES_ORIGIN ["COM"]
properties('MP2/aug-cc-pvtz', properties = ['dipole'])
--------------------------------------------------------------------------

    Molecular point group: c1
  Charge       = 0
  Multiplicity = 1
  Basis Set: AUG-CC-PVTZ
    Blend: AUG-CC-PVTZ
  Basis Set: (AUG-CC-PVTZ AUX)
    Blend: AUG-CC-PVTZ-JKFIT

    Orbital Energies [Eh]
    ---------------------

    Doubly Occupied:

       1A    -20.524411     2A    -15.636272     3A    -15.634328
       4A    -15.612380     5A    -15.573695     6A    -15.565313
       7A    -11.398305     8A    -11.367846     9A    -11.327608
      10A    -11.314299    11A    -11.251465    12A     -1.392844
      13A     -1.360915    14A     -1.335339    15A     -1.220066
      16A     -1.216661    17A     -1.177770    18A     -1.031157
      19A     -0.905572    20A     -0.883692    21A     -0.844807
      22A     -0.797967    23A     -0.735272    24A     -0.729222
      25A     -0.699207    26A     -0.673192    27A     -0.659344
      28A     -0.631713    29A     -0.614587    30A     -0.601169
      31A     -0.593326    32A     -0.548303    33A     -0.499951
      34A     -0.462239    35A     -0.443146    36A     -0.435295
      37A     -0.430018    38A     -0.412190    39A     -0.302886

  @DF-RHF Final Energy:  -539.58335131109197

   => Energetics <=

    Nuclear Repulsion Energy =            593.4585207317576305
    One-Electron Energy =               -1912.3962053014179219
    Two-Electron Energy =                 779.3543332585682037
    Total Energy =                       -539.5833513110919739
  Basis Set: (AUG-CC-PVTZ AUX)
    Blend: AUG-CC-PVTZ-RI
    Molecular point group: c1

    Geometry (in Angstrom), charge = 0, multiplicity = 1:

       Center              X                  Y                   Z               Mass
    ------------   -----------------  -----------------  -----------------  -----------------
         O            0.198303028292     2.668610429410    -0.007672074945    15.994914619570
         C            0.230838028292     1.444124429410     0.005109925055    12.000000000000
         N            1.487855028292     0.762207429410    -0.004314074945    14.003074004430
         C            1.691514028292    -0.595251570590     0.002703925055    12.000000000000
         N            0.725972028292    -1.481618570590     0.012019925055    14.003074004430
         C           -0.502837971708    -0.885169570590    -0.002804074945    12.000000000000
         C           -0.831657971708     0.469068429410     0.015978925055    12.000000000000
         N           -2.195964971708     0.658951429410     0.014140925055    14.003074004430
         C           -2.686225971708    -0.570788570590     0.001238925055    12.000000000000
         N           -1.708331971708    -1.536721570590    -0.006573074945    14.003074004430
         N            3.011639028292    -1.010757570590    -0.079003074945    14.003074004430
         H            2.301938528292     1.396805129410     0.195581425055     1.007825032230
         H           -3.738962971708    -0.822249570590    -0.002669074945     1.007825032230
         H           -1.830929971708    -2.542599570590    -0.020296074945     1.007825032230
         H            3.084771028292    -2.012433570590     0.068763925055     1.007825032230
         H            3.664114028292    -0.493347570590     0.501198925055     1.007825032230

  Basis Set: AUG-CC-PVTZ
    Blend: AUG-CC-PVTZ
  Basis Set: (AUG-CC-PVTZ AUX)
    Blend: AUG-CC-PVTZ-JKFIT
	 Reference Energy          =    -539.5833513110919739 [Eh]
	 Singles Energy            =      -0.0000000000000000 [Eh]
	 Same-Spin Energy          =      -0.5733301818702631 [Eh]
	 Opposite-Spin Energy      =      -1.6639177085143377 [Eh]
	 Correlation Energy        =      -2.2372478903846007 [Eh]
	 Total Energy              =    -541.8205992014766252 [Eh]

	 ================> DF-SCS-MP2 Energies <==================
	-----------------------------------------------------------
	 SCS Same-Spin Scale       =       0.3333333333333333 [-]
	 SCS Opposite-Spin Scale   =       1.2000000000000000 [-]
	 SCS Same-Spin Energy      =      -0.1911100606234210 [Eh]
	 SCS Opposite-Spin Energy  =      -1.9967012502172052 [Eh]
	 SCS Correlation Energy    =      -2.1878113108406261 [Eh]
	 SCS Total Energy          =    -541.7711626219326035 [Eh]
	-----------------------------------------------------------

  Dipole Moment: [D]
     X:     2.6676      Y:    -5.6283      Z:     1.2307     Total:     6.3490

*** Psi4 exiting successfully. Buy a developer a beer!
