                               Psi4 1.3.2 release

  ==> Input File <==

--------------------------------------------------------------------------
#psi4
#
memory 32 gb

molecule  {
0 1
  O        0.1763910     2.6970700    -0.0085580
  C        0.2089260     1.4725840     0.0042240
  N        1.4659430     0.7906670    -0.0052000
  C        1.6696020    -0.5667920     0.0018180
  N        0.7040600    -1.4531590     0.0111340
  C       -0.5247500    -0.8567100    -0.0036900
  C       -0.8535700     0.4975280     0.0150930
  N       -2.2178770     0.6874110     0.0132550
  C       -2.7081380    -0.5423290     0.0003530
  N       -1.7302440    -1.5082620    -0.0074590
  N        2.9897270    -0.9822980    -0.0798890
  H        2.2638450     1.4140280    -0.1046570
  H       -3.7608750    -0.7937900    -0.0035550
  H       -1.8528420    -2.5141400    -0.0211820
  H        3.0628590    -1.9839740     0.0678780
  H        3.5958165    -0.5015847     0.6913673
units angstrom
no_reorient  #important for SAPT in psi4, default
symmetry c1  #important for SAPT in psi4, default
}

set PROPERTIES_ORIGIN ["COM"]
properties('MP2/aug-cc-pvtz', properties = ['dipole'])
--------------------------------------------------------------------------

    Molecular point group: c1
  Charge       = 0
  Multiplicity = 1
  Basis Set: AUG-CC-PVTZ
    Blend: AUG-CC-PVTZ
  Basis Set: (AUG-CC-PVTZ AUX)
    Blend: AUG-CC-PVTZ-JKFIT

    Orbital Energies [Eh]
    ---------------------

    Doubly Occupied:

       1A    -20.524851     2A    -15.637210     3A    -15.632237
       4A    -15.618486     5A    -15.575617     6A    -15.566204
       7A    -11.397401     8A    -11.368476     9A    -11.328011
      10A    -11.315414    11A    -11.252886    12A     -1.393924
      13A     -1.361741    14A     -1.335477    15A     -1.219569
      16A     -1.214784    17A     -1.179007    18A     -1.030942
      19A     -0.907374    20A     -0.882929    21A     -0.845846
      22A     -0.794294    23A     -0.740303    24A     -0.726080
      25A     -0.691390    26A     -0.670424    27A     -0.654276
      28A     -0.631056    29A     -0.615062    30A     -0.602027
      31A     -0.594230    32A     -0.547311    33A     -0.500780
      34A     -0.466809    35A     -0.443968    36A     -0.433749
      37A     -0.433024    38A     -0.413025    39A     -0.304591

  @DF-RHF Final Energy:  -539.57997820001447

   => Energetics <=

    Nuclear Repulsion Energy =            593.3854948327240209
    One-Electron Energy =               -1912.2293785122744794
    Two-Electron Energy =                 779.2639054795358788
    Total Energy =                       -539.5799782000144660
  Basis Set: (AUG-CC-PVTZ AUX)
    Blend: AUG-CC-PVTZ-RI
    Molecular point group: c1

    Geometry (in Angstrom), charge = 0, multiplicity = 1:

       Center              X                  Y                   Z               Mass
    ------------   -----------------  -----------------  -----------------  -----------------
         O            0.198720484996     2.668930248471    -0.006949492599    15.994914619570
         C            0.231255484996     1.444444248471     0.005832507401    12.000000000000
         N            1.488272484996     0.762527248471    -0.003591492599    14.003074004430
         C            1.691931484996    -0.594931751529     0.003426507401    12.000000000000
         N            0.726389484996    -1.481298751529     0.012742507401    14.003074004430
         C           -0.502420515004    -0.884849751529    -0.002081492599    12.000000000000
         C           -0.831240515004     0.469388248471     0.016701507401    12.000000000000
         N           -2.195547515004     0.659271248471     0.014863507401    14.003074004430
         C           -2.685808515004    -0.570468751529     0.001961507401    12.000000000000
         N           -1.707914515004    -1.536401751529    -0.005850492599    14.003074004430
         N            3.012056484996    -1.010437751529    -0.078280492599    14.003074004430
         H            2.286174484996     1.385888248471    -0.103048492599     1.007825032230
         H           -3.738545515004    -0.821929751529    -0.001946492599     1.007825032230
         H           -1.830512515004    -2.542279751529    -0.019573492599     1.007825032230
         H            3.085188484996    -2.012113751529     0.069486507401     1.007825032230
         H            3.618145984996    -0.529724451529     0.692975807401     1.007825032230

  Basis Set: AUG-CC-PVTZ
    Blend: AUG-CC-PVTZ
  Basis Set: (AUG-CC-PVTZ AUX)
    Blend: AUG-CC-PVTZ-JKFIT
	 Reference Energy          =    -539.5799782000144660 [Eh]
	 Singles Energy            =      -0.0000000000000000 [Eh]
	 Same-Spin Energy          =      -0.5735679440324518 [Eh]
	 Opposite-Spin Energy      =      -1.6648786696996432 [Eh]
	 Correlation Energy        =      -2.2384466137320951 [Eh]
	 Total Energy              =    -541.8184248137465602 [Eh]

	 ================> DF-SCS-MP2 Energies <==================
	-----------------------------------------------------------
	 SCS Same-Spin Scale       =       0.3333333333333333 [-]
	 SCS Opposite-Spin Scale   =       1.2000000000000000 [-]
	 SCS Same-Spin Energy      =      -0.1911893146774839 [Eh]
	 SCS Opposite-Spin Energy  =      -1.9978544036395718 [Eh]
	 SCS Correlation Energy    =      -2.1890437183170559 [Eh]
	 SCS Total Energy          =    -541.7690219183315321 [Eh]
	-----------------------------------------------------------

  Dipole Moment: [D]
     X:     2.3873      Y:    -5.6927      Z:     1.0254     Total:     6.2575

*** Psi4 exiting successfully. Buy a developer a beer!
