                               Psi4 1.3.2 release

  ==> Input File <==

--------------------------------------------------------------------------
#psi4
#
memory 32 gb

molecule  {
0 1
  O        0.1763910     2.6970700    -0.0085580
  C        0.2089260     1.4725840     0.0042240
  N        1.4659430     0.7906670    -0.0052000
  C        1.6696020    -0.5667920     0.0018180
  N        0.7040600    -1.4531590     0.0111340
  C       -0.5247500    -0.8567100    -0.0036900
  C       -0.8535700     0.4975280     0.0150930
  N       -2.2181454     0.6876654    -0.0367436
  C       -2.7081380    -0.5423290     0.0003530
  N       -1.7302440    -1.5082620    -0.0074590
  N        2.9897270    -0.9822980    -0.0798890
  H        2.2638450     1.4140280    -0.1046570
  H       -3.7608750    -0.7937900    -0.0035550
  H       -1.8528420    -2.5141400    -0.0211820
  H        3.0628590    -1.9839740     0.0678780
  H        3.6422020    -0.4648880     0.5003130
units angstrom
no_reorient  #important for SAPT in psi4, default
symmetry c1  #important for SAPT in psi4, default
}

set PROPERTIES_ORIGIN ["COM"]
properties('MP2/aug-cc-pvtz', properties = ['dipole'])
--------------------------------------------------------------------------

    Molecular point group: c1
  Charge       = 0
  Multiplicity = 1
  Basis Set: AUG-CC-PVTZ
    Blend: AUG-CC-PVTZ
  Basis Set: (AUG-CC-PVTZ AUX)
    Blend: AUG-CC-PVTZ-JKFIT

    Orbital Energies [Eh]
    ---------------------

    Doubly Occupied:

       1A    -20.524429     2A    -15.636225     3A    -15.632006
       4A    -15.612405     5A    -15.573635     6A    -15.565484
       7A    -11.398629     8A    -11.368023     9A    -11.327656
      10A    -11.314465    11A    -11.251538    12A     -1.393556
      13A     -1.360903    14A     -1.335839    15A     -1.220817
      16A     -1.218273    17A     -1.178047    18A     -1.031350
      19A     -0.906873    20A     -0.885227    21A     -0.844893
      22A     -0.799179    23A     -0.740288    24A     -0.730215
      25A     -0.700699    26A     -0.673168    27A     -0.656769
      28A     -0.633296    29A     -0.614592    30A     -0.600586
      31A     -0.597385    32A     -0.547919    33A     -0.499973
      34A     -0.462329    35A     -0.443444    36A     -0.433701
      37A     -0.432239    38A     -0.411821    39A     -0.302945

  @DF-RHF Final Energy:  -539.58699036646112

   => Energetics <=

    Nuclear Repulsion Energy =            593.6229030766804726
    One-Electron Energy =               -1912.6981432199729625
    Two-Electron Energy =                 779.4882497768312533
    Total Energy =                       -539.5869903664611229
  Basis Set: (AUG-CC-PVTZ AUX)
    Blend: AUG-CC-PVTZ-RI
    Molecular point group: c1

    Geometry (in Angstrom), charge = 0, multiplicity = 1:

       Center              X                  Y                   Z               Mass
    ------------   -----------------  -----------------  -----------------  -----------------
         O            0.198435875854     2.668661818194    -0.001039615803    15.994914619570
         C            0.230970875854     1.444175818194     0.011742384197    12.000000000000
         N            1.487987875854     0.762258818194     0.002318384197    14.003074004430
         C            1.691646875854    -0.595200181806     0.009336384197    12.000000000000
         N            0.726104875854    -1.481567181806     0.018652384197    14.003074004430
         C           -0.502705124146    -0.885118181806     0.003828384197    12.000000000000
         C           -0.831525124146     0.469119818194     0.022611384197    12.000000000000
         N           -2.196100524146     0.659257218194    -0.029225215803    14.003074004430
         C           -2.686093124146    -0.570737181806     0.007871384197    12.000000000000
         N           -1.708199124146    -1.536670181806     0.000059384197    14.003074004430
         N            3.011771875854    -1.010706181806    -0.072370615803    14.003074004430
         H            2.285889875854     1.385619818194    -0.097138615803     1.007825032230
         H           -3.738830124146    -0.822198181806     0.003963384197     1.007825032230
         H           -1.830797124146    -2.542548181806    -0.013663615803     1.007825032230
         H            3.084903875854    -2.012382181806     0.075396384197     1.007825032230
         H            3.664246875854    -0.493296181806     0.507831384197     1.007825032230

  Basis Set: AUG-CC-PVTZ
    Blend: AUG-CC-PVTZ
  Basis Set: (AUG-CC-PVTZ AUX)
    Blend: AUG-CC-PVTZ-JKFIT
	 Reference Energy          =    -539.5869903664611229 [Eh]
	 Singles Energy            =      -0.0000000000000000 [Eh]
	 Same-Spin Energy          =      -0.5730483232017789 [Eh]
	 Opposite-Spin Energy      =      -1.6632543588143371 [Eh]
	 Correlation Energy        =      -2.2363026820161158 [Eh]
	 Total Energy              =    -541.8232930484772396 [Eh]

	 ================> DF-SCS-MP2 Energies <==================
	-----------------------------------------------------------
	 SCS Same-Spin Scale       =       0.3333333333333333 [-]
	 SCS Opposite-Spin Scale   =       1.2000000000000000 [-]
	 SCS Same-Spin Energy      =      -0.1910161077339263 [Eh]
	 SCS Opposite-Spin Energy  =      -1.9959052305772045 [Eh]
	 SCS Correlation Energy    =      -2.1869213383111310 [Eh]
	 SCS Total Energy          =    -541.7739117047722175 [Eh]
	-----------------------------------------------------------

  Dipole Moment: [D]
     X:     2.6708      Y:    -5.6341      Z:     0.9087     Total:     6.3010

*** Psi4 exiting successfully. Buy a developer a beer!
