                               Psi4 1.3.2 release

  ==> Input File <==

--------------------------------------------------------------------------
#psi4
#
memory 32 gb

molecule  {
0 1
  O        0.1763910     2.6970700    -0.0085580
  C        0.2089260     1.4725840     0.0042240
  N        1.4659430     0.7906670    -0.0052000
  C        1.6696020    -0.5667920     0.0018180
  N        0.7040600    -1.4531590     0.0111340
  C       -0.5247500    -0.8567100    -0.0036900
  C       -0.8535700     0.4975280     0.0150930
  N       -2.2178770     0.6874110     0.0132550
  C       -2.7081380    -0.5423290     0.0003530
  N       -1.7309897    -1.5090604     0.0925350
  N        2.9897270    -0.9822980    -0.0798890
  H        2.2638450     1.4140280    -0.1046570
  H       -3.7608750    -0.7937900    -0.0035550
  H       -1.8528420    -2.5141400    -0.0211820
  H        3.0628590    -1.9839740     0.0678780
  H        3.6422020    -0.4648880     0.5003130
units angstrom
no_reorient  #important for SAPT in psi4, default
symmetry c1  #important for SAPT in psi4, default
}

set PROPERTIES_ORIGIN ["COM"]
properties('MP2/aug-cc-pvtz', properties = ['dipole'])
--------------------------------------------------------------------------

    Molecular point group: c1
  Charge       = 0
  Multiplicity = 1
  Basis Set: AUG-CC-PVTZ
    Blend: AUG-CC-PVTZ
  Basis Set: (AUG-CC-PVTZ AUX)
    Blend: AUG-CC-PVTZ-JKFIT

    Orbital Energies [Eh]
    ---------------------

    Doubly Occupied:

       1A    -20.524649     2A    -15.636114     3A    -15.632286
       4A    -15.612541     5A    -15.573827     6A    -15.565855
       7A    -11.398826     8A    -11.368261     9A    -11.328072
      10A    -11.314713    11A    -11.251976    12A     -1.393638
      13A     -1.360171    14A     -1.335724    15A     -1.220984
      16A     -1.218482    17A     -1.177644    18A     -1.031309
      19A     -0.906079    20A     -0.885450    21A     -0.842911
      22A     -0.798716    23A     -0.740025    24A     -0.730039
      25A     -0.700783    26A     -0.672314    27A     -0.656766
      28A     -0.632446    29A     -0.614039    30A     -0.602238
      31A     -0.596325    32A     -0.547841    33A     -0.499643
      34A     -0.463290    35A     -0.443323    36A     -0.434498
      37A     -0.431506    38A     -0.413265    39A     -0.302911

  @DF-RHF Final Energy:  -539.58545746883374

   => Energetics <=

    Nuclear Repulsion Energy =            593.4984442123784447
    One-Electron Energy =               -1912.4488443085701874
    Two-Electron Energy =                 779.3649426273580048
    Total Energy =                       -539.5854574688337379
  Basis Set: (AUG-CC-PVTZ AUX)
    Blend: AUG-CC-PVTZ-RI
    Molecular point group: c1

    Geometry (in Angstrom), charge = 0, multiplicity = 1:

       Center              X                  Y                   Z               Mass
    ------------   -----------------  -----------------  -----------------  -----------------
         O            0.198480124072     2.668759418286    -0.014944717985    15.994914619570
         C            0.231015124072     1.444273418286    -0.002162717985    12.000000000000
         N            1.488032124072     0.762356418286    -0.011586717985    14.003074004430
         C            1.691691124072    -0.595102581714    -0.004568717985    12.000000000000
         N            0.726149124072    -1.481469581714     0.004747282015    14.003074004430
         C           -0.502660875928    -0.885020581714    -0.010076717985    12.000000000000
         C           -0.831480875928     0.469217418286     0.008706282015    12.000000000000
         N           -2.195787875928     0.659100418286     0.006868282015    14.003074004430
         C           -2.686048875928    -0.570639581714    -0.006033717985    12.000000000000
         N           -1.708900575928    -1.537370981714     0.086148282015    14.003074004430
         N            3.011816124072    -1.010608581714    -0.086275717985    14.003074004430
         H            2.285934124072     1.385717418286    -0.111043717985     1.007825032230
         H           -3.738785875928    -0.822100581714    -0.009941717985     1.007825032230
         H           -1.830752875928    -2.542450581714    -0.027568717985     1.007825032230
         H            3.084948124072    -2.012284581714     0.061491282015     1.007825032230
         H            3.664291124072    -0.493198581714     0.493926282015     1.007825032230

  Basis Set: AUG-CC-PVTZ
    Blend: AUG-CC-PVTZ
  Basis Set: (AUG-CC-PVTZ AUX)
    Blend: AUG-CC-PVTZ-JKFIT
	 Reference Energy          =    -539.5854574688337379 [Eh]
	 Singles Energy            =      -0.0000000000000000 [Eh]
	 Same-Spin Energy          =      -0.5730805430817172 [Eh]
	 Opposite-Spin Energy      =      -1.6634312663336188 [Eh]
	 Correlation Energy        =      -2.2365118094153358 [Eh]
	 Total Energy              =    -541.8219692782490711 [Eh]

	 ================> DF-SCS-MP2 Energies <==================
	-----------------------------------------------------------
	 SCS Same-Spin Scale       =       0.3333333333333333 [-]
	 SCS Opposite-Spin Scale   =       1.2000000000000000 [-]
	 SCS Same-Spin Energy      =      -0.1910268476939057 [Eh]
	 SCS Opposite-Spin Energy  =      -1.9961175196003424 [Eh]
	 SCS Correlation Energy    =      -2.1871443672942483 [Eh]
	 SCS Total Energy          =    -541.7726018361279330 [Eh]
	-----------------------------------------------------------

  Dipole Moment: [D]
     X:     2.6871      Y:    -5.5949      Z:     0.7490     Total:     6.2518

*** Psi4 exiting successfully. Buy a developer a beer!
