                               Psi4 1.3.2 release

  ==> Input File <==

--------------------------------------------------------------------------
#psi4
#
memory 32 gb

molecule  {
0 1
  O        0.1763910     2.6970700    -0.0085580
  C        0.2089260     1.4725840     0.0042240
  N        1.4659430     0.7906670    -0.0052000
  C        1.6696020    -0.5667920     0.0018180
  N        0.7040600    -1.4531590     0.0111340
  C       -0.5247500    -0.8567100    -0.0036900
  C       -0.8535700     0.4975280     0.0150930
  N       -2.2178770     0.6874110     0.0132550
  C       -2.7081380    -0.5423290     0.0003530
  N       -1.7302440    -1.5082620    -0.0074590
  N        2.9897270    -0.9822980    -0.0798890
  H        2.2638450     1.4140280    -0.1046570
  H       -3.7608750    -0.7937900    -0.0035550
  H       -1.8528122    -2.5152192     0.0788122
  H        3.0628590    -1.9839740     0.0678780
  H        3.6422020    -0.4648880     0.5003130
units angstrom
no_reorient  #important for SAPT in psi4, default
symmetry c1  #important for SAPT in psi4, default
}

set PROPERTIES_ORIGIN ["COM"]
properties('MP2/aug-cc-pvtz', properties = ['dipole'])
--------------------------------------------------------------------------

    Molecular point group: c1
  Charge       = 0
  Multiplicity = 1
  Basis Set: AUG-CC-PVTZ
    Blend: AUG-CC-PVTZ
  Basis Set: (AUG-CC-PVTZ AUX)
    Blend: AUG-CC-PVTZ-JKFIT

    Orbital Energies [Eh]
    ---------------------

    Doubly Occupied:

       1A    -20.524435     2A    -15.636416     3A    -15.632024
       4A    -15.612396     5A    -15.573625     6A    -15.565387
       7A    -11.398624     8A    -11.368041     9A    -11.327571
      10A    -11.314272    11A    -11.251520    12A     -1.393569
      13A     -1.360868    14A     -1.335849    15A     -1.220815
      16A     -1.218335    17A     -1.177891    18A     -1.031366
      19A     -0.906745    20A     -0.885255    21A     -0.843911
      22A     -0.799032    23A     -0.740351    24A     -0.730333
      25A     -0.700354    26A     -0.673603    27A     -0.655690
      28A     -0.633806    29A     -0.615167    30A     -0.602178
      31A     -0.595246    32A     -0.547980    33A     -0.499809
      34A     -0.462575    35A     -0.443273    36A     -0.433189
      37A     -0.432629    38A     -0.412285    39A     -0.302947

  @DF-RHF Final Energy:  -539.58718416301213

   => Energetics <=

    Nuclear Repulsion Energy =            593.6319549697104776
    One-Electron Energy =               -1912.7195531219310851
    Two-Electron Energy =                 779.5004139892084822
    Total Energy =                       -539.5871841630121253
  Basis Set: (AUG-CC-PVTZ AUX)
    Blend: AUG-CC-PVTZ-RI
    Molecular point group: c1

    Geometry (in Angstrom), charge = 0, multiplicity = 1:

       Center              X                  Y                   Z               Mass
    ------------   -----------------  -----------------  -----------------  -----------------
         O            0.198410794933     2.668692603000    -0.006341925523    15.994914619570
         C            0.230945794933     1.444206603000     0.006440074477    12.000000000000
         N            1.487962794933     0.762289603000    -0.002983925523    14.003074004430
         C            1.691621794933    -0.595169397000     0.004034074477    12.000000000000
         N            0.726079794933    -1.481536397000     0.013350074477    14.003074004430
         C           -0.502730205067    -0.885087397000    -0.001473925523    12.000000000000
         C           -0.831550205067     0.469150603000     0.017309074477    12.000000000000
         N           -2.195857205067     0.659033603000     0.015471074477    14.003074004430
         C           -2.686118205067    -0.570706397000     0.002569074477    12.000000000000
         N           -1.708224205067    -1.536639397000    -0.005242925523    14.003074004430
         N            3.011746794933    -1.010675397000    -0.077672925523    14.003074004430
         H            2.285864794933     1.385650603000    -0.102440925523     1.007825032230
         H           -3.738855205067    -0.822167397000    -0.001338925523     1.007825032230
         H           -1.830792405067    -2.543596597000     0.081028274477     1.007825032230
         H            3.084878794933    -2.012351397000     0.070094074477     1.007825032230
         H            3.664221794933    -0.493265397000     0.502529074477     1.007825032230

  Basis Set: AUG-CC-PVTZ
    Blend: AUG-CC-PVTZ
  Basis Set: (AUG-CC-PVTZ AUX)
    Blend: AUG-CC-PVTZ-JKFIT
	 Reference Energy          =    -539.5871841630121253 [Eh]
	 Singles Energy            =      -0.0000000000000000 [Eh]
	 Same-Spin Energy          =      -0.5730622555716931 [Eh]
	 Opposite-Spin Energy      =      -1.6632639276747589 [Eh]
	 Correlation Energy        =      -2.2363261832464518 [Eh]
	 Total Energy              =    -541.8235103462585585 [Eh]

	 ================> DF-SCS-MP2 Energies <==================
	-----------------------------------------------------------
	 SCS Same-Spin Scale       =       0.3333333333333333 [-]
	 SCS Opposite-Spin Scale   =       1.2000000000000000 [-]
	 SCS Same-Spin Energy      =      -0.1910207518572310 [Eh]
	 SCS Opposite-Spin Energy  =      -1.9959167132097106 [Eh]
	 SCS Correlation Energy    =      -2.1869374650669418 [Eh]
	 SCS Total Energy          =    -541.7741216280791150 [Eh]
	-----------------------------------------------------------

  Dipole Moment: [D]
     X:     2.6700      Y:    -5.6297      Z:     0.9924     Total:     6.3093

*** Psi4 exiting successfully. Buy a developer a beer!
