                               Psi4 1.3.2 release

  ==> Input File <==

--------------------------------------------------------------------------
#psi4
#
memory 32 gb

molecule  {
0 1
  O        0.1763910     2.6970700    -0.0085580
  C        0.2089260     1.4725840     0.0042240
  N        1.4659430     0.7906670    -0.0052000
  C        1.6696020    -0.5667920     0.0018180
  N        0.7040600    -1.4531590     0.0111340
  C       -0.5247500    -0.8567100    -0.0036900
  C       -0.8535700     0.4975280     0.0150930
  N       -2.2178770     0.6874110     0.0132550
  C       -2.7081380    -0.5423290     0.0003530
  N       -1.7302440    -1.5082620    -0.0074590
  N        2.9897270    -0.9822980    -0.0798890
  H        2.2638450     1.4140280    -0.1046570
  H       -3.7608750    -0.7937900    -0.0035550
  H       -1.8528420    -2.5141400    -0.0211820
  H        3.0628590    -1.9839740     0.0678780
  H        3.6074129    -0.4924105     0.6436037
units angstrom
no_reorient  #important for SAPT in psi4, default
symmetry c1  #important for SAPT in psi4, default
}

set PROPERTIES_ORIGIN ["COM"]
properties('MP2/aug-cc-pvtz', properties = ['dipole'])
--------------------------------------------------------------------------

    Molecular point group: c1
  Charge       = 0
  Multiplicity = 1
  Basis Set: AUG-CC-PVTZ
    Blend: AUG-CC-PVTZ
  Basis Set: (AUG-CC-PVTZ AUX)
    Blend: AUG-CC-PVTZ-JKFIT

    Orbital Energies [Eh]
    ---------------------

    Doubly Occupied:

       1A    -20.524754     2A    -15.636975     3A    -15.632209
       4A    -15.616712     5A    -15.575127     6A    -15.565989
       7A    -11.397670     8A    -11.368377     9A    -11.327907
      10A    -11.315150    11A    -11.252547    12A     -1.393850
      13A     -1.361558    14A     -1.335604    15A     -1.219523
      16A     -1.216171    17A     -1.178838    18A     -1.031071
      19A     -0.907256    20A     -0.883494    21A     -0.845639
      22A     -0.795372    23A     -0.740314    24A     -0.726985
      25A     -0.693667    26A     -0.671392    27A     -0.654974
      28A     -0.632101    29A     -0.614998    30A     -0.601889
      31A     -0.595055    32A     -0.547515    33A     -0.500551
      34A     -0.465783    35A     -0.443793    36A     -0.433606
      37A     -0.432943    38A     -0.412839    39A     -0.304200

  @DF-RHF Final Energy:  -539.58292635095722

   => Energetics <=

    Nuclear Repulsion Energy =            593.4628184478094681
    One-Electron Energy =               -1912.3826963467902260
    Two-Electron Energy =                 779.3369515480235350
    Total Energy =                       -539.5829263509572229
  Basis Set: (AUG-CC-PVTZ AUX)
    Blend: AUG-CC-PVTZ-RI
    Molecular point group: c1

    Geometry (in Angstrom), charge = 0, multiplicity = 1:

       Center              X                  Y                   Z               Mass
    ------------   -----------------  -----------------  -----------------  -----------------
         O            0.198643112021     2.668869036789    -0.006630806469    15.994914619570
         C            0.231178112021     1.444383036789     0.006151193531    12.000000000000
         N            1.488195112021     0.762466036789    -0.003272806469    14.003074004430
         C            1.691854112021    -0.594992963211     0.003745193531    12.000000000000
         N            0.726312112021    -1.481359963211     0.013061193531    14.003074004430
         C           -0.502497887979    -0.884910963211    -0.001762806469    12.000000000000
         C           -0.831317887979     0.469327036789     0.017020193531    12.000000000000
         N           -2.195624887979     0.659210036789     0.015182193531    14.003074004430
         C           -2.685885887979    -0.570529963211     0.002280193531    12.000000000000
         N           -1.707991887979    -1.536462963211    -0.005531806469    14.003074004430
         N            3.011979112021    -1.010498963211    -0.077961806469    14.003074004430
         H            2.286097112021     1.385827036789    -0.102729806469     1.007825032230
         H           -3.738622887979    -0.821990963211    -0.001627806469     1.007825032230
         H           -1.830589887979    -2.542340963211    -0.019254806469     1.007825032230
         H            3.085111112021    -2.012174963211     0.069805193531     1.007825032230
         H            3.629665012021    -0.520611463211     0.645530893531     1.007825032230

  Basis Set: AUG-CC-PVTZ
    Blend: AUG-CC-PVTZ
  Basis Set: (AUG-CC-PVTZ AUX)
    Blend: AUG-CC-PVTZ-JKFIT
	 Reference Energy          =    -539.5829263509572229 [Eh]
	 Singles Energy            =      -0.0000000000000000 [Eh]
	 Same-Spin Energy          =      -0.5734154843678072 [Eh]
	 Opposite-Spin Energy      =      -1.6643858236334097 [Eh]
	 Correlation Energy        =      -2.2378013080012167 [Eh]
	 Total Energy              =    -541.8207276589583898 [Eh]

	 ================> DF-SCS-MP2 Energies <==================
	-----------------------------------------------------------
	 SCS Same-Spin Scale       =       0.3333333333333333 [-]
	 SCS Opposite-Spin Scale   =       1.2000000000000000 [-]
	 SCS Same-Spin Energy      =      -0.1911384947892691 [Eh]
	 SCS Opposite-Spin Energy  =      -1.9972629883600916 [Eh]
	 SCS Correlation Energy    =      -2.1884014831493608 [Eh]
	 SCS Total Energy          =    -541.7713278341066143 [Eh]
	-----------------------------------------------------------

  Dipole Moment: [D]
     X:     2.4574      Y:    -5.6773      Z:     0.9852     Total:     6.2643

*** Psi4 exiting successfully. Buy a developer a beer!
