                               Psi4 1.3.2 release

  ==> Input File <==

--------------------------------------------------------------------------
#psi4
#
memory 32 gb

molecule  {
0 1
  O        0.1763910     2.6970700    -0.0085580
  C        0.2089260     1.4725840     0.0042240
  N        1.4659430     0.7906670    -0.0052000
  C        1.6696020    -0.5667920     0.0018180
  N        0.7040600    -1.4531590     0.0111340
  C       -0.5247500    -0.8567100    -0.0036900
  C       -0.8535700     0.4975280     0.0150930
  N       -2.2178770     0.6874110     0.0132550
  C       -2.7081380    -0.5423290     0.0003530
  N       -1.7302440    -1.5082620    -0.0074590
  N        2.9897270    -0.9822980    -0.0798890
  H        2.2638450     1.4140280    -0.1046570
  H       -3.7608750    -0.7937900    -0.0035550
  H       -1.8528271    -2.5146796     0.0288151
  H        3.0628590    -1.9839740     0.0678780
  H        3.6422020    -0.4648880     0.5003130
units angstrom
no_reorient  #important for SAPT in psi4, default
symmetry c1  #important for SAPT in psi4, default
}

set PROPERTIES_ORIGIN ["COM"]
properties('MP2/aug-cc-pvtz', properties = ['dipole'])
--------------------------------------------------------------------------

    Molecular point group: c1
  Charge       = 0
  Multiplicity = 1
  Basis Set: AUG-CC-PVTZ
    Blend: AUG-CC-PVTZ
  Basis Set: (AUG-CC-PVTZ AUX)
    Blend: AUG-CC-PVTZ-JKFIT

    Orbital Energies [Eh]
    ---------------------

    Doubly Occupied:

       1A    -20.524420     2A    -15.636285     3A    -15.632003
       4A    -15.612389     5A    -15.573618     6A    -15.565334
       7A    -11.398613     8A    -11.368030     9A    -11.327591
      10A    -11.314310    11A    -11.251487    12A     -1.393568
      13A     -1.360948    14A     -1.335870    15A     -1.220807
      16A     -1.218337    17A     -1.178181    18A     -1.031373
      19A     -0.906846    20A     -0.885256    21A     -0.844742
      22A     -0.799151    23A     -0.740358    24A     -0.730329
      25A     -0.700566    26A     -0.673425    27A     -0.656078
      28A     -0.633818    29A     -0.614914    30A     -0.601840
      31A     -0.596018    32A     -0.547957    33A     -0.499819
      34A     -0.462573    35A     -0.443250    36A     -0.433167
      37A     -0.432622    38A     -0.412246    39A     -0.302934

  @DF-RHF Final Energy:  -539.58749143664738

   => Energetics <=

    Nuclear Repulsion Energy =            593.6492955518510826
    One-Electron Energy =               -1912.7514262698884977
    Two-Electron Energy =                 779.5146392813900320
    Total Energy =                       -539.5874914366473831
  Basis Set: (AUG-CC-PVTZ AUX)
    Blend: AUG-CC-PVTZ-RI
    Molecular point group: c1

    Geometry (in Angstrom), charge = 0, multiplicity = 1:

       Center              X                  Y                   Z               Mass
    ------------   -----------------  -----------------  -----------------  -----------------
         O            0.198410894348     2.668689002705    -0.006008337136    15.994914619570
         C            0.230945894348     1.444203002705     0.006773662864    12.000000000000
         N            1.487962894348     0.762286002705    -0.002650337136    14.003074004430
         C            1.691621894348    -0.595172997295     0.004367662864    12.000000000000
         N            0.726079894348    -1.481539997295     0.013683662864    14.003074004430
         C           -0.502730105652    -0.885090997295    -0.001140337136    12.000000000000
         C           -0.831550105652     0.469147002705     0.017642662864    12.000000000000
         N           -2.195857105652     0.659030002705     0.015804662864    14.003074004430
         C           -2.686118105652    -0.570709997295     0.002902662864    12.000000000000
         N           -1.708224105652    -1.536642997295    -0.004909337136    14.003074004430
         N            3.011746894348    -1.010678997295    -0.077339337136    14.003074004430
         H            2.285864894348     1.385647002705    -0.102107337136     1.007825032230
         H           -3.738855105652    -0.822170997295    -0.001005337136     1.007825032230
         H           -1.830807205652    -2.543060597295     0.031364762864     1.007825032230
         H            3.084878894348    -2.012354997295     0.070427662864     1.007825032230
         H            3.664221894348    -0.493268997295     0.502862662864     1.007825032230

  Basis Set: AUG-CC-PVTZ
    Blend: AUG-CC-PVTZ
  Basis Set: (AUG-CC-PVTZ AUX)
    Blend: AUG-CC-PVTZ-JKFIT
	 Reference Energy          =    -539.5874914366473831 [Eh]
	 Singles Energy            =      -0.0000000000000000 [Eh]
	 Same-Spin Energy          =      -0.5730403237717696 [Eh]
	 Opposite-Spin Energy      =      -1.6632146730116029 [Eh]
	 Correlation Energy        =      -2.2362549967833725 [Eh]
	 Total Energy              =    -541.8237464334307560 [Eh]

	 ================> DF-SCS-MP2 Energies <==================
	-----------------------------------------------------------
	 SCS Same-Spin Scale       =       0.3333333333333333 [-]
	 SCS Opposite-Spin Scale   =       1.2000000000000000 [-]
	 SCS Same-Spin Energy      =      -0.1910134412572565 [Eh]
	 SCS Opposite-Spin Energy  =      -1.9958576076139234 [Eh]
	 SCS Correlation Energy    =      -2.1868710488711800 [Eh]
	 SCS Total Energy          =    -541.7743624855185089 [Eh]
	-----------------------------------------------------------

  Dipole Moment: [D]
     X:     2.6687      Y:    -5.6338      Z:     0.9183     Total:     6.3012

*** Psi4 exiting successfully. Buy a developer a beer!
