                               Psi4 1.3.2 release

  ==> Input File <==

--------------------------------------------------------------------------
#psi4
#
memory 32 gb

molecule  {
0 1
  O        0.1763910     2.6970700    -0.0085580
  C        0.2089260     1.4725840     0.0042240
  N        1.4659430     0.7906670    -0.0052000
  C        1.6696020    -0.5667920     0.0018180
  N        0.7040600    -1.4531590     0.0111340
  C       -0.5247500    -0.8567100    -0.0036900
  C       -0.8535700     0.4975280     0.0150930
  N       -2.2178770     0.6874110     0.0132550
  C       -2.7081380    -0.5423290     0.0003530
  N       -1.7317353    -1.5098587     0.1925291
  N        2.9897270    -0.9822980    -0.0798890
  H        2.2638450     1.4140280    -0.1046570
  H       -3.7608750    -0.7937900    -0.0035550
  H       -1.8528420    -2.5141400    -0.0211820
  H        3.0628590    -1.9839740     0.0678780
  H        3.6422020    -0.4648880     0.5003130
units angstrom
no_reorient  #important for SAPT in psi4, default
symmetry c1  #important for SAPT in psi4, default
}

set PROPERTIES_ORIGIN ["COM"]
properties('MP2/aug-cc-pvtz', properties = ['dipole'])
--------------------------------------------------------------------------

    Molecular point group: c1
  Charge       = 0
  Multiplicity = 1
  Basis Set: AUG-CC-PVTZ
    Blend: AUG-CC-PVTZ
  Basis Set: (AUG-CC-PVTZ AUX)
    Blend: AUG-CC-PVTZ-JKFIT

    Orbital Energies [Eh]
    ---------------------

    Doubly Occupied:

       1A    -20.525253     2A    -15.635971     3A    -15.633052
       4A    -15.613030     5A    -15.574408     6A    -15.567575
       7A    -11.399506     8A    -11.368893     9A    -11.329455
      10A    -11.315850    11A    -11.253272    12A     -1.393871
      13A     -1.358014    14A     -1.335076    15A     -1.221498
      16A     -1.218926    17A     -1.175875    18A     -1.031130
      19A     -0.903889    20A     -0.886002    21A     -0.837649
      22A     -0.797336    23A     -0.739309    24A     -0.729150
      25A     -0.700310    26A     -0.670849    27A     -0.656225
      28A     -0.630253    29A     -0.613121    30A     -0.602744
      31A     -0.595304    32A     -0.547989    33A     -0.499405
      34A     -0.464246    35A     -0.443913    36A     -0.436131
      37A     -0.430527    38A     -0.416173    39A     -0.302981

  @DF-RHF Final Energy:  -539.57908529655083

   => Energetics <=

    Nuclear Repulsion Energy =            593.0559334331697983
    One-Electron Energy =               -1911.5617163892268309
    Two-Electron Energy =                 778.9266976595060896
    Total Energy =                       -539.5790852965508293
  Basis Set: (AUG-CC-PVTZ AUX)
    Blend: AUG-CC-PVTZ-RI
    Molecular point group: c1

    Geometry (in Angstrom), charge = 0, multiplicity = 1:

       Center              X                  Y                   Z               Mass
    ------------   -----------------  -----------------  -----------------  -----------------
         O            0.198549245110     2.668833424891    -0.024214696492    15.994914619570
         C            0.231084245110     1.444347424891    -0.011432696492    12.000000000000
         N            1.488101245110     0.762430424891    -0.020856696492    14.003074004430
         C            1.691760245110    -0.595028575109    -0.013838696492    12.000000000000
         N            0.726218245110    -1.481395575109    -0.004522696492    14.003074004430
         C           -0.502591754890    -0.884946575109    -0.019346696492    12.000000000000
         C           -0.831411754890     0.469291424891    -0.000563696492    12.000000000000
         N           -2.195718754890     0.659174424891    -0.002401696492    14.003074004430
         C           -2.685979754890    -0.570565575109    -0.015303696492    12.000000000000
         N           -1.709577054890    -1.538095275109     0.176872403508    14.003074004430
         N            3.011885245110    -1.010534575109    -0.095545696492    14.003074004430
         H            2.286003245110     1.385791424891    -0.120313696492     1.007825032230
         H           -3.738716754890    -0.822026575109    -0.019211696492     1.007825032230
         H           -1.830683754890    -2.542376575109    -0.036838696492     1.007825032230
         H            3.085017245110    -2.012210575109     0.052221303508     1.007825032230
         H            3.664360245110    -0.493124575109     0.484656303508     1.007825032230

  Basis Set: AUG-CC-PVTZ
    Blend: AUG-CC-PVTZ
  Basis Set: (AUG-CC-PVTZ AUX)
    Blend: AUG-CC-PVTZ-JKFIT
	 Reference Energy          =    -539.5790852965508293 [Eh]
	 Singles Energy            =      -0.0000000000000000 [Eh]
	 Same-Spin Energy          =      -0.5732061361636273 [Eh]
	 Opposite-Spin Energy      =      -1.6642627658865528 [Eh]
	 Correlation Energy        =      -2.2374689020501801 [Eh]
	 Total Energy              =    -541.8165541986010112 [Eh]

	 ================> DF-SCS-MP2 Energies <==================
	-----------------------------------------------------------
	 SCS Same-Spin Scale       =       0.3333333333333333 [-]
	 SCS Opposite-Spin Scale   =       1.2000000000000000 [-]
	 SCS Same-Spin Energy      =      -0.1910687120545424 [Eh]
	 SCS Opposite-Spin Energy  =      -1.9971153190638633 [Eh]
	 SCS Correlation Energy    =      -2.1881840311184058 [Eh]
	 SCS Total Energy          =    -541.7672693276692826 [Eh]
	-----------------------------------------------------------

  Dipole Moment: [D]
     X:     2.7393      Y:    -5.4866      Z:     0.6500     Total:     6.1668

*** Psi4 exiting successfully. Buy a developer a beer!
