                               Psi4 1.3.2 release

  ==> Input File <==

--------------------------------------------------------------------------
#psi4
#
memory 32 gb

molecule  {
0 1
  O        0.1763910     2.6970700    -0.0085580
  C        0.2089260     1.4725840     0.0042240
  N        1.4659430     0.7906670    -0.0052000
  C        1.6696020    -0.5667920     0.0018180
  N        0.7040600    -1.4531590     0.0111340
  C       -0.5247500    -0.8567100    -0.0036900
  C       -0.8535700     0.4975280     0.0150930
  N       -2.2178770     0.6874110     0.0132550
  C       -2.7081380    -0.5423290     0.0003530
  N       -1.7302440    -1.5082620    -0.0074590
  N        2.9897270    -0.9822980    -0.0798890
  H        2.2638450     1.4140280    -0.1046570
  H       -3.7604962    -0.7913475    -0.2535428
  H       -1.8528420    -2.5141400    -0.0211820
  H        3.0628590    -1.9839740     0.0678780
  H        3.6422020    -0.4648880     0.5003130
units angstrom
no_reorient  #important for SAPT in psi4, default
symmetry c1  #important for SAPT in psi4, default
}

set PROPERTIES_ORIGIN ["COM"]
properties('MP2/aug-cc-pvtz', properties = ['dipole'])
--------------------------------------------------------------------------

    Molecular point group: c1
  Charge       = 0
  Multiplicity = 1
  Basis Set: AUG-CC-PVTZ
    Blend: AUG-CC-PVTZ
  Basis Set: (AUG-CC-PVTZ AUX)
    Blend: AUG-CC-PVTZ-JKFIT

    Orbital Energies [Eh]
    ---------------------

    Doubly Occupied:

       1A    -20.524864     2A    -15.636039     3A    -15.632341
       4A    -15.612671     5A    -15.573893     6A    -15.566209
       7A    -11.399049     8A    -11.368458     9A    -11.328134
      10A    -11.316154    11A    -11.252044    12A     -1.393949
      13A     -1.361194    14A     -1.336175    15A     -1.221134
      16A     -1.218693    17A     -1.178556    18A     -1.031067
      19A     -0.906132    20A     -0.885295    21A     -0.844043
      22A     -0.798083    23A     -0.740302    24A     -0.729341
      25A     -0.700348    26A     -0.673346    27A     -0.654810
      28A     -0.635109    29A     -0.615385    30A     -0.605622
      31A     -0.586436    32A     -0.548275    33A     -0.499983
      34A     -0.463204    35A     -0.443410    36A     -0.433980
      37A     -0.432442    38A     -0.412363    39A     -0.303178

  @DF-RHF Final Energy:  -539.58365462029428

   => Energetics <=

    Nuclear Repulsion Energy =            593.5450986007633674
    One-Electron Energy =               -1912.5340809781023381
    Two-Electron Energy =                 779.4053277570446880
    Total Energy =                       -539.5836546202942827
  Basis Set: (AUG-CC-PVTZ AUX)
    Blend: AUG-CC-PVTZ-RI
    Molecular point group: c1

    Geometry (in Angstrom), charge = 0, multiplicity = 1:

       Center              X                  Y                   Z               Mass
    ------------   -----------------  -----------------  -----------------  -----------------
         O            0.198408466351     2.668669105673    -0.004006791470    15.994914619570
         C            0.230943466351     1.444183105673     0.008775208530    12.000000000000
         N            1.487960466351     0.762266105673    -0.000648791470    14.003074004430
         C            1.691619466351    -0.595192894327     0.006369208530    12.000000000000
         N            0.726077466351    -1.481559894327     0.015685208530    14.003074004430
         C           -0.502732533649    -0.885110894327     0.000861208530    12.000000000000
         C           -0.831552533649     0.469127105673     0.019644208530    12.000000000000
         N           -2.195859533649     0.659010105673     0.017806208530    14.003074004430
         C           -2.686120533649    -0.570729894327     0.004904208530    12.000000000000
         N           -1.708226533649    -1.536662894327    -0.002907791470    14.003074004430
         N            3.011744466351    -1.010698894327    -0.075337791470    14.003074004430
         H            2.285862466351     1.385627105673    -0.100105791470     1.007825032230
         H           -3.738478733649    -0.819748394327    -0.248991591470     1.007825032230
         H           -1.830824533649    -2.542540894327    -0.016630791470     1.007825032230
         H            3.084876466351    -2.012374894327     0.072429208530     1.007825032230
         H            3.664219466351    -0.493288894327     0.504864208530     1.007825032230

  Basis Set: AUG-CC-PVTZ
    Blend: AUG-CC-PVTZ
  Basis Set: (AUG-CC-PVTZ AUX)
    Blend: AUG-CC-PVTZ-JKFIT
	 Reference Energy          =    -539.5836546202942827 [Eh]
	 Singles Energy            =      -0.0000000000000000 [Eh]
	 Same-Spin Energy          =      -0.5732936792929701 [Eh]
	 Opposite-Spin Energy      =      -1.6637212453877037 [Eh]
	 Correlation Energy        =      -2.2370149246806736 [Eh]
	 Total Energy              =    -541.8206695449749759 [Eh]

	 ================> DF-SCS-MP2 Energies <==================
	-----------------------------------------------------------
	 SCS Same-Spin Scale       =       0.3333333333333333 [-]
	 SCS Opposite-Spin Scale   =       1.2000000000000000 [-]
	 SCS Same-Spin Energy      =      -0.1910978930976567 [Eh]
	 SCS Opposite-Spin Energy  =      -1.9964654944652445 [Eh]
	 SCS Correlation Energy    =      -2.1875633875629013 [Eh]
	 SCS Total Energy          =    -541.7712180078572146 [Eh]
	-----------------------------------------------------------

  Dipole Moment: [D]
     X:     2.7365      Y:    -5.6054      Z:     0.6651     Total:     6.2730

*** Psi4 exiting successfully. Buy a developer a beer!
