                               Psi4 1.3.2 release

  ==> Input File <==

--------------------------------------------------------------------------
#psi4
#
memory 32 gb

molecule  {
0 1
  O        0.1763910     2.6970700    -0.0085580
  C        0.2089260     1.4725840     0.0042240
  N        1.4659430     0.7906670    -0.0052000
  C        1.6696020    -0.5667920     0.0018180
  N        0.7040600    -1.4531590     0.0111340
  C       -0.5247500    -0.8567100    -0.0036900
  C       -0.8535700     0.4975280     0.0150930
  N       -2.2178770     0.6874110     0.0132550
  C       -2.7081380    -0.5423290     0.0003530
  N       -1.7302440    -1.5082620    -0.0074590
  N        2.9897270    -0.9822980    -0.0798890
  H        2.2638450     1.4140280    -0.1046570
  H       -3.7608750    -0.7937900    -0.0035550
  H       -1.8527825    -2.5162983     0.1788063
  H        3.0628590    -1.9839740     0.0678780
  H        3.6422020    -0.4648880     0.5003130
units angstrom
no_reorient  #important for SAPT in psi4, default
symmetry c1  #important for SAPT in psi4, default
}

set PROPERTIES_ORIGIN ["COM"]
properties('MP2/aug-cc-pvtz', properties = ['dipole'])
--------------------------------------------------------------------------

    Molecular point group: c1
  Charge       = 0
  Multiplicity = 1
  Basis Set: AUG-CC-PVTZ
    Blend: AUG-CC-PVTZ
  Basis Set: (AUG-CC-PVTZ AUX)
    Blend: AUG-CC-PVTZ-JKFIT

    Orbital Energies [Eh]
    ---------------------

    Doubly Occupied:

       1A    -20.524497     2A    -15.636930     3A    -15.632101
       4A    -15.612428     5A    -15.573649     6A    -15.565598
       7A    -11.398663     8A    -11.368091     9A    -11.327487
      10A    -11.314119    11A    -11.251652    12A     -1.393577
      13A     -1.360555    14A     -1.335766    15A     -1.220844
      16A     -1.218327    17A     -1.176755    18A     -1.031341
      19A     -0.906367    20A     -0.885254    21A     -0.840640
      22A     -0.798499    23A     -0.740321    24A     -0.730328
      25A     -0.699697    26A     -0.673754    27A     -0.654638
      28A     -0.633728    29A     -0.615678    30A     -0.602718
      31A     -0.593392    32A     -0.548042    33A     -0.499711
      34A     -0.462588    35A     -0.443348    36A     -0.433262
      37A     -0.432666    38A     -0.412468    39A     -0.302997

  @DF-RHF Final Energy:  -539.58575996797879

   => Energetics <=

    Nuclear Repulsion Energy =            593.5628779895754406
    One-Electron Energy =               -1912.5923314707245027
    Two-Electron Energy =                 779.4436935131703876
    Total Energy =                       -539.5857599679787882
  Basis Set: (AUG-CC-PVTZ AUX)
    Blend: AUG-CC-PVTZ-RI
    Molecular point group: c1

    Geometry (in Angstrom), charge = 0, multiplicity = 1:

       Center              X                  Y                   Z               Mass
    ------------   -----------------  -----------------  -----------------  -----------------
         O            0.198410596770     2.668699802922    -0.007009101629    15.994914619570
         C            0.230945596770     1.444213802922     0.005772898371    12.000000000000
         N            1.487962596770     0.762296802922    -0.003651101629    14.003074004430
         C            1.691621596770    -0.595162197078     0.003366898371    12.000000000000
         N            0.726079596770    -1.481529197078     0.012682898371    14.003074004430
         C           -0.502730403230    -0.885080197078    -0.002141101629    12.000000000000
         C           -0.831550403230     0.469157802922     0.016641898371    12.000000000000
         N           -2.195857403230     0.659040802922     0.014803898371    14.003074004430
         C           -2.686118403230    -0.570699197078     0.001901898371    12.000000000000
         N           -1.708224403230    -1.536632197078    -0.005910101629    14.003074004430
         N            3.011746596770    -1.010668197078    -0.078340101629    14.003074004430
         H            2.285864596770     1.385657802922    -0.103108101629     1.007825032230
         H           -3.738855403230    -0.822160197078    -0.002006101629     1.007825032230
         H           -1.830762903230    -2.544668497078     0.180355198371     1.007825032230
         H            3.084878596770    -2.012344197078     0.069426898371     1.007825032230
         H            3.664221596770    -0.493258197078     0.501861898371     1.007825032230

  Basis Set: AUG-CC-PVTZ
    Blend: AUG-CC-PVTZ
  Basis Set: (AUG-CC-PVTZ AUX)
    Blend: AUG-CC-PVTZ-JKFIT
	 Reference Energy          =    -539.5857599679787882 [Eh]
	 Singles Energy            =      -0.0000000000000000 [Eh]
	 Same-Spin Energy          =      -0.5731531398584366 [Eh]
	 Opposite-Spin Energy      =      -1.6634808074678709 [Eh]
	 Correlation Energy        =      -2.2366339473263075 [Eh]
	 Total Energy              =    -541.8223939153050424 [Eh]

	 ================> DF-SCS-MP2 Energies <==================
	-----------------------------------------------------------
	 SCS Same-Spin Scale       =       0.3333333333333333 [-]
	 SCS Opposite-Spin Scale   =       1.2000000000000000 [-]
	 SCS Same-Spin Energy      =      -0.1910510466194789 [Eh]
	 SCS Opposite-Spin Energy  =      -1.9961769689614450 [Eh]
	 SCS Correlation Energy    =      -2.1872280155809238 [Eh]
	 SCS Total Energy          =    -541.7729879835596876 [Eh]
	-----------------------------------------------------------

  Dipole Moment: [D]
     X:     2.6756      Y:    -5.6115      Z:     1.1397     Total:     6.3203

*** Psi4 exiting successfully. Buy a developer a beer!
