                               Psi4 1.3.2 release

  ==> Input File <==

--------------------------------------------------------------------------
#psi4
#
memory 32 gb

molecule  {
0 1
  O        0.1763910     2.6970700    -0.0085580
  C        0.2089260     1.4725840     0.0042240
  N        1.4659430     0.7906670    -0.0052000
  C        1.6696020    -0.5667920     0.0018180
  N        0.7040600    -1.4531590     0.0111340
  C       -0.5247500    -0.8567100    -0.0036900
  C       -0.8535700     0.4975280     0.0150930
  N       -2.2194872     0.6889374    -0.2867368
  C       -2.7081380    -0.5423290     0.0003530
  N       -1.7302440    -1.5082620    -0.0074590
  N        2.9897270    -0.9822980    -0.0798890
  H        2.2638450     1.4140280    -0.1046570
  H       -3.7608750    -0.7937900    -0.0035550
  H       -1.8528420    -2.5141400    -0.0211820
  H        3.0628590    -1.9839740     0.0678780
  H        3.6422020    -0.4648880     0.5003130
units angstrom
no_reorient  #important for SAPT in psi4, default
symmetry c1  #important for SAPT in psi4, default
}

set PROPERTIES_ORIGIN ["COM"]
properties('MP2/aug-cc-pvtz', properties = ['dipole'])
--------------------------------------------------------------------------

    Molecular point group: c1
  Charge       = 0
  Multiplicity = 1
  Basis Set: AUG-CC-PVTZ
    Blend: AUG-CC-PVTZ
  Basis Set: (AUG-CC-PVTZ AUX)
    Blend: AUG-CC-PVTZ-JKFIT

    Orbital Energies [Eh]
    ---------------------

    Doubly Occupied:

       1A    -20.524388     2A    -15.637359     3A    -15.632017
       4A    -15.612738     5A    -15.574389     6A    -15.572120
       7A    -11.399072     8A    -11.367553     9A    -11.329089
      10A    -11.321023    11A    -11.253384    12A     -1.392996
      13A     -1.358798    14A     -1.334322    15A     -1.220981
      16A     -1.216197    17A     -1.170535    18A     -1.029553
      19A     -0.907043    20A     -0.883962    21A     -0.844085
      22A     -0.799008    23A     -0.738084    24A     -0.727615
      25A     -0.701003    26A     -0.672772    27A     -0.658073
      28A     -0.630215    29A     -0.613968    30A     -0.598220
      31A     -0.588763    32A     -0.547120    33A     -0.502467
      34A     -0.461543    35A     -0.447241    36A     -0.437480
      37A     -0.429415    38A     -0.402453    39A     -0.300935

  @DF-RHF Final Energy:  -539.56524394746089

   => Energetics <=

    Nuclear Repulsion Energy =            592.4977340741421585
    One-Electron Energy =               -1910.4499917908383395
    Two-Electron Energy =                 778.3870137692354092
    Total Energy =                       -539.5652439474608855
  Basis Set: (AUG-CC-PVTZ AUX)
    Blend: AUG-CC-PVTZ-RI
    Molecular point group: c1

    Geometry (in Angstrom), charge = 0, multiplicity = 1:

       Center              X                  Y                   Z               Mass
    ------------   -----------------  -----------------  -----------------  -----------------
         O            0.198560267765     2.668543897110     0.022136067470    15.994914619570
         C            0.231095267765     1.444057897110     0.034918067470    12.000000000000
         N            1.488112267765     0.762140897110     0.025494067470    14.003074004430
         C            1.691771267765    -0.595318102890     0.032512067470    12.000000000000
         N            0.726229267765    -1.481685102890     0.041828067470    14.003074004430
         C           -0.502580732235    -0.885236102890     0.027004067470    12.000000000000
         C           -0.831400732235     0.469001897110     0.045787067470    12.000000000000
         N           -2.197317932235     0.660411297110    -0.256042732530    14.003074004430
         C           -2.685968732235    -0.570855102890     0.031047067470    12.000000000000
         N           -1.708074732235    -1.536788102890     0.023235067470    14.003074004430
         N            3.011896267765    -1.010824102890    -0.049194932530    14.003074004430
         H            2.286014267765     1.385501897110    -0.073962932530     1.007825032230
         H           -3.738705732235    -0.822316102890     0.027139067470     1.007825032230
         H           -1.830672732235    -2.542666102890     0.009512067470     1.007825032230
         H            3.085028267765    -2.012500102890     0.098572067470     1.007825032230
         H            3.664371267765    -0.493414102890     0.531007067470     1.007825032230

  Basis Set: AUG-CC-PVTZ
    Blend: AUG-CC-PVTZ
  Basis Set: (AUG-CC-PVTZ AUX)
    Blend: AUG-CC-PVTZ-JKFIT
	 Reference Energy          =    -539.5652439474608855 [Eh]
	 Singles Energy            =      -0.0000000000000000 [Eh]
	 Same-Spin Energy          =      -0.5740178442676274 [Eh]
	 Opposite-Spin Energy      =      -1.6664021138932981 [Eh]
	 Correlation Energy        =      -2.2404199581609254 [Eh]
	 Total Energy              =    -541.8056639056218273 [Eh]

	 ================> DF-SCS-MP2 Energies <==================
	-----------------------------------------------------------
	 SCS Same-Spin Scale       =       0.3333333333333333 [-]
	 SCS Opposite-Spin Scale   =       1.2000000000000000 [-]
	 SCS Same-Spin Energy      =      -0.1913392814225424 [Eh]
	 SCS Opposite-Spin Energy  =      -1.9996825366719575 [Eh]
	 SCS Correlation Energy    =      -2.1910218180944998 [Eh]
	 SCS Total Energy          =    -541.7562657655554403 [Eh]
	-----------------------------------------------------------

  Dipole Moment: [D]
     X:     2.7126      Y:    -5.6389      Z:     1.2227     Total:     6.3758

*** Psi4 exiting successfully. Buy a developer a beer!
