                               Psi4 1.3.2 release

  ==> Input File <==

--------------------------------------------------------------------------
#psi4
#
memory 32 gb

molecule  {
0 1
  N       -0.5109270    -0.9518430    -0.0269340
  C        0.4705472    -0.0827272    -0.0074710
  C        1.7238140    -0.5084530    -0.7342290
  C        0.4670650     1.2778240     0.6138280
  C        2.7894260    -0.9991790     0.2510720
  C       -0.1640310     2.3214140    -0.3160410
  C       -1.7763620    -0.6501130     0.6316150
  C       -2.8974570    -0.7179310    -0.4005860
  H        2.1129470     0.3411750    -1.3109330
  H        1.4703830    -1.3072380    -1.4363190
  H       -0.0513810     1.2722970     1.5772600
  H        1.5049820     1.5584610     0.8223980
  H        3.0556910    -0.2252510     0.9773740
  H        2.4162060    -1.8680970     0.7997060
  H        3.7027550    -1.2914870    -0.2753070
  H        0.3474740     2.3390420    -1.2828520
  H       -0.0995980     3.3230440     0.1193210
  H       -1.2176240     2.0946990    -0.4987850
  H       -1.9345560    -1.4260300     1.3901820
  H       -1.8022440     0.3193480     1.1465960
  H       -3.8733410    -0.5778450     0.0742730
  H       -2.7667840     0.0602240    -1.1578580
  H       -2.8841180    -1.6872020    -0.9036440
units angstrom
no_reorient  #important for SAPT in psi4, default
symmetry c1  #important for SAPT in psi4, default
}

set PROPERTIES_ORIGIN ["COM"]
properties('MP2/aug-cc-pvtz', properties = ['dipole'])
--------------------------------------------------------------------------

    Molecular point group: c1
  Charge       = 0
  Multiplicity = 1
  Basis Set: AUG-CC-PVTZ
    Blend: AUG-CC-PVTZ
  Basis Set: (AUG-CC-PVTZ AUX)
    Blend: AUG-CC-PVTZ-JKFIT

    Orbital Energies [Eh]
    ---------------------

    Doubly Occupied:

       1A    -15.540430     2A    -11.274489     3A    -11.239666
       4A    -11.234393     5A    -11.227832     6A    -11.222074
       7A    -11.217275     8A    -11.206031     9A     -1.209324
      10A     -1.068821    11A     -1.028166    12A     -0.990104
      13A     -0.893656    14A     -0.859665    15A     -0.819026
      16A     -0.705670    17A     -0.663805    18A     -0.642652
      19A     -0.598992    20A     -0.592163    21A     -0.589268
      22A     -0.557571    23A     -0.541008    24A     -0.523199
      25A     -0.519999    26A     -0.511419    27A     -0.508416
      28A     -0.487874    29A     -0.483125    30A     -0.469171
      31A     -0.382748    32A     -0.372099

  @DF-RHF Final Energy:  -328.35601057592265

   => Energetics <=

    Nuclear Repulsion Energy =            388.7009648720251676
    One-Electron Energy =               -1213.7536923983698216
    Two-Electron Energy =                 496.6967169504219441
    Total Energy =                       -328.3560105759226531
  Basis Set: (AUG-CC-PVTZ AUX)
    Blend: AUG-CC-PVTZ-RI
    Molecular point group: c1

    Geometry (in Angstrom), charge = 0, multiplicity = 1:

       Center              X                  Y                   Z               Mass
    ------------   -----------------  -----------------  -----------------  -----------------
         N           -0.512536960938    -0.928057017297    -0.028019862508    14.003074004430
         C            0.468937239062    -0.058941217297    -0.008556862508    12.000000000000
         C            1.722204039062    -0.484667017297    -0.735314862508    12.000000000000
         C            0.465455039062     1.301609982703     0.612742137492    12.000000000000
         C            2.787816039062    -0.975393017297     0.249986137492    12.000000000000
         C           -0.165640960938     2.345199982703    -0.317126862508    12.000000000000
         C           -1.777971960938    -0.626327017297     0.630529137492    12.000000000000
         C           -2.899066960938    -0.694145017297    -0.401671862508    12.000000000000
         H            2.111337039062     0.364960982703    -1.312018862508     1.007825032230
         H            1.468773039062    -1.283452017297    -1.437404862508     1.007825032230
         H           -0.052990960938     1.296082982703     1.576174137492     1.007825032230
         H            1.503372039062     1.582246982703     0.821312137492     1.007825032230
         H            3.054081039062    -0.201465017297     0.976288137492     1.007825032230
         H            2.414596039062    -1.844311017297     0.798620137492     1.007825032230
         H            3.701145039062    -1.267701017297    -0.276392862508     1.007825032230
         H            0.345864039062     2.362827982703    -1.283937862508     1.007825032230
         H           -0.101207960938     3.346829982703     0.118235137492     1.007825032230
         H           -1.219233960938     2.118484982703    -0.499870862508     1.007825032230
         H           -1.936165960938    -1.402244017297     1.389096137492     1.007825032230
         H           -1.803853960938     0.343133982703     1.145510137492     1.007825032230
         H           -3.874950960938    -0.554059017297     0.073187137492     1.007825032230
         H           -2.768393960938     0.084009982703    -1.158943862508     1.007825032230
         H           -2.885727960938    -1.663416017297    -0.904729862508     1.007825032230

  Basis Set: AUG-CC-PVTZ
    Blend: AUG-CC-PVTZ
  Basis Set: (AUG-CC-PVTZ AUX)
    Blend: AUG-CC-PVTZ-JKFIT
	 Reference Energy          =    -328.3560105759226531 [Eh]
	 Singles Energy            =      -0.0000000000000000 [Eh]
	 Same-Spin Energy          =      -0.3505262665776251 [Eh]
	 Opposite-Spin Energy      =      -1.2492993921183033 [Eh]
	 Correlation Energy        =      -1.5998256586959285 [Eh]
	 Total Energy              =    -329.9558362346185731 [Eh]

	 ================> DF-SCS-MP2 Energies <==================
	-----------------------------------------------------------
	 SCS Same-Spin Scale       =       0.3333333333333333 [-]
	 SCS Opposite-Spin Scale   =       1.2000000000000000 [-]
	 SCS Same-Spin Energy      =      -0.1168420888592084 [Eh]
	 SCS Opposite-Spin Energy  =      -1.4991592705419639 [Eh]
	 SCS Correlation Energy    =      -1.6160013594011722 [Eh]
	 SCS Total Energy          =    -329.9720119353238488 [Eh]
	-----------------------------------------------------------

  Dipole Moment: [D]
     X:     0.4124      Y:     1.7598      Z:     0.6164     Total:     1.9097

*** Psi4 exiting successfully. Buy a developer a beer!
