                               Psi4 1.3.2 release

  ==> Input File <==

--------------------------------------------------------------------------
#psi4
#
memory 32 gb

molecule  {
0 1
  N       -0.4580889    -1.0068346    -0.0746542
  C        0.4568270    -0.1006020    -0.0211380
  C        1.7238140    -0.5084530    -0.7342290
  C        0.4670650     1.2778240     0.6138280
  C        2.7894260    -0.9991790     0.2510720
  C       -0.1640310     2.3214140    -0.3160410
  C       -1.7763620    -0.6501130     0.6316150
  C       -2.8974570    -0.7179310    -0.4005860
  H        2.1129470     0.3411750    -1.3109330
  H        1.4703830    -1.3072380    -1.4363190
  H       -0.0513810     1.2722970     1.5772600
  H        1.5049820     1.5584610     0.8223980
  H        3.0556910    -0.2252510     0.9773740
  H        2.4162060    -1.8680970     0.7997060
  H        3.7027550    -1.2914870    -0.2753070
  H        0.3474740     2.3390420    -1.2828520
  H       -0.0995980     3.3230440     0.1193210
  H       -1.2176240     2.0946990    -0.4987850
  H       -1.9345560    -1.4260300     1.3901820
  H       -1.8022440     0.3193480     1.1465960
  H       -3.8733410    -0.5778450     0.0742730
  H       -2.7667840     0.0602240    -1.1578580
  H       -2.8841180    -1.6872020    -0.9036440
units angstrom
no_reorient  #important for SAPT in psi4, default
symmetry c1  #important for SAPT in psi4, default
}

set PROPERTIES_ORIGIN ["COM"]
properties('MP2/aug-cc-pvtz', properties = ['dipole'])
--------------------------------------------------------------------------

    Molecular point group: c1
  Charge       = 0
  Multiplicity = 1
  Basis Set: AUG-CC-PVTZ
    Blend: AUG-CC-PVTZ
  Basis Set: (AUG-CC-PVTZ AUX)
    Blend: AUG-CC-PVTZ-JKFIT

    Orbital Energies [Eh]
    ---------------------

    Doubly Occupied:

       1A    -15.546042     2A    -11.271213     3A    -11.244491
       4A    -11.237919     5A    -11.228511     6A    -11.217821
       7A    -11.215412     8A    -11.207145     9A     -1.207838
      10A     -1.060907    11A     -1.027992    12A     -0.992994
      13A     -0.888881    14A     -0.858532    15A     -0.816673
      16A     -0.702505    17A     -0.659036    18A     -0.640386
      19A     -0.598499    20A     -0.590527    21A     -0.585585
      22A     -0.554890    23A     -0.541550    24A     -0.522760
      25A     -0.519460    26A     -0.508985    27A     -0.507445
      28A     -0.488047    29A     -0.479363    30A     -0.467215
      31A     -0.386365    32A     -0.382460

  @DF-RHF Final Energy:  -328.35168422847465

   => Energetics <=

    Nuclear Repulsion Energy =            387.7517743924360616
    One-Electron Energy =               -1211.8920168807853770
    Two-Electron Energy =                 495.7885582598746055
    Total Energy =                       -328.3516842284746531
  Basis Set: (AUG-CC-PVTZ AUX)
    Blend: AUG-CC-PVTZ-RI
    Molecular point group: c1

    Geometry (in Angstrom), charge = 0, multiplicity = 1:

       Center              X                  Y                   Z               Mass
    ------------   -----------------  -----------------  -----------------  -----------------
         N           -0.464784178642    -0.974345071220    -0.068383006415    14.003074004430
         C            0.450131721358    -0.068112471220    -0.014866806415    12.000000000000
         C            1.717118721358    -0.475963471220    -0.727957806415    12.000000000000
         C            0.460369721358     1.310313528780     0.620099193585    12.000000000000
         C            2.782730721358    -0.966689471220     0.257343193585    12.000000000000
         C           -0.170726278642     2.353903528780    -0.309769806415    12.000000000000
         C           -1.783057278642    -0.617623471220     0.637886193585    12.000000000000
         C           -2.904152278642    -0.685441471220    -0.394314806415    12.000000000000
         H            2.106251721358     0.373664528780    -1.304661806415     1.007825032230
         H            1.463687721358    -1.274748471220    -1.430047806415     1.007825032230
         H           -0.058076278642     1.304786528780     1.583531193585     1.007825032230
         H            1.498286721358     1.590950528780     0.828669193585     1.007825032230
         H            3.048995721358    -0.192761471220     0.983645193585     1.007825032230
         H            2.409510721358    -1.835607471220     0.805977193585     1.007825032230
         H            3.696059721358    -1.258997471220    -0.269035806415     1.007825032230
         H            0.340778721358     2.371531528780    -1.276580806415     1.007825032230
         H           -0.106293278642     3.355533528780     0.125592193585     1.007825032230
         H           -1.224319278642     2.127188528780    -0.492513806415     1.007825032230
         H           -1.941251278642    -1.393540471220     1.396453193585     1.007825032230
         H           -1.808939278642     0.351837528780     1.152867193585     1.007825032230
         H           -3.880036278642    -0.545355471220     0.080544193585     1.007825032230
         H           -2.773479278642     0.092713528780    -1.151586806415     1.007825032230
         H           -2.890813278642    -1.654712471220    -0.897372806415     1.007825032230

  Basis Set: AUG-CC-PVTZ
    Blend: AUG-CC-PVTZ
  Basis Set: (AUG-CC-PVTZ AUX)
    Blend: AUG-CC-PVTZ-JKFIT
	 Reference Energy          =    -328.3516842284746531 [Eh]
	 Singles Energy            =      -0.0000000000000000 [Eh]
	 Same-Spin Energy          =      -0.3500197524231273 [Eh]
	 Opposite-Spin Energy      =      -1.2498062527844960 [Eh]
	 Correlation Energy        =      -1.5998260052076232 [Eh]
	 Total Energy              =    -329.9515102336822565 [Eh]

	 ================> DF-SCS-MP2 Energies <==================
	-----------------------------------------------------------
	 SCS Same-Spin Scale       =       0.3333333333333333 [-]
	 SCS Opposite-Spin Scale   =       1.2000000000000000 [-]
	 SCS Same-Spin Energy      =      -0.1166732508077091 [Eh]
	 SCS Opposite-Spin Energy  =      -1.4997675033413951 [Eh]
	 SCS Correlation Energy    =      -1.6164407541491042 [Eh]
	 SCS Total Energy          =    -329.9681249826237490 [Eh]
	-----------------------------------------------------------

  Dipole Moment: [D]
     X:     0.2898      Y:     1.8624      Z:     0.6956     Total:     2.0090

*** Psi4 exiting successfully. Buy a developer a beer!
