                               Psi4 1.3.2 release

  ==> Input File <==

--------------------------------------------------------------------------
#psi4
#
memory 32 gb

molecule  {
0 1
  N       -0.5109270    -0.9518430    -0.0269340
  C        0.4039114    -0.0455210     0.0263929
  C        1.7238140    -0.5084530    -0.7342290
  C        0.4670650     1.2778240     0.6138280
  C        2.7894260    -0.9991790     0.2510720
  C       -0.1640310     2.3214140    -0.3160410
  C       -1.7763620    -0.6501130     0.6316150
  C       -2.8974570    -0.7179310    -0.4005860
  H        2.1129470     0.3411750    -1.3109330
  H        1.4703830    -1.3072380    -1.4363190
  H       -0.0513810     1.2722970     1.5772600
  H        1.5049820     1.5584610     0.8223980
  H        3.0556910    -0.2252510     0.9773740
  H        2.4162060    -1.8680970     0.7997060
  H        3.7027550    -1.2914870    -0.2753070
  H        0.3474740     2.3390420    -1.2828520
  H       -0.0995980     3.3230440     0.1193210
  H       -1.2176240     2.0946990    -0.4987850
  H       -1.9345560    -1.4260300     1.3901820
  H       -1.8022440     0.3193480     1.1465960
  H       -3.8733410    -0.5778450     0.0742730
  H       -2.7667840     0.0602240    -1.1578580
  H       -2.8841180    -1.6872020    -0.9036440
units angstrom
no_reorient  #important for SAPT in psi4, default
symmetry c1  #important for SAPT in psi4, default
}

set PROPERTIES_ORIGIN ["COM"]
properties('MP2/aug-cc-pvtz', properties = ['dipole'])
--------------------------------------------------------------------------

    Molecular point group: c1
  Charge       = 0
  Multiplicity = 1
  Basis Set: AUG-CC-PVTZ
    Blend: AUG-CC-PVTZ
  Basis Set: (AUG-CC-PVTZ AUX)
    Blend: AUG-CC-PVTZ-JKFIT

    Orbital Energies [Eh]
    ---------------------

    Doubly Occupied:

       1A    -15.541118     2A    -11.272795     3A    -11.239019
       4A    -11.234416     5A    -11.230091     6A    -11.221475
       7A    -11.214050     8A    -11.206518     9A     -1.219553
      10A     -1.070278    11A     -1.024532    12A     -0.991345
      13A     -0.895340    14A     -0.857408    15A     -0.816421
      16A     -0.707470    17A     -0.663897    18A     -0.644143
      19A     -0.603605    20A     -0.590460    21A     -0.585006
      22A     -0.558652    23A     -0.542106    24A     -0.525582
      25A     -0.521513    26A     -0.509613    27A     -0.506624
      28A     -0.490726    29A     -0.481306    30A     -0.457761
      31A     -0.383743    32A     -0.379106

  @DF-RHF Final Energy:  -328.35000491638976

   => Energetics <=

    Nuclear Repulsion Energy =            389.0064808663148028
    One-Electron Energy =               -1214.3416264309003054
    Two-Electron Energy =                 496.9851406481956815
    Total Energy =                       -328.3500049163897643
  Basis Set: (AUG-CC-PVTZ AUX)
    Blend: AUG-CC-PVTZ-RI
    Molecular point group: c1

    Geometry (in Angstrom), charge = 0, multiplicity = 1:

       Center              X                  Y                   Z               Mass
    ------------   -----------------  -----------------  -----------------  -----------------
         N           -0.505468127640    -0.932003911091    -0.031612199719    14.003074004430
         C            0.409370272360    -0.025681911091     0.021714700281    12.000000000000
         C            1.729272872360    -0.488613911091    -0.738907199719    12.000000000000
         C            0.472523872360     1.297663088909     0.609149800281    12.000000000000
         C            2.794884872360    -0.979339911091     0.246393800281    12.000000000000
         C           -0.158572127640     2.341253088909    -0.320719199719    12.000000000000
         C           -1.770903127640    -0.630273911091     0.626936800281    12.000000000000
         C           -2.891998127640    -0.698091911091    -0.405264199719    12.000000000000
         H            2.118405872360     0.361014088909    -1.315611199719     1.007825032230
         H            1.475841872360    -1.287398911091    -1.440997199719     1.007825032230
         H           -0.045922127640     1.292136088909     1.572581800281     1.007825032230
         H            1.510440872360     1.578300088909     0.817719800281     1.007825032230
         H            3.061149872360    -0.205411911091     0.972695800281     1.007825032230
         H            2.421664872360    -1.848257911091     0.795027800281     1.007825032230
         H            3.708213872360    -1.271647911091    -0.279985199719     1.007825032230
         H            0.352932872360     2.358881088909    -1.287530199719     1.007825032230
         H           -0.094139127640     3.342883088909     0.114642800281     1.007825032230
         H           -1.212165127640     2.114538088909    -0.503463199719     1.007825032230
         H           -1.929097127640    -1.406190911091     1.385503800281     1.007825032230
         H           -1.796785127640     0.339187088909     1.141917800281     1.007825032230
         H           -3.867882127640    -0.558005911091     0.069594800281     1.007825032230
         H           -2.761325127640     0.080063088909    -1.162536199719     1.007825032230
         H           -2.878659127640    -1.667362911091    -0.908322199719     1.007825032230

  Basis Set: AUG-CC-PVTZ
    Blend: AUG-CC-PVTZ
  Basis Set: (AUG-CC-PVTZ AUX)
    Blend: AUG-CC-PVTZ-JKFIT
	 Reference Energy          =    -328.3500049163897643 [Eh]
	 Singles Energy            =      -0.0000000000000000 [Eh]
	 Same-Spin Energy          =      -0.3503441421206319 [Eh]
	 Opposite-Spin Energy      =      -1.2491005083433788 [Eh]
	 Correlation Energy        =      -1.5994446504640107 [Eh]
	 Total Energy              =    -329.9494495668537866 [Eh]

	 ================> DF-SCS-MP2 Energies <==================
	-----------------------------------------------------------
	 SCS Same-Spin Scale       =       0.3333333333333333 [-]
	 SCS Opposite-Spin Scale   =       1.2000000000000000 [-]
	 SCS Same-Spin Energy      =      -0.1167813807068773 [Eh]
	 SCS Opposite-Spin Energy  =      -1.4989206100120545 [Eh]
	 SCS Correlation Energy    =      -1.6157019907189318 [Eh]
	 SCS Total Energy          =    -329.9657069071087108 [Eh]
	-----------------------------------------------------------

  Dipole Moment: [D]
     X:     0.2270      Y:     1.8764      Z:     0.6987     Total:     2.0151

*** Psi4 exiting successfully. Buy a developer a beer!
