                               Psi4 1.3.2 release

  ==> Input File <==

--------------------------------------------------------------------------
#psi4
#
memory 32 gb

molecule  {
0 1
  N       -0.5203482    -1.0014234    -0.0203543
  C        0.4568270    -0.1006020    -0.0211380
  C        1.7238140    -0.5084530    -0.7342290
  C        0.4670650     1.2778240     0.6138280
  C        2.7894260    -0.9991790     0.2510720
  C       -0.1640310     2.3214140    -0.3160410
  C       -1.7763620    -0.6501130     0.6316150
  C       -2.8974570    -0.7179310    -0.4005860
  H        2.1129470     0.3411750    -1.3109330
  H        1.4703830    -1.3072380    -1.4363190
  H       -0.0513810     1.2722970     1.5772600
  H        1.5049820     1.5584610     0.8223980
  H        3.0556910    -0.2252510     0.9773740
  H        2.4162060    -1.8680970     0.7997060
  H        3.7027550    -1.2914870    -0.2753070
  H        0.3474740     2.3390420    -1.2828520
  H       -0.0995980     3.3230440     0.1193210
  H       -1.2176240     2.0946990    -0.4987850
  H       -1.9345560    -1.4260300     1.3901820
  H       -1.8022440     0.3193480     1.1465960
  H       -3.8733410    -0.5778450     0.0742730
  H       -2.7667840     0.0602240    -1.1578580
  H       -2.8841180    -1.6872020    -0.9036440
units angstrom
no_reorient  #important for SAPT in psi4, default
symmetry c1  #important for SAPT in psi4, default
}

set PROPERTIES_ORIGIN ["COM"]
properties('MP2/aug-cc-pvtz', properties = ['dipole'])
--------------------------------------------------------------------------

    Molecular point group: c1
  Charge       = 0
  Multiplicity = 1
  Basis Set: AUG-CC-PVTZ
    Blend: AUG-CC-PVTZ
  Basis Set: (AUG-CC-PVTZ AUX)
    Blend: AUG-CC-PVTZ-JKFIT

    Orbital Energies [Eh]
    ---------------------

    Doubly Occupied:

       1A    -15.545340     2A    -11.279452     3A    -11.238841
       4A    -11.237363     5A    -11.228098     6A    -11.222868
       7A    -11.217838     8A    -11.205620     9A     -1.204586
      10A     -1.068505    11A     -1.027931    12A     -0.988192
      13A     -0.893267    14A     -0.858551    15A     -0.817645
      16A     -0.707040    17A     -0.663235    18A     -0.640524
      19A     -0.599485    20A     -0.591588    21A     -0.587819
      22A     -0.555893    23A     -0.541394    24A     -0.523183
      25A     -0.519720    26A     -0.511973    27A     -0.507990
      28A     -0.488583    29A     -0.482389    30A     -0.466215
      31A     -0.389171    32A     -0.368744

  @DF-RHF Final Energy:  -328.35238281590745

   => Energetics <=

    Nuclear Repulsion Energy =            387.8482386488981888
    One-Electron Energy =               -1212.0431545596966316
    Two-Electron Energy =                 495.8425330948910528
    Total Energy =                       -328.3523828159074469
  Basis Set: (AUG-CC-PVTZ AUX)
    Blend: AUG-CC-PVTZ-RI
    Molecular point group: c1

    Geometry (in Angstrom), charge = 0, multiplicity = 1:

       Center              X                  Y                   Z               Mass
    ------------   -----------------  -----------------  -----------------  -----------------
         N           -0.519336458477    -0.969603718576    -0.020804839944    14.003074004430
         C            0.457838741523    -0.068782318576    -0.021588539944    12.000000000000
         C            1.724825741523    -0.476633318576    -0.734679539944    12.000000000000
         C            0.468076741523     1.309643681424     0.613377460056    12.000000000000
         C            2.790437741523    -0.967359318576     0.250621460056    12.000000000000
         C           -0.163019258477     2.353233681424    -0.316491539944    12.000000000000
         C           -1.775350258477    -0.618293318576     0.631164460056    12.000000000000
         C           -2.896445258477    -0.686111318576    -0.401036539944    12.000000000000
         H            2.113958741523     0.372994681424    -1.311383539944     1.007825032230
         H            1.471394741523    -1.275418318576    -1.436769539944     1.007825032230
         H           -0.050369258477     1.304116681424     1.576809460056     1.007825032230
         H            1.505993741523     1.590280681424     0.821947460056     1.007825032230
         H            3.056702741523    -0.193431318576     0.976923460056     1.007825032230
         H            2.417217741523    -1.836277318576     0.799255460056     1.007825032230
         H            3.703766741523    -1.259667318576    -0.275757539944     1.007825032230
         H            0.348485741523     2.370861681424    -1.283302539944     1.007825032230
         H           -0.098586258477     3.354863681424     0.118870460056     1.007825032230
         H           -1.216612258477     2.126518681424    -0.499235539944     1.007825032230
         H           -1.933544258477    -1.394210318576     1.389731460056     1.007825032230
         H           -1.801232258477     0.351167681424     1.146145460056     1.007825032230
         H           -3.872329258477    -0.546025318576     0.073822460056     1.007825032230
         H           -2.765772258477     0.092043681424    -1.158308539944     1.007825032230
         H           -2.883106258477    -1.655382318576    -0.904094539944     1.007825032230

  Basis Set: AUG-CC-PVTZ
    Blend: AUG-CC-PVTZ
  Basis Set: (AUG-CC-PVTZ AUX)
    Blend: AUG-CC-PVTZ-JKFIT
	 Reference Energy          =    -328.3523828159074469 [Eh]
	 Singles Energy            =      -0.0000000000000000 [Eh]
	 Same-Spin Energy          =      -0.3508876969261814 [Eh]
	 Opposite-Spin Energy      =      -1.2505592008483264 [Eh]
	 Correlation Energy        =      -1.6014468977745078 [Eh]
	 Total Energy              =    -329.9538297136819551 [Eh]

	 ================> DF-SCS-MP2 Energies <==================
	-----------------------------------------------------------
	 SCS Same-Spin Scale       =       0.3333333333333333 [-]
	 SCS Opposite-Spin Scale   =       1.2000000000000000 [-]
	 SCS Same-Spin Energy      =      -0.1169625656420605 [Eh]
	 SCS Opposite-Spin Energy  =      -1.5006710410179915 [Eh]
	 SCS Correlation Energy    =      -1.6176336066600521 [Eh]
	 SCS Total Energy          =    -329.9700164225674826 [Eh]
	-----------------------------------------------------------

  Dipole Moment: [D]
     X:     0.4363      Y:     1.8106      Z:     0.6015     Total:     1.9572

*** Psi4 exiting successfully. Buy a developer a beer!
