                               Psi4 1.3.2 release

  ==> Input File <==

--------------------------------------------------------------------------
#psi4
#
memory 32 gb

molecule  {
0 1
  N       -0.4651513    -0.9391461     0.0630732
  C        0.4568270    -0.1006020    -0.0211380
  C        1.7238140    -0.5084530    -0.7342290
  C        0.4670650     1.2778240     0.6138280
  C        2.7894260    -0.9991790     0.2510720
  C       -0.1640310     2.3214140    -0.3160410
  C       -1.7763620    -0.6501130     0.6316150
  C       -2.8974570    -0.7179310    -0.4005860
  H        2.1129470     0.3411750    -1.3109330
  H        1.4703830    -1.3072380    -1.4363190
  H       -0.0513810     1.2722970     1.5772600
  H        1.5049820     1.5584610     0.8223980
  H        3.0556910    -0.2252510     0.9773740
  H        2.4162060    -1.8680970     0.7997060
  H        3.7027550    -1.2914870    -0.2753070
  H        0.3474740     2.3390420    -1.2828520
  H       -0.0995980     3.3230440     0.1193210
  H       -1.2176240     2.0946990    -0.4987850
  H       -1.9345560    -1.4260300     1.3901820
  H       -1.8022440     0.3193480     1.1465960
  H       -3.8733410    -0.5778450     0.0742730
  H       -2.7667840     0.0602240    -1.1578580
  H       -2.8841180    -1.6872020    -0.9036440
units angstrom
no_reorient  #important for SAPT in psi4, default
symmetry c1  #important for SAPT in psi4, default
}

set PROPERTIES_ORIGIN ["COM"]
properties('MP2/aug-cc-pvtz', properties = ['dipole'])
--------------------------------------------------------------------------

    Molecular point group: c1
  Charge       = 0
  Multiplicity = 1
  Basis Set: AUG-CC-PVTZ
    Blend: AUG-CC-PVTZ
  Basis Set: (AUG-CC-PVTZ AUX)
    Blend: AUG-CC-PVTZ-JKFIT

    Orbital Energies [Eh]
    ---------------------

    Doubly Occupied:

       1A    -15.531280     2A    -11.265065     3A    -11.243173
       4A    -11.230162     5A    -11.224833     6A    -11.219967
       7A    -11.216170     8A    -11.210652     9A     -1.227604
      10A     -1.064249    11A     -1.025709    12A     -0.997864
      13A     -0.891266    14A     -0.857898    15A     -0.826668
      16A     -0.700124    17A     -0.661717    18A     -0.644381
      19A     -0.598966    20A     -0.591139    21A     -0.590096
      22A     -0.561752    23A     -0.540318    24A     -0.523826
      25A     -0.521031    26A     -0.513759    27A     -0.508430
      28A     -0.487676    29A     -0.482965    30A     -0.473783
      31A     -0.390122    32A     -0.365767

  @DF-RHF Final Energy:  -328.35954254394153

   => Energetics <=

    Nuclear Repulsion Energy =            389.5400786355730816
    One-Electron Energy =               -1215.4224167021484391
    Two-Electron Energy =                 497.5227955226338281
    Total Energy =                       -328.3595425439415294
  Basis Set: (AUG-CC-PVTZ AUX)
    Blend: AUG-CC-PVTZ-RI
    Molecular point group: c1

    Geometry (in Angstrom), charge = 0, multiplicity = 1:

       Center              X                  Y                   Z               Mass
    ------------   -----------------  -----------------  -----------------  -----------------
         N           -0.470972330792    -0.915035666945     0.052295248329    14.003074004430
         C            0.451005969208    -0.076491566945    -0.031915951671    12.000000000000
         C            1.717992969208    -0.484342566945    -0.745006951671    12.000000000000
         C            0.461243969208     1.301934433055     0.603050048329    12.000000000000
         C            2.783604969208    -0.975068566945     0.240294048329    12.000000000000
         C           -0.169852030792     2.345524433055    -0.326818951671    12.000000000000
         C           -1.782183030792    -0.626002566945     0.620837048329    12.000000000000
         C           -2.903278030792    -0.693820566945    -0.411363951671    12.000000000000
         H            2.107125969208     0.365285433055    -1.321710951671     1.007825032230
         H            1.464561969208    -1.283127566945    -1.447096951671     1.007825032230
         H           -0.057202030792     1.296407433055     1.566482048329     1.007825032230
         H            1.499160969208     1.582571433055     0.811620048329     1.007825032230
         H            3.049869969208    -0.201140566945     0.966596048329     1.007825032230
         H            2.410384969208    -1.843986566945     0.788928048329     1.007825032230
         H            3.696933969208    -1.267376566945    -0.286084951671     1.007825032230
         H            0.341652969208     2.363152433055    -1.293629951671     1.007825032230
         H           -0.105419030792     3.347154433055     0.108543048329     1.007825032230
         H           -1.223445030792     2.118809433055    -0.509562951671     1.007825032230
         H           -1.940377030792    -1.401919566945     1.379404048329     1.007825032230
         H           -1.808065030792     0.343458433055     1.135818048329     1.007825032230
         H           -3.879162030792    -0.553734566945     0.063495048329     1.007825032230
         H           -2.772605030792     0.084334433055    -1.168635951671     1.007825032230
         H           -2.889939030792    -1.663091566945    -0.914421951671     1.007825032230

  Basis Set: AUG-CC-PVTZ
    Blend: AUG-CC-PVTZ
  Basis Set: (AUG-CC-PVTZ AUX)
    Blend: AUG-CC-PVTZ-JKFIT
	 Reference Energy          =    -328.3595425439415294 [Eh]
	 Singles Energy            =      -0.0000000000000000 [Eh]
	 Same-Spin Energy          =      -0.3489615943083512 [Eh]
	 Opposite-Spin Energy      =      -1.2457770606125900 [Eh]
	 Correlation Energy        =      -1.5947386549209410 [Eh]
	 Total Energy              =    -329.9542811988624749 [Eh]

	 ================> DF-SCS-MP2 Energies <==================
	-----------------------------------------------------------
	 SCS Same-Spin Scale       =       0.3333333333333333 [-]
	 SCS Opposite-Spin Scale   =       1.2000000000000000 [-]
	 SCS Same-Spin Energy      =      -0.1163205314361171 [Eh]
	 SCS Opposite-Spin Energy  =      -1.4949324727351079 [Eh]
	 SCS Correlation Energy    =      -1.6112530041712250 [Eh]
	 SCS Total Energy          =    -329.9707955481127328 [Eh]
	-----------------------------------------------------------

  Dipole Moment: [D]
     X:     0.2373      Y:     1.6319      Z:     0.4601     Total:     1.7121

*** Psi4 exiting successfully. Buy a developer a beer!
