                               Psi4 1.3.2 release

  ==> Input File <==

--------------------------------------------------------------------------
#psi4
#
memory 32 gb

molecule  {
0 1
  N       -0.5109270    -0.9518430    -0.0269340
  C        0.4846492    -0.0649820     0.0059746
  C        1.7238140    -0.5084530    -0.7342290
  C        0.4670650     1.2778240     0.6138280
  C        2.7894260    -0.9991790     0.2510720
  C       -0.1640310     2.3214140    -0.3160410
  C       -1.7763620    -0.6501130     0.6316150
  C       -2.8974570    -0.7179310    -0.4005860
  H        2.1129470     0.3411750    -1.3109330
  H        1.4703830    -1.3072380    -1.4363190
  H       -0.0513810     1.2722970     1.5772600
  H        1.5049820     1.5584610     0.8223980
  H        3.0556910    -0.2252510     0.9773740
  H        2.4162060    -1.8680970     0.7997060
  H        3.7027550    -1.2914870    -0.2753070
  H        0.3474740     2.3390420    -1.2828520
  H       -0.0995980     3.3230440     0.1193210
  H       -1.2176240     2.0946990    -0.4987850
  H       -1.9345560    -1.4260300     1.3901820
  H       -1.8022440     0.3193480     1.1465960
  H       -3.8733410    -0.5778450     0.0742730
  H       -2.7667840     0.0602240    -1.1578580
  H       -2.8841180    -1.6872020    -0.9036440
units angstrom
no_reorient  #important for SAPT in psi4, default
symmetry c1  #important for SAPT in psi4, default
}

set PROPERTIES_ORIGIN ["COM"]
properties('MP2/aug-cc-pvtz', properties = ['dipole'])
--------------------------------------------------------------------------

    Molecular point group: c1
  Charge       = 0
  Multiplicity = 1
  Basis Set: AUG-CC-PVTZ
    Blend: AUG-CC-PVTZ
  Basis Set: (AUG-CC-PVTZ AUX)
    Blend: AUG-CC-PVTZ-JKFIT

    Orbital Energies [Eh]
    ---------------------

    Doubly Occupied:

       1A    -15.541934     2A    -11.276681     3A    -11.238492
       4A    -11.234589     5A    -11.229015     6A    -11.222854
       7A    -11.217303     8A    -11.205394     9A     -1.203290
      10A     -1.071156    11A     -1.029415    12A     -0.987322
      13A     -0.896004    14A     -0.860852    15A     -0.816754
      16A     -0.706730    17A     -0.665019    18A     -0.642494
      19A     -0.599172    20A     -0.592725    21A     -0.588294
      22A     -0.557391    23A     -0.541823    24A     -0.523695
      25A     -0.520285    26A     -0.511061    27A     -0.508177
      28A     -0.487489    29A     -0.484478    30A     -0.467069
      31A     -0.385214    32A     -0.365719

  @DF-RHF Final Energy:  -328.35115360520325

   => Energetics <=

    Nuclear Repulsion Energy =            388.6115446925566062
    One-Electron Energy =               -1213.5696146389871046
    Two-Electron Energy =                 496.6069163412271905
    Total Energy =                       -328.3511536052032511
  Basis Set: (AUG-CC-PVTZ AUX)
    Blend: AUG-CC-PVTZ-RI
    Molecular point group: c1

    Geometry (in Angstrom), charge = 0, multiplicity = 1:

       Center              X                  Y                   Z               Mass
    ------------   -----------------  -----------------  -----------------  -----------------
         N           -0.514032923876    -0.929939456776    -0.029446193474    14.003074004430
         C            0.481543276124    -0.043078456776     0.003462406526    12.000000000000
         C            1.720708076124    -0.486549456776    -0.736741193474    12.000000000000
         C            0.463959076124     1.299727543224     0.611315806526    12.000000000000
         C            2.786320076124    -0.977275456776     0.248559806526    12.000000000000
         C           -0.167136923876     2.343317543224    -0.318553193474    12.000000000000
         C           -1.779467923876    -0.628209456776     0.629102806526    12.000000000000
         C           -2.900562923876    -0.696027456776    -0.403098193474    12.000000000000
         H            2.109841076124     0.363078543224    -1.313445193474     1.007825032230
         H            1.467277076124    -1.285334456776    -1.438831193474     1.007825032230
         H           -0.054486923876     1.294200543224     1.574747806526     1.007825032230
         H            1.501876076124     1.580364543224     0.819885806526     1.007825032230
         H            3.052585076124    -0.203347456776     0.974861806526     1.007825032230
         H            2.413100076124    -1.846193456776     0.797193806526     1.007825032230
         H            3.699649076124    -1.269583456776    -0.277819193474     1.007825032230
         H            0.344368076124     2.360945543224    -1.285364193474     1.007825032230
         H           -0.102703923876     3.344947543224     0.116808806526     1.007825032230
         H           -1.220729923876     2.116602543224    -0.501297193474     1.007825032230
         H           -1.937661923876    -1.404126456776     1.387669806526     1.007825032230
         H           -1.805349923876     0.341251543224     1.144083806526     1.007825032230
         H           -3.876446923876    -0.555941456776     0.071760806526     1.007825032230
         H           -2.769889923876     0.082127543224    -1.160370193474     1.007825032230
         H           -2.887223923876    -1.665298456776    -0.906156193474     1.007825032230

  Basis Set: AUG-CC-PVTZ
    Blend: AUG-CC-PVTZ
  Basis Set: (AUG-CC-PVTZ AUX)
    Blend: AUG-CC-PVTZ-JKFIT
	 Reference Energy          =    -328.3511536052032511 [Eh]
	 Singles Energy            =      -0.0000000000000000 [Eh]
	 Same-Spin Energy          =      -0.3512894696231114 [Eh]
	 Opposite-Spin Energy      =      -1.2507441382260311 [Eh]
	 Correlation Energy        =      -1.6020336078491426 [Eh]
	 Total Energy              =    -329.9531872130523880 [Eh]

	 ================> DF-SCS-MP2 Energies <==================
	-----------------------------------------------------------
	 SCS Same-Spin Scale       =       0.3333333333333333 [-]
	 SCS Opposite-Spin Scale   =       1.2000000000000000 [-]
	 SCS Same-Spin Energy      =      -0.1170964898743704 [Eh]
	 SCS Opposite-Spin Energy  =      -1.5008929658712373 [Eh]
	 SCS Correlation Energy    =      -1.6179894557456078 [Eh]
	 SCS Total Energy          =    -329.9691430609488521 [Eh]
	-----------------------------------------------------------

  Dipole Moment: [D]
     X:     0.4312      Y:     1.8108      Z:     0.6168     Total:     1.9610

*** Psi4 exiting successfully. Buy a developer a beer!
