                               Psi4 1.3.2 release

  ==> Input File <==

--------------------------------------------------------------------------
#psi4
#
memory 32 gb

molecule  {
0 1
  N       -0.4850817    -0.9798745    -0.0508122
  C        0.4568270    -0.1006020    -0.0211380
  C        1.7238140    -0.5084530    -0.7342290
  C        0.4670650     1.2778240     0.6138280
  C        2.7894260    -0.9991790     0.2510720
  C       -0.1640310     2.3214140    -0.3160410
  C       -1.7763620    -0.6501130     0.6316150
  C       -2.8974570    -0.7179310    -0.4005860
  H        2.1129470     0.3411750    -1.3109330
  H        1.4703830    -1.3072380    -1.4363190
  H       -0.0513810     1.2722970     1.5772600
  H        1.5049820     1.5584610     0.8223980
  H        3.0556910    -0.2252510     0.9773740
  H        2.4162060    -1.8680970     0.7997060
  H        3.7027550    -1.2914870    -0.2753070
  H        0.3474740     2.3390420    -1.2828520
  H       -0.0995980     3.3230440     0.1193210
  H       -1.2176240     2.0946990    -0.4987850
  H       -1.9345560    -1.4260300     1.3901820
  H       -1.8022440     0.3193480     1.1465960
  H       -3.8733410    -0.5778450     0.0742730
  H       -2.7667840     0.0602240    -1.1578580
  H       -2.8841180    -1.6872020    -0.9036440
units angstrom
no_reorient  #important for SAPT in psi4, default
symmetry c1  #important for SAPT in psi4, default
}

set PROPERTIES_ORIGIN ["COM"]
properties('MP2/aug-cc-pvtz', properties = ['dipole'])
--------------------------------------------------------------------------

    Molecular point group: c1
  Charge       = 0
  Multiplicity = 1
  Basis Set: AUG-CC-PVTZ
    Blend: AUG-CC-PVTZ
  Basis Set: (AUG-CC-PVTZ AUX)
    Blend: AUG-CC-PVTZ-JKFIT

    Orbital Energies [Eh]
    ---------------------

    Doubly Occupied:

       1A    -15.542439     2A    -11.271637     3A    -11.242736
       4A    -11.236004     5A    -11.227592     6A    -11.219560
       7A    -11.216330     8A    -11.206909     9A     -1.211457
      10A     -1.063636    11A     -1.027483    12A     -0.992936
      13A     -0.890052    14A     -0.858547    15A     -0.818786
      16A     -0.703502    17A     -0.660834    18A     -0.641589
      19A     -0.598851    20A     -0.590824    21A     -0.587931
      22A     -0.556326    23A     -0.540838    24A     -0.522703
      25A     -0.519592    26A     -0.510399    27A     -0.508016
      28A     -0.488176    29A     -0.480648    30A     -0.468648
      31A     -0.384133    32A     -0.380488

  @DF-RHF Final Energy:  -328.35662299724584

   => Energetics <=

    Nuclear Repulsion Energy =            388.2622953009333173
    One-Electron Energy =               -1212.8986331142755262
    Two-Electron Energy =                 496.2797148160963161
    Total Energy =                       -328.3566229972458359
  Basis Set: (AUG-CC-PVTZ AUX)
    Blend: AUG-CC-PVTZ-RI
    Molecular point group: c1

    Geometry (in Angstrom), charge = 0, multiplicity = 1:

       Center              X                  Y                   Z               Mass
    ------------   -----------------  -----------------  -----------------  -----------------
         N           -0.488435565329    -0.950722336632    -0.047492385162    14.003074004430
         C            0.453473134671    -0.071449836632    -0.017818185162    12.000000000000
         C            1.720460134671    -0.479300836632    -0.730909185162    12.000000000000
         C            0.463711134671     1.306976163368     0.617147814838    12.000000000000
         C            2.786072134671    -0.970026836632     0.254391814838    12.000000000000
         C           -0.167384865329     2.350566163368    -0.312721185162    12.000000000000
         C           -1.779715865329    -0.620960836632     0.634934814838    12.000000000000
         C           -2.900810865329    -0.688778836632    -0.397266185162    12.000000000000
         H            2.109593134671     0.370327163368    -1.307613185162     1.007825032230
         H            1.467029134671    -1.278085836632    -1.432999185162     1.007825032230
         H           -0.054734865329     1.301449163368     1.580579814838     1.007825032230
         H            1.501628134671     1.587613163368     0.825717814838     1.007825032230
         H            3.052337134671    -0.196098836632     0.980693814838     1.007825032230
         H            2.412852134671    -1.838944836632     0.803025814838     1.007825032230
         H            3.699401134671    -1.262334836632    -0.271987185162     1.007825032230
         H            0.344120134671     2.368194163368    -1.279532185162     1.007825032230
         H           -0.102951865329     3.352196163368     0.122640814838     1.007825032230
         H           -1.220977865329     2.123851163368    -0.495465185162     1.007825032230
         H           -1.937909865329    -1.396877836632     1.393501814838     1.007825032230
         H           -1.805597865329     0.348500163368     1.149915814838     1.007825032230
         H           -3.876694865329    -0.548692836632     0.077592814838     1.007825032230
         H           -2.770137865329     0.089376163368    -1.154538185162     1.007825032230
         H           -2.887471865329    -1.658049836632    -0.900324185162     1.007825032230

  Basis Set: AUG-CC-PVTZ
    Blend: AUG-CC-PVTZ
  Basis Set: (AUG-CC-PVTZ AUX)
    Blend: AUG-CC-PVTZ-JKFIT
	 Reference Energy          =    -328.3566229972458359 [Eh]
	 Singles Energy            =      -0.0000000000000000 [Eh]
	 Same-Spin Energy          =      -0.3498655968393408 [Eh]
	 Opposite-Spin Energy      =      -1.2487751154796203 [Eh]
	 Correlation Energy        =      -1.5986407123189610 [Eh]
	 Total Energy              =    -329.9552637095648038 [Eh]

	 ================> DF-SCS-MP2 Energies <==================
	-----------------------------------------------------------
	 SCS Same-Spin Scale       =       0.3333333333333333 [-]
	 SCS Opposite-Spin Scale   =       1.2000000000000000 [-]
	 SCS Same-Spin Energy      =      -0.1166218656131136 [Eh]
	 SCS Opposite-Spin Energy  =      -1.4985301385755443 [Eh]
	 SCS Correlation Energy    =      -1.6151520041886578 [Eh]
	 SCS Total Energy          =    -329.9717750014344801 [Eh]
	-----------------------------------------------------------

  Dipole Moment: [D]
     X:     0.3368      Y:     1.7872      Z:     0.6580     Total:     1.9340

*** Psi4 exiting successfully. Buy a developer a beer!
