                               Psi4 1.3.2 release

  ==> Input File <==

--------------------------------------------------------------------------
#psi4
#
memory 32 gb

molecule  {
0 1
  N       -0.4299813    -1.0326907    -0.0984310
  C        0.4568270    -0.1006020    -0.0211380
  C        1.7238140    -0.5084530    -0.7342290
  C        0.4670650     1.2778240     0.6138280
  C        2.7894260    -0.9991790     0.2510720
  C       -0.1640310     2.3214140    -0.3160410
  C       -1.7763620    -0.6501130     0.6316150
  C       -2.8974570    -0.7179310    -0.4005860
  H        2.1129470     0.3411750    -1.3109330
  H        1.4703830    -1.3072380    -1.4363190
  H       -0.0513810     1.2722970     1.5772600
  H        1.5049820     1.5584610     0.8223980
  H        3.0556910    -0.2252510     0.9773740
  H        2.4162060    -1.8680970     0.7997060
  H        3.7027550    -1.2914870    -0.2753070
  H        0.3474740     2.3390420    -1.2828520
  H       -0.0995980     3.3230440     0.1193210
  H       -1.2176240     2.0946990    -0.4987850
  H       -1.9345560    -1.4260300     1.3901820
  H       -1.8022440     0.3193480     1.1465960
  H       -3.8733410    -0.5778450     0.0742730
  H       -2.7667840     0.0602240    -1.1578580
  H       -2.8841180    -1.6872020    -0.9036440
units angstrom
no_reorient  #important for SAPT in psi4, default
symmetry c1  #important for SAPT in psi4, default
}

set PROPERTIES_ORIGIN ["COM"]
properties('MP2/aug-cc-pvtz', properties = ['dipole'])
--------------------------------------------------------------------------

    Molecular point group: c1
  Charge       = 0
  Multiplicity = 1
  Basis Set: AUG-CC-PVTZ
    Blend: AUG-CC-PVTZ
  Basis Set: (AUG-CC-PVTZ AUX)
    Blend: AUG-CC-PVTZ-JKFIT

    Orbital Energies [Eh]
    ---------------------

    Doubly Occupied:

       1A    -15.549610     2A    -11.271022     3A    -11.246110
       4A    -11.239793     5A    -11.229402     6A    -11.216166
       7A    -11.214514     8A    -11.207395     9A     -1.204954
      10A     -1.058505    11A     -1.028328    12A     -0.993031
      13A     -0.888076    14A     -0.858242    15A     -0.814899
      16A     -0.701727    17A     -0.657208    18A     -0.639280
      19A     -0.598123    20A     -0.590325    21A     -0.583249
      22A     -0.553795    23A     -0.542251    24A     -0.522837
      25A     -0.519394    26A     -0.507793    27A     -0.506844
      28A     -0.487845    29A     -0.478287    30A     -0.466623
      31A     -0.386805    32A     -0.383834

  @DF-RHF Final Energy:  -328.34451969907491

   => Energetics <=

    Nuclear Repulsion Energy =            387.2663996131569206
    One-Electron Energy =               -1210.9293006380084989
    Two-Electron Energy =                 495.3183813257767270
    Total Energy =                       -328.3445196990749082
  Basis Set: (AUG-CC-PVTZ AUX)
    Blend: AUG-CC-PVTZ-RI
    Molecular point group: c1

    Geometry (in Angstrom), charge = 0, multiplicity = 1:

       Center              X                  Y                   Z               Mass
    ------------   -----------------  -----------------  -----------------  -----------------
         N           -0.440155991999    -0.997000468930    -0.089216498716    14.003074004430
         C            0.446652308001    -0.064911768930    -0.011923498716    12.000000000000
         C            1.713639308001    -0.472762768930    -0.725014498716    12.000000000000
         C            0.456890308001     1.313514231070     0.623042501284    12.000000000000
         C            2.779251308001    -0.963488768930     0.260286501284    12.000000000000
         C           -0.174205691999     2.357104231070    -0.306826498716    12.000000000000
         C           -1.786536691999    -0.614422768930     0.640829501284    12.000000000000
         C           -2.907631691999    -0.682240768930    -0.391371498716    12.000000000000
         H            2.102772308001     0.376865231070    -1.301718498716     1.007825032230
         H            1.460208308001    -1.271547768930    -1.427104498716     1.007825032230
         H           -0.061555691999     1.307987231070     1.586474501284     1.007825032230
         H            1.494807308001     1.594151231070     0.831612501284     1.007825032230
         H            3.045516308001    -0.189560768930     0.986588501284     1.007825032230
         H            2.406031308001    -1.832406768930     0.808920501284     1.007825032230
         H            3.692580308001    -1.255796768930    -0.266092498716     1.007825032230
         H            0.337299308001     2.374732231070    -1.273637498716     1.007825032230
         H           -0.109772691999     3.358734231070     0.128535501284     1.007825032230
         H           -1.227798691999     2.130389231070    -0.489570498716     1.007825032230
         H           -1.944730691999    -1.390339768930     1.399396501284     1.007825032230
         H           -1.812418691999     0.355038231070     1.155810501284     1.007825032230
         H           -3.883515691999    -0.542154768930     0.083487501284     1.007825032230
         H           -2.776958691999     0.095914231070    -1.148643498716     1.007825032230
         H           -2.894292691999    -1.651511768930    -0.894429498716     1.007825032230

  Basis Set: AUG-CC-PVTZ
    Blend: AUG-CC-PVTZ
  Basis Set: (AUG-CC-PVTZ AUX)
    Blend: AUG-CC-PVTZ-JKFIT
	 Reference Energy          =    -328.3445196990749082 [Eh]
	 Singles Energy            =      -0.0000000000000000 [Eh]
	 Same-Spin Energy          =      -0.3503104479689897 [Eh]
	 Opposite-Spin Energy      =      -1.2510875981468430 [Eh]
	 Correlation Energy        =      -1.6013980461158328 [Eh]
	 Total Energy              =    -329.9459177451907408 [Eh]

	 ================> DF-SCS-MP2 Energies <==================
	-----------------------------------------------------------
	 SCS Same-Spin Scale       =       0.3333333333333333 [-]
	 SCS Opposite-Spin Scale   =       1.2000000000000000 [-]
	 SCS Same-Spin Energy      =      -0.1167701493229966 [Eh]
	 SCS Opposite-Spin Energy  =      -1.5013051177762116 [Eh]
	 SCS Correlation Energy    =      -1.6180752670992082 [Eh]
	 SCS Total Energy          =    -329.9625949661740947 [Eh]
	-----------------------------------------------------------

  Dipole Moment: [D]
     X:     0.2474      Y:     1.9292      Z:     0.7277     Total:     2.0767

*** Psi4 exiting successfully. Buy a developer a beer!
