                               Psi4 1.3.2 release

  ==> Input File <==

--------------------------------------------------------------------------
#psi4
#
memory 32 gb

molecule  {
0 1
  N       -0.5109270    -0.9518430    -0.0269340
  C        0.4356176    -0.0883144    -0.0677976
  C        1.7238140    -0.5084530    -0.7342290
  C        0.4670650     1.2778240     0.6138280
  C        2.7894260    -0.9991790     0.2510720
  C       -0.1640310     2.3214140    -0.3160410
  C       -1.7763620    -0.6501130     0.6316150
  C       -2.8974570    -0.7179310    -0.4005860
  H        2.1129470     0.3411750    -1.3109330
  H        1.4703830    -1.3072380    -1.4363190
  H       -0.0513810     1.2722970     1.5772600
  H        1.5049820     1.5584610     0.8223980
  H        3.0556910    -0.2252510     0.9773740
  H        2.4162060    -1.8680970     0.7997060
  H        3.7027550    -1.2914870    -0.2753070
  H        0.3474740     2.3390420    -1.2828520
  H       -0.0995980     3.3230440     0.1193210
  H       -1.2176240     2.0946990    -0.4987850
  H       -1.9345560    -1.4260300     1.3901820
  H       -1.8022440     0.3193480     1.1465960
  H       -3.8733410    -0.5778450     0.0742730
  H       -2.7667840     0.0602240    -1.1578580
  H       -2.8841180    -1.6872020    -0.9036440
units angstrom
no_reorient  #important for SAPT in psi4, default
symmetry c1  #important for SAPT in psi4, default
}

set PROPERTIES_ORIGIN ["COM"]
properties('MP2/aug-cc-pvtz', properties = ['dipole'])
--------------------------------------------------------------------------

    Molecular point group: c1
  Charge       = 0
  Multiplicity = 1
  Basis Set: AUG-CC-PVTZ
    Blend: AUG-CC-PVTZ
  Basis Set: (AUG-CC-PVTZ AUX)
    Blend: AUG-CC-PVTZ-JKFIT

    Orbital Energies [Eh]
    ---------------------

    Doubly Occupied:

       1A    -15.538611     2A    -11.271752     3A    -11.241477
       4A    -11.233864     5A    -11.225517     6A    -11.221237
       7A    -11.217921     8A    -11.207054     9A     -1.218086
      10A     -1.065790    11A     -1.026356    12A     -0.993711
      13A     -0.891003    14A     -0.857222    15A     -0.822535
      16A     -0.704445    17A     -0.662349    18A     -0.642987
      19A     -0.599567    20A     -0.590532    21A     -0.589564
      22A     -0.558670    23A     -0.539045    24A     -0.523048
      25A     -0.519832    26A     -0.513433    27A     -0.507803
      28A     -0.488368    29A     -0.481881    30A     -0.470344
      31A     -0.382071    32A     -0.377190

  @DF-RHF Final Energy:  -328.35839223843186

   => Energetics <=

    Nuclear Repulsion Energy =            388.8402678232669132
    One-Electron Energy =               -1214.0307877662146439
    Two-Electron Energy =                 496.8321277045158695
    Total Energy =                       -328.3583922384318612
  Basis Set: (AUG-CC-PVTZ AUX)
    Blend: AUG-CC-PVTZ-RI
    Molecular point group: c1

    Geometry (in Angstrom), charge = 0, multiplicity = 1:

       Center              X                  Y                   Z               Mass
    ------------   -----------------  -----------------  -----------------  -----------------
         N           -0.508831572549    -0.927464318097    -0.021620319337    14.003074004430
         C            0.437713027451    -0.063935718097    -0.062483919337    12.000000000000
         C            1.725909427451    -0.484074318097    -0.728915319337    12.000000000000
         C            0.469160427451     1.302202681903     0.619141680663    12.000000000000
         C            2.791521427451    -0.974800318097     0.256385680663    12.000000000000
         C           -0.161935572549     2.345792681903    -0.310727319337    12.000000000000
         C           -1.774266572549    -0.625734318097     0.636928680663    12.000000000000
         C           -2.895361572549    -0.693552318097    -0.395272319337    12.000000000000
         H            2.115042427451     0.365553681903    -1.305619319337     1.007825032230
         H            1.472478427451    -1.282859318097    -1.431005319337     1.007825032230
         H           -0.049285572549     1.296675681903     1.582573680663     1.007825032230
         H            1.507077427451     1.582839681903     0.827711680663     1.007825032230
         H            3.057786427451    -0.200872318097     0.982687680663     1.007825032230
         H            2.418301427451    -1.843718318097     0.805019680663     1.007825032230
         H            3.704850427451    -1.267108318097    -0.269993319337     1.007825032230
         H            0.349569427451     2.363420681903    -1.277538319337     1.007825032230
         H           -0.097502572549     3.347422681903     0.124634680663     1.007825032230
         H           -1.215528572549     2.119077681903    -0.493471319337     1.007825032230
         H           -1.932460572549    -1.401651318097     1.395495680663     1.007825032230
         H           -1.800148572549     0.343726681903     1.151909680663     1.007825032230
         H           -3.871245572549    -0.553466318097     0.079586680663     1.007825032230
         H           -2.764688572549     0.084602681903    -1.152544319337     1.007825032230
         H           -2.882022572549    -1.662823318097    -0.898330319337     1.007825032230

  Basis Set: AUG-CC-PVTZ
    Blend: AUG-CC-PVTZ
  Basis Set: (AUG-CC-PVTZ AUX)
    Blend: AUG-CC-PVTZ-JKFIT
	 Reference Energy          =    -328.3583922384318612 [Eh]
	 Singles Energy            =      -0.0000000000000000 [Eh]
	 Same-Spin Energy          =      -0.3497235094211908 [Eh]
	 Opposite-Spin Energy      =      -1.2477687385660552 [Eh]
	 Correlation Energy        =      -1.5974922479872460 [Eh]
	 Total Energy              =    -329.9558844864191087 [Eh]

	 ================> DF-SCS-MP2 Energies <==================
	-----------------------------------------------------------
	 SCS Same-Spin Scale       =       0.3333333333333333 [-]
	 SCS Opposite-Spin Scale   =       1.2000000000000000 [-]
	 SCS Same-Spin Energy      =      -0.1165745031403969 [Eh]
	 SCS Opposite-Spin Energy  =      -1.4973224862792662 [Eh]
	 SCS Correlation Energy    =      -1.6138969894196631 [Eh]
	 SCS Total Energy          =    -329.9722892278515474 [Eh]
	-----------------------------------------------------------

  Dipole Moment: [D]
     X:     0.3843      Y:     1.6619      Z:     0.6330     Total:     1.8194

*** Psi4 exiting successfully. Buy a developer a beer!
