                               Psi4 1.4a3.dev225

  ==> Input File <==

--------------------------------------------------------------------------
#psi4
#
memory 32 gb

molecule  {
0 1
  N       -0.5109430    -0.9518430    -0.0269260
  C        0.4418067    -0.1138249    -0.0212347
  C        1.7237990    -0.5085590    -0.7342300
  C        0.4670880     1.2778150     0.6137790
  C        2.7894950    -0.9990730     0.2510970
  C       -0.1640680     2.3213990    -0.3160610
  C       -1.7763790    -0.6500710     0.6316310
  C       -2.8974700    -0.7179400    -0.4005630
  H        2.1128780     0.3409680    -1.3111240
  H        1.4703470    -1.3074830    -1.4361490
  H       -0.0513130     1.2723030     1.5772340
  H        1.5050160     1.5584520     0.8222760
  H        3.0557420    -0.2250230     0.9772740
  H        2.4163470    -1.8679380     0.7998630
  H        3.7028160    -1.2913930    -0.2752870
  H        0.3476260     2.3392860    -1.2827640
  H       -0.0999350     3.3229720     0.1194750
  H       -1.2175750     2.0944730    -0.4990280
  H       -1.9345660    -1.4259490     1.3902370
  H       -1.8022330     0.3194130     1.1465770
  H       -3.8733550    -0.5777970     0.0742800
  H       -2.7667810     0.0601400    -1.1579070
  H       -2.8841480    -1.6872580    -0.9035300
units angstrom
no_reorient  #important for SAPT in psi4, default
symmetry c1  #important for SAPT in psi4, default
}

set PROPERTIES_ORIGIN ["COM"]
properties('MP2/aug-cc-pvtz', properties = ['dipole'])
--------------------------------------------------------------------------

    Molecular point group: c1
  Charge       = 0
  Multiplicity = 1
  Basis Set: AUG-CC-PVTZ
    Blend: AUG-CC-PVTZ
  Basis Set: (AUG-CC-PVTZ AUX)
    Blend: AUG-CC-PVTZ-JKFIT

    Orbital Energies [Eh]
    ---------------------

    Doubly Occupied:

       1A    -15.537474     2A    -11.270299     3A    -11.241799
       4A    -11.233724     5A    -11.226056     6A    -11.220791
       7A    -11.216785     8A    -11.207287     9A     -1.222499
      10A     -1.064592    11A     -1.025711    12A     -0.995155
      13A     -0.889844    14A     -0.857291    15A     -0.822561
      16A     -0.703977    17A     -0.661378    18A     -0.643361
      19A     -0.600047    20A     -0.591006    21A     -0.589794
      22A     -0.558719    23A     -0.539685    24A     -0.522445
      25A     -0.519863    26A     -0.511858    27A     -0.508733
      28A     -0.488672    29A     -0.481857    30A     -0.470035
      31A     -0.384690    32A     -0.377235

  @DF-RHF Final Energy:  -328.36031357954238

   => Energetics <=

    Nuclear Repulsion Energy =            388.9007605971220300
    One-Electron Energy =               -1214.1517034499354395
    Two-Electron Energy =                 496.8906292732710313
    Total Energy =                       -328.3603135795423782
  Basis Set: (AUG-CC-PVTZ AUX)
    Blend: AUG-CC-PVTZ-RI
    Molecular point group: c1

    Geometry (in Angstrom), charge = 0, multiplicity = 1:

       Center              X                  Y                   Z               Mass
    ------------   -----------------  -----------------  -----------------  -----------------
         N           -0.509503861754    -0.924759309427    -0.026552274443    14.003074004430
         C            0.443245838246    -0.086741209427    -0.020860974443    12.000000000000
         C            1.725238138246    -0.481475309427    -0.733856274443    12.000000000000
         C            0.468527138246     1.304898690573     0.614152725557    12.000000000000
         C            2.790934138246    -0.971989309427     0.251470725557    12.000000000000
         C           -0.162628861754     2.348482690573    -0.315687274443    12.000000000000
         C           -1.774939861754    -0.622987309427     0.632004725557    12.000000000000
         C           -2.896030861754    -0.690856309427    -0.400189274443    12.000000000000
         H            2.114317138246     0.368051690573    -1.310750274443     1.007825032230
         H            1.471786138246    -1.280399309427    -1.435775274443     1.007825032230
         H           -0.049873861754     1.299386690573     1.577607725557     1.007825032230
         H            1.506455138246     1.585535690573     0.822649725557     1.007825032230
         H            3.057181138246    -0.197939309427     0.977647725557     1.007825032230
         H            2.417786138246    -1.840854309427     0.800236725557     1.007825032230
         H            3.704255138246    -1.264309309427    -0.274913274443     1.007825032230
         H            0.349065138246     2.366369690573    -1.282390274443     1.007825032230
         H           -0.098495861754     3.350055690573     0.119848725557     1.007825032230
         H           -1.216135861754     2.121556690573    -0.498654274443     1.007825032230
         H           -1.933126861754    -1.398865309427     1.390610725557     1.007825032230
         H           -1.800793861754     0.346496690573     1.146950725557     1.007825032230
         H           -3.871915861754    -0.550713309427     0.074653725557     1.007825032230
         H           -2.765341861754     0.087223690573    -1.157533274443     1.007825032230
         H           -2.882708861754    -1.660174309427    -0.903156274443     1.007825032230

  Basis Set: AUG-CC-PVTZ
    Blend: AUG-CC-PVTZ
  Basis Set: (AUG-CC-PVTZ AUX)
    Blend: AUG-CC-PVTZ-JKFIT
	 Reference Energy          =    -328.3603135795423782 [Eh]
	 Singles Energy            =      -0.0000000000000000 [Eh]
	 Same-Spin Energy          =      -0.3493137858439236 [Eh]
	 Opposite-Spin Energy      =      -1.2469834711811836 [Eh]
	 Correlation Energy        =      -1.5962972570251073 [Eh]
	 Total Energy              =    -329.9566108365675063 [Eh]

	 ================> DF-SCS-MP2 Energies <==================
	-----------------------------------------------------------
	 SCS Same-Spin Scale       =       0.3333333333333333 [-]
	 SCS Opposite-Spin Scale   =       1.2000000000000000 [-]
	 SCS Same-Spin Energy      =      -0.1164379286146412 [Eh]
	 SCS Opposite-Spin Energy  =      -1.4963801654174202 [Eh]
	 SCS Correlation Energy    =      -1.6128180940320613 [Eh]
	 SCS Total Energy          =    -329.9731316735744144 [Eh]
	-----------------------------------------------------------

  Dipole Moment: [D]
     X:     0.3428      Y:     1.6705      Z:     0.6184     Total:     1.8140

*** Psi4 exiting successfully. Buy a developer a beer!
