                               Psi4 1.3.2 release

  ==> Input File <==

--------------------------------------------------------------------------
#psi4
#
memory 32 gb

molecule  {
0 1
  N       -0.5109270    -0.9518430    -0.0269340
  C        0.4815320    -0.1297153    -0.0449286
  C        1.7238140    -0.5084530    -0.7342290
  C        0.4670650     1.2778240     0.6138280
  C        2.7894260    -0.9991790     0.2510720
  C       -0.1640310     2.3214140    -0.3160410
  C       -1.7763620    -0.6501130     0.6316150
  C       -2.8974570    -0.7179310    -0.4005860
  H        2.1129470     0.3411750    -1.3109330
  H        1.4703830    -1.3072380    -1.4363190
  H       -0.0513810     1.2722970     1.5772600
  H        1.5049820     1.5584610     0.8223980
  H        3.0556910    -0.2252510     0.9773740
  H        2.4162060    -1.8680970     0.7997060
  H        3.7027550    -1.2914870    -0.2753070
  H        0.3474740     2.3390420    -1.2828520
  H       -0.0995980     3.3230440     0.1193210
  H       -1.2176240     2.0946990    -0.4987850
  H       -1.9345560    -1.4260300     1.3901820
  H       -1.8022440     0.3193480     1.1465960
  H       -3.8733410    -0.5778450     0.0742730
  H       -2.7667840     0.0602240    -1.1578580
  H       -2.8841180    -1.6872020    -0.9036440
units angstrom
no_reorient  #important for SAPT in psi4, default
symmetry c1  #important for SAPT in psi4, default
}

set PROPERTIES_ORIGIN ["COM"]
properties('MP2/aug-cc-pvtz', properties = ['dipole'])
--------------------------------------------------------------------------

    Molecular point group: c1
  Charge       = 0
  Multiplicity = 1
  Basis Set: AUG-CC-PVTZ
    Blend: AUG-CC-PVTZ
  Basis Set: (AUG-CC-PVTZ AUX)
    Blend: AUG-CC-PVTZ-JKFIT

    Orbital Energies [Eh]
    ---------------------

    Doubly Occupied:

       1A    -15.537885     2A    -11.272535     3A    -11.241998
       4A    -11.233668     5A    -11.224970     6A    -11.221028
       7A    -11.218990     8A    -11.206814     9A     -1.214397
      10A     -1.067895    11A     -1.026297    12A     -0.993629
      13A     -0.892577    14A     -0.856475    15A     -0.823650
      16A     -0.703930    17A     -0.662241    18A     -0.643037
      19A     -0.598263    20A     -0.593166    21A     -0.589838
      22A     -0.558904    23A     -0.538856    24A     -0.521515
      25A     -0.519171    26A     -0.514378    27A     -0.508505
      28A     -0.487838    29A     -0.482418    30A     -0.474756
      31A     -0.378329    32A     -0.374977

  @DF-RHF Final Energy:  -328.35726933450485

   => Energetics <=

    Nuclear Repulsion Energy =            388.7135059023027566
    One-Electron Energy =               -1213.7756861751156521
    Two-Electron Energy =                 496.7049109383079895
    Total Energy =                       -328.3572693345048492
  Basis Set: (AUG-CC-PVTZ AUX)
    Blend: AUG-CC-PVTZ-RI
    Molecular point group: c1

    Geometry (in Angstrom), charge = 0, multiplicity = 1:

       Center              X                  Y                   Z               Mass
    ------------   -----------------  -----------------  -----------------  -----------------
         N           -0.513702246265    -0.923072443752    -0.024046299797    14.003074004430
         C            0.478756753735    -0.100944743752    -0.042040899797    12.000000000000
         C            1.721038753735    -0.479682443752    -0.731341299797    12.000000000000
         C            0.464289753735     1.306594556248     0.616715700203    12.000000000000
         C            2.786650753735    -0.970408443752     0.253959700203    12.000000000000
         C           -0.166806246265     2.350184556248    -0.313153299797    12.000000000000
         C           -1.779137246265    -0.621342443752     0.634502700203    12.000000000000
         C           -2.900232246265    -0.689160443752    -0.397698299797    12.000000000000
         H            2.110171753735     0.369945556248    -1.308045299797     1.007825032230
         H            1.467607753735    -1.278467443752    -1.433431299797     1.007825032230
         H           -0.054156246265     1.301067556248     1.580147700203     1.007825032230
         H            1.502206753735     1.587231556248     0.825285700203     1.007825032230
         H            3.052915753735    -0.196480443752     0.980261700203     1.007825032230
         H            2.413430753735    -1.839326443752     0.802593700203     1.007825032230
         H            3.699979753735    -1.262716443752    -0.272419299797     1.007825032230
         H            0.344698753735     2.367812556248    -1.279964299797     1.007825032230
         H           -0.102373246265     3.351814556248     0.122208700203     1.007825032230
         H           -1.220399246265     2.123469556248    -0.495897299797     1.007825032230
         H           -1.937331246265    -1.397259443752     1.393069700203     1.007825032230
         H           -1.805019246265     0.348118556248     1.149483700203     1.007825032230
         H           -3.876116246265    -0.549074443752     0.077160700203     1.007825032230
         H           -2.769559246265     0.088994556248    -1.154970299797     1.007825032230
         H           -2.886893246265    -1.658431443752    -0.900756299797     1.007825032230

  Basis Set: AUG-CC-PVTZ
    Blend: AUG-CC-PVTZ
  Basis Set: (AUG-CC-PVTZ AUX)
    Blend: AUG-CC-PVTZ-JKFIT
	 Reference Energy          =    -328.3572693345048492 [Eh]
	 Singles Energy            =      -0.0000000000000000 [Eh]
	 Same-Spin Energy          =      -0.3499062687483044 [Eh]
	 Opposite-Spin Energy      =      -1.2479643540801701 [Eh]
	 Correlation Energy        =      -1.5978706228284745 [Eh]
	 Total Energy              =    -329.9551399573333015 [Eh]

	 ================> DF-SCS-MP2 Energies <==================
	-----------------------------------------------------------
	 SCS Same-Spin Scale       =       0.3333333333333333 [-]
	 SCS Opposite-Spin Scale   =       1.2000000000000000 [-]
	 SCS Same-Spin Energy      =      -0.1166354229161015 [Eh]
	 SCS Opposite-Spin Energy  =      -1.4975572248962041 [Eh]
	 SCS Correlation Energy    =      -1.6141926478123056 [Eh]
	 SCS Total Energy          =    -329.9714619823171802 [Eh]
	-----------------------------------------------------------

  Dipole Moment: [D]
     X:     0.4664      Y:     1.6102      Z:     0.5711     Total:     1.7710

*** Psi4 exiting successfully. Buy a developer a beer!
