                               Psi4 1.3.2 release

  ==> Input File <==

--------------------------------------------------------------------------
#psi4
#
memory 32 gb

molecule  {
0 1
  N       -0.4763835    -0.8620082     0.0061474
  C        0.4568270    -0.1006020    -0.0211380
  C        1.7238140    -0.5084530    -0.7342290
  C        0.4670650     1.2778240     0.6138280
  C        2.7894260    -0.9991790     0.2510720
  C       -0.1640310     2.3214140    -0.3160410
  C       -1.7763620    -0.6501130     0.6316150
  C       -2.8974570    -0.7179310    -0.4005860
  H        2.1129470     0.3411750    -1.3109330
  H        1.4703830    -1.3072380    -1.4363190
  H       -0.0513810     1.2722970     1.5772600
  H        1.5049820     1.5584610     0.8223980
  H        3.0556910    -0.2252510     0.9773740
  H        2.4162060    -1.8680970     0.7997060
  H        3.7027550    -1.2914870    -0.2753070
  H        0.3474740     2.3390420    -1.2828520
  H       -0.0995980     3.3230440     0.1193210
  H       -1.2176240     2.0946990    -0.4987850
  H       -1.9345560    -1.4260300     1.3901820
  H       -1.8022440     0.3193480     1.1465960
  H       -3.8733410    -0.5778450     0.0742730
  H       -2.7667840     0.0602240    -1.1578580
  H       -2.8841180    -1.6872020    -0.9036440
units angstrom
no_reorient  #important for SAPT in psi4, default
symmetry c1  #important for SAPT in psi4, default
}

set PROPERTIES_ORIGIN ["COM"]
properties('MP2/aug-cc-pvtz', properties = ['dipole'])
--------------------------------------------------------------------------

    Molecular point group: c1
  Charge       = 0
  Multiplicity = 1
  Basis Set: AUG-CC-PVTZ
    Blend: AUG-CC-PVTZ
  Basis Set: (AUG-CC-PVTZ AUX)
    Blend: AUG-CC-PVTZ-JKFIT

    Orbital Energies [Eh]
    ---------------------

    Doubly Occupied:

       1A    -15.523457     2A    -11.256588     3A    -11.246398
       4A    -11.225841     5A    -11.223189     6A    -11.217788
       7A    -11.215732     8A    -11.210595     9A     -1.242927
      10A     -1.062459    11A     -1.024393    12A     -1.002662
      13A     -0.888929    14A     -0.857866    15A     -0.829425
      16A     -0.698743    17A     -0.660896    18A     -0.648680
      19A     -0.599172    20A     -0.594781    21A     -0.589500
      22A     -0.564371    23A     -0.538331    24A     -0.522895
      25A     -0.521014    26A     -0.513399    27A     -0.508616
      28A     -0.486582    29A     -0.483740    30A     -0.476499
      31A     -0.399605    32A     -0.356907

  @DF-RHF Final Energy:  -328.35678753374623

   => Energetics <=

    Nuclear Repulsion Energy =            390.8161908263386408
    One-Electron Energy =               -1217.9619950860933386
    Two-Electron Energy =                 498.7890167260084127
    Total Energy =                       -328.3567875337462283
  Basis Set: (AUG-CC-PVTZ AUX)
    Blend: AUG-CC-PVTZ-RI
    Molecular point group: c1

    Geometry (in Angstrom), charge = 0, multiplicity = 1:

       Center              X                  Y                   Z               Mass
    ------------   -----------------  -----------------  -----------------  -----------------
         N           -0.480814107322    -0.847446595005     0.002416239549    14.003074004430
         C            0.452396392678    -0.086040395005    -0.024869160451    12.000000000000
         C            1.719383392678    -0.493891395005    -0.737960160451    12.000000000000
         C            0.462634392678     1.292385604995     0.610096839549    12.000000000000
         C            2.784995392678    -0.984617395005     0.247340839549    12.000000000000
         C           -0.168461607322     2.335975604995    -0.319772160451    12.000000000000
         C           -1.780792607322    -0.635551395005     0.627883839549    12.000000000000
         C           -2.901887607322    -0.703369395005    -0.404317160451    12.000000000000
         H            2.108516392678     0.355736604995    -1.314664160451     1.007825032230
         H            1.465952392678    -1.292676395005    -1.440050160451     1.007825032230
         H           -0.055811607322     1.286858604995     1.573528839549     1.007825032230
         H            1.500551392678     1.573022604995     0.818666839549     1.007825032230
         H            3.051260392678    -0.210689395005     0.973642839549     1.007825032230
         H            2.411775392678    -1.853535395005     0.795974839549     1.007825032230
         H            3.698324392678    -1.276925395005    -0.279038160451     1.007825032230
         H            0.343043392678     2.353603604995    -1.286583160451     1.007825032230
         H           -0.104028607322     3.337605604995     0.115589839549     1.007825032230
         H           -1.222054607322     2.109260604995    -0.502516160451     1.007825032230
         H           -1.938986607322    -1.411468395005     1.386450839549     1.007825032230
         H           -1.806674607322     0.333909604995     1.142864839549     1.007825032230
         H           -3.877771607322    -0.563283395005     0.070541839549     1.007825032230
         H           -2.771214607322     0.074785604995    -1.161589160451     1.007825032230
         H           -2.888548607322    -1.672640395005    -0.907375160451     1.007825032230

  Basis Set: AUG-CC-PVTZ
    Blend: AUG-CC-PVTZ
  Basis Set: (AUG-CC-PVTZ AUX)
    Blend: AUG-CC-PVTZ-JKFIT
	 Reference Energy          =    -328.3567875337462283 [Eh]
	 Singles Energy            =      -0.0000000000000000 [Eh]
	 Same-Spin Energy          =      -0.3482298651312760 [Eh]
	 Opposite-Spin Energy      =      -1.2436416897539435 [Eh]
	 Correlation Energy        =      -1.5918715548852194 [Eh]
	 Total Energy              =    -329.9486590886314730 [Eh]

	 ================> DF-SCS-MP2 Energies <==================
	-----------------------------------------------------------
	 SCS Same-Spin Scale       =       0.3333333333333333 [-]
	 SCS Opposite-Spin Scale   =       1.2000000000000000 [-]
	 SCS Same-Spin Energy      =      -0.1160766217104253 [Eh]
	 SCS Opposite-Spin Energy  =      -1.4923700277047323 [Eh]
	 SCS Correlation Energy    =      -1.6084466494151575 [Eh]
	 SCS Total Energy          =    -329.9652341831613853 [Eh]
	-----------------------------------------------------------

  Dipole Moment: [D]
     X:     0.1841      Y:     1.4400      Z:     0.5617     Total:     1.5566

*** Psi4 exiting successfully. Buy a developer a beer!
