                               Psi4 1.3.2 release

  ==> Input File <==

--------------------------------------------------------------------------
#psi4
#
memory 32 gb

molecule  {
0 1
  N       -0.5628678    -0.9630699    -0.1137328
  C        0.4568270    -0.1006020    -0.0211380
  C        1.7238140    -0.5084530    -0.7342290
  C        0.4670650     1.2778240     0.6138280
  C        2.7894260    -0.9991790     0.2510720
  C       -0.1640310     2.3214140    -0.3160410
  C       -1.7763620    -0.6501130     0.6316150
  C       -2.8974570    -0.7179310    -0.4005860
  H        2.1129470     0.3411750    -1.3109330
  H        1.4703830    -1.3072380    -1.4363190
  H       -0.0513810     1.2722970     1.5772600
  H        1.5049820     1.5584610     0.8223980
  H        3.0556910    -0.2252510     0.9773740
  H        2.4162060    -1.8680970     0.7997060
  H        3.7027550    -1.2914870    -0.2753070
  H        0.3474740     2.3390420    -1.2828520
  H       -0.0995980     3.3230440     0.1193210
  H       -1.2176240     2.0946990    -0.4987850
  H       -1.9345560    -1.4260300     1.3901820
  H       -1.8022440     0.3193480     1.1465960
  H       -3.8733410    -0.5778450     0.0742730
  H       -2.7667840     0.0602240    -1.1578580
  H       -2.8841180    -1.6872020    -0.9036440
units angstrom
no_reorient  #important for SAPT in psi4, default
symmetry c1  #important for SAPT in psi4, default
}

set PROPERTIES_ORIGIN ["COM"]
properties('MP2/aug-cc-pvtz', properties = ['dipole'])
--------------------------------------------------------------------------

    Molecular point group: c1
  Charge       = 0
  Multiplicity = 1
  Basis Set: AUG-CC-PVTZ
    Blend: AUG-CC-PVTZ
  Basis Set: (AUG-CC-PVTZ AUX)
    Blend: AUG-CC-PVTZ-JKFIT

    Orbital Energies [Eh]
    ---------------------

    Doubly Occupied:

       1A    -15.546652     2A    -11.281434     3A    -11.238515
       4A    -11.238166     5A    -11.228486     6A    -11.223315
       7A    -11.218821     8A    -11.202656     9A     -1.202650
      10A     -1.069518    11A     -1.028212    12A     -0.986373
      13A     -0.892526    14A     -0.858619    15A     -0.815377
      16A     -0.709332    17A     -0.663132    18A     -0.641294
      19A     -0.599208    20A     -0.592810    21A     -0.589326
      22A     -0.554585    23A     -0.540511    24A     -0.523146
      25A     -0.518265    26A     -0.509589    27A     -0.507528
      28A     -0.487960    29A     -0.482219    30A     -0.465291
      31A     -0.392499    32A     -0.366193

  @DF-RHF Final Energy:  -328.34867012923445

   => Energetics <=

    Nuclear Repulsion Energy =            387.9168840976549859
    One-Electron Energy =               -1212.1826940774524246
    Two-Electron Energy =                 495.9171398505630464
    Total Energy =                       -328.3486701292344492
  Basis Set: (AUG-CC-PVTZ AUX)
    Blend: AUG-CC-PVTZ-RI
    Molecular point group: c1

    Geometry (in Angstrom), charge = 0, multiplicity = 1:

       Center              X                  Y                   Z               Mass
    ------------   -----------------  -----------------  -----------------  -----------------
         N           -0.556592597200    -0.935997962254    -0.102624103291    14.003074004430
         C            0.463102202800    -0.073530062254    -0.010029303291    12.000000000000
         C            1.730089202800    -0.481381062254    -0.723120303291    12.000000000000
         C            0.473340202800     1.304895937746     0.624936696709    12.000000000000
         C            2.795701202800    -0.972107062254     0.262180696709    12.000000000000
         C           -0.157755797200     2.348485937746    -0.304932303291    12.000000000000
         C           -1.770086797200    -0.623041062254     0.642723696709    12.000000000000
         C           -2.891181797200    -0.690859062254    -0.389477303291    12.000000000000
         H            2.119222202800     0.368246937746    -1.299824303291     1.007825032230
         H            1.476658202800    -1.280166062254    -1.425210303291     1.007825032230
         H           -0.045105797200     1.299368937746     1.588368696709     1.007825032230
         H            1.511257202800     1.585532937746     0.833506696709     1.007825032230
         H            3.061966202800    -0.198179062254     0.988482696709     1.007825032230
         H            2.422481202800    -1.841025062254     0.810814696709     1.007825032230
         H            3.709030202800    -1.264415062254    -0.264198303291     1.007825032230
         H            0.353749202800     2.366113937746    -1.271743303291     1.007825032230
         H           -0.093322797200     3.350115937746     0.130429696709     1.007825032230
         H           -1.211348797200     2.121770937746    -0.487676303291     1.007825032230
         H           -1.928280797200    -1.398958062254     1.401290696709     1.007825032230
         H           -1.795968797200     0.346419937746     1.157704696709     1.007825032230
         H           -3.867065797200    -0.550773062254     0.085381696709     1.007825032230
         H           -2.760508797200     0.087295937746    -1.146749303291     1.007825032230
         H           -2.877842797200    -1.660130062254    -0.892535303291     1.007825032230

  Basis Set: AUG-CC-PVTZ
    Blend: AUG-CC-PVTZ
  Basis Set: (AUG-CC-PVTZ AUX)
    Blend: AUG-CC-PVTZ-JKFIT
	 Reference Energy          =    -328.3486701292344492 [Eh]
	 Singles Energy            =      -0.0000000000000000 [Eh]
	 Same-Spin Energy          =      -0.3513169842117322 [Eh]
	 Opposite-Spin Energy      =      -1.2514643232773959 [Eh]
	 Correlation Energy        =      -1.6027813074891282 [Eh]
	 Total Energy              =    -329.9514514367235734 [Eh]

	 ================> DF-SCS-MP2 Energies <==================
	-----------------------------------------------------------
	 SCS Same-Spin Scale       =       0.3333333333333333 [-]
	 SCS Opposite-Spin Scale   =       1.2000000000000000 [-]
	 SCS Same-Spin Energy      =      -0.1171056614039107 [Eh]
	 SCS Opposite-Spin Energy  =      -1.5017571879328750 [Eh]
	 SCS Correlation Energy    =      -1.6188628493367858 [Eh]
	 SCS Total Energy          =    -329.9675329785712279 [Eh]
	-----------------------------------------------------------

  Dipole Moment: [D]
     X:     0.5464      Y:     1.7591      Z:     0.7541     Total:     1.9904

*** Psi4 exiting successfully. Buy a developer a beer!
