                               Psi4 1.3.2 release

  ==> Input File <==

--------------------------------------------------------------------------
#psi4
#
memory 32 gb

molecule  {
0 1
  N       -0.5109270    -0.9518430    -0.0269340
  C        0.3827484    -0.2102668    -0.1075511
  C        1.7238140    -0.5084530    -0.7342290
  C        0.4670650     1.2778240     0.6138280
  C        2.7894260    -0.9991790     0.2510720
  C       -0.1640310     2.3214140    -0.3160410
  C       -1.7763620    -0.6501130     0.6316150
  C       -2.8974570    -0.7179310    -0.4005860
  H        2.1129470     0.3411750    -1.3109330
  H        1.4703830    -1.3072380    -1.4363190
  H       -0.0513810     1.2722970     1.5772600
  H        1.5049820     1.5584610     0.8223980
  H        3.0556910    -0.2252510     0.9773740
  H        2.4162060    -1.8680970     0.7997060
  H        3.7027550    -1.2914870    -0.2753070
  H        0.3474740     2.3390420    -1.2828520
  H       -0.0995980     3.3230440     0.1193210
  H       -1.2176240     2.0946990    -0.4987850
  H       -1.9345560    -1.4260300     1.3901820
  H       -1.8022440     0.3193480     1.1465960
  H       -3.8733410    -0.5778450     0.0742730
  H       -2.7667840     0.0602240    -1.1578580
  H       -2.8841180    -1.6872020    -0.9036440
units angstrom
no_reorient  #important for SAPT in psi4, default
symmetry c1  #important for SAPT in psi4, default
}

set PROPERTIES_ORIGIN ["COM"]
properties('MP2/aug-cc-pvtz', properties = ['dipole'])
--------------------------------------------------------------------------

    Molecular point group: c1
  Charge       = 0
  Multiplicity = 1
  Basis Set: AUG-CC-PVTZ
    Blend: AUG-CC-PVTZ
  Basis Set: (AUG-CC-PVTZ AUX)
    Blend: AUG-CC-PVTZ-JKFIT

    Orbital Energies [Eh]
    ---------------------

    Doubly Occupied:

       1A    -15.528642     2A    -11.260607     3A    -11.249740
       4A    -11.227217     5A    -11.219046     6A    -11.218922
       7A    -11.217762     8A    -11.211469     9A     -1.262355
      10A     -1.057140    11A     -1.018096    12A     -1.007796
      13A     -0.885755    14A     -0.847772    15A     -0.832053
      16A     -0.700686    17A     -0.653669    18A     -0.647573
      19A     -0.606065    20A     -0.591752    21A     -0.584781
      22A     -0.565973    23A     -0.535568    24A     -0.523492
      25A     -0.521859    26A     -0.514734    27A     -0.506435
      28A     -0.490400    29A     -0.482437    30A     -0.468599
      31A     -0.417599    32A     -0.350395

  @DF-RHF Final Energy:  -328.33699198570207

   => Energetics <=

    Nuclear Repulsion Energy =            389.4634950542628076
    One-Electron Energy =               -1215.1881976698896324
    Two-Electron Energy =                 497.3877106299247544
    Total Energy =                       -328.3369919857020705
  Basis Set: (AUG-CC-PVTZ AUX)
    Blend: AUG-CC-PVTZ-RI
    Molecular point group: c1

    Geometry (in Angstrom), charge = 0, multiplicity = 1:

       Center              X                  Y                   Z               Mass
    ------------   -----------------  -----------------  -----------------  -----------------
         N           -0.503223122416    -0.914527410521    -0.017403203845    14.003074004430
         C            0.390452277584    -0.172951210521    -0.098020303845    12.000000000000
         C            1.731517877584    -0.471137410521    -0.724698203845    12.000000000000
         C            0.474768877584     1.315139589479     0.623358796155    12.000000000000
         C            2.797129877584    -0.961863410521     0.260602796155    12.000000000000
         C           -0.156327122416     2.358729589479    -0.306510203845    12.000000000000
         C           -1.768658122416    -0.612797410521     0.641145796155    12.000000000000
         C           -2.889753122416    -0.680615410521    -0.391055203845    12.000000000000
         H            2.120650877584     0.378490589479    -1.301402203845     1.007825032230
         H            1.478086877584    -1.269922410521    -1.426788203845     1.007825032230
         H           -0.043677122416     1.309612589479     1.586790796155     1.007825032230
         H            1.512685877584     1.595776589479     0.831928796155     1.007825032230
         H            3.063394877584    -0.187935410521     0.986904796155     1.007825032230
         H            2.423909877584    -1.830781410521     0.809236796155     1.007825032230
         H            3.710458877584    -1.254171410521    -0.265776203845     1.007825032230
         H            0.355177877584     2.376357589479    -1.273321203845     1.007825032230
         H           -0.091894122416     3.360359589479     0.128851796155     1.007825032230
         H           -1.209920122416     2.132014589479    -0.489254203845     1.007825032230
         H           -1.926852122416    -1.388714410521     1.399712796155     1.007825032230
         H           -1.794540122416     0.356663589479     1.156126796155     1.007825032230
         H           -3.865637122416    -0.540529410521     0.083803796155     1.007825032230
         H           -2.759080122416     0.097539589479    -1.148327203845     1.007825032230
         H           -2.876414122416    -1.649886410521    -0.894113203845     1.007825032230

  Basis Set: AUG-CC-PVTZ
    Blend: AUG-CC-PVTZ
  Basis Set: (AUG-CC-PVTZ AUX)
    Blend: AUG-CC-PVTZ-JKFIT
	 Reference Energy          =    -328.3369919857020705 [Eh]
	 Singles Energy            =      -0.0000000000000000 [Eh]
	 Same-Spin Energy          =      -0.3476756519527860 [Eh]
	 Opposite-Spin Energy      =      -1.2433372122948572 [Eh]
	 Correlation Energy        =      -1.5910128642476431 [Eh]
	 Total Energy              =    -329.9280048499497298 [Eh]

	 ================> DF-SCS-MP2 Energies <==================
	-----------------------------------------------------------
	 SCS Same-Spin Scale       =       0.3333333333333333 [-]
	 SCS Opposite-Spin Scale   =       1.2000000000000000 [-]
	 SCS Same-Spin Energy      =      -0.1158918839842620 [Eh]
	 SCS Opposite-Spin Energy  =      -1.4920046547538286 [Eh]
	 SCS Correlation Energy    =      -1.6078965387380906 [Eh]
	 SCS Total Energy          =    -329.9448885244401595 [Eh]
	-----------------------------------------------------------

  Dipole Moment: [D]
     X:     0.1452      Y:     1.2154      Z:     0.5610     Total:     1.3465

*** Psi4 exiting successfully. Buy a developer a beer!
