                               Psi4 1.3.2 release

  ==> Input File <==

--------------------------------------------------------------------------
#psi4
#
memory 32 gb

molecule  {
0 1
  N       -0.5109270    -0.9518430    -0.0269340
  C        0.4568270    -0.1006020    -0.0211380
  C        1.7238140    -0.5084530    -0.7342290
  C        0.4670650     1.2778240     0.6138280
  C        2.7894260    -0.9991790     0.2510720
  C       -0.1640310     2.3214140    -0.3160410
  C       -1.8631486    -0.6294196     0.6767799
  C       -2.8974570    -0.7179310    -0.4005860
  H        2.1129470     0.3411750    -1.3109330
  H        1.4703830    -1.3072380    -1.4363190
  H       -0.0513810     1.2722970     1.5772600
  H        1.5049820     1.5584610     0.8223980
  H        3.0556910    -0.2252510     0.9773740
  H        2.4162060    -1.8680970     0.7997060
  H        3.7027550    -1.2914870    -0.2753070
  H        0.3474740     2.3390420    -1.2828520
  H       -0.0995980     3.3230440     0.1193210
  H       -1.2176240     2.0946990    -0.4987850
  H       -1.9345560    -1.4260300     1.3901820
  H       -1.8022440     0.3193480     1.1465960
  H       -3.8733410    -0.5778450     0.0742730
  H       -2.7667840     0.0602240    -1.1578580
  H       -2.8841180    -1.6872020    -0.9036440
units angstrom
no_reorient  #important for SAPT in psi4, default
symmetry c1  #important for SAPT in psi4, default
}

set PROPERTIES_ORIGIN ["COM"]
properties('MP2/aug-cc-pvtz', properties = ['dipole'])
--------------------------------------------------------------------------

    Molecular point group: c1
  Charge       = 0
  Multiplicity = 1
  Basis Set: AUG-CC-PVTZ
    Blend: AUG-CC-PVTZ
  Basis Set: (AUG-CC-PVTZ AUX)
    Blend: AUG-CC-PVTZ-JKFIT

    Orbital Energies [Eh]
    ---------------------

    Doubly Occupied:

       1A    -15.538175     2A    -11.267524     3A    -11.241033
       4A    -11.232878     5A    -11.226041     6A    -11.219477
       7A    -11.215670     8A    -11.207572     9A     -1.199320
      10A     -1.061750    11A     -1.026043    12A     -0.999345
      13A     -0.887062    14A     -0.856835    15A     -0.824056
      16A     -0.699197    17A     -0.659901    18A     -0.638705
      19A     -0.603435    20A     -0.590213    21A     -0.589307
      22A     -0.554047    23A     -0.538843    24A     -0.525262
      25A     -0.519762    26A     -0.515450    27A     -0.506785
      28A     -0.490635    29A     -0.478542    30A     -0.473281
      31A     -0.380133    32A     -0.371227

  @DF-RHF Final Energy:  -328.35034797355729

   => Energetics <=

    Nuclear Repulsion Energy =            387.5126378988468900
    One-Electron Energy =               -1211.4509578557099303
    Two-Electron Energy =                 495.5879719833058061
    Total Energy =                       -328.3503479735572910
  Basis Set: (AUG-CC-PVTZ AUX)
    Blend: AUG-CC-PVTZ-RI
    Molecular point group: c1

    Geometry (in Angstrom), charge = 0, multiplicity = 1:

       Center              X                  Y                   Z               Mass
    ------------   -----------------  -----------------  -----------------  -----------------
         N           -0.501875037250    -0.928356018938    -0.031361210617    14.003074004430
         C            0.465878962750    -0.077115018938    -0.025565210617    12.000000000000
         C            1.732865962750    -0.484966018938    -0.738656210617    12.000000000000
         C            0.476116962750     1.301310981062     0.609400789383    12.000000000000
         C            2.798477962750    -0.975692018938     0.246644789383    12.000000000000
         C           -0.154979037250     2.344900981062    -0.320468210617    12.000000000000
         C           -1.854096637250    -0.605932618938     0.672352689383    12.000000000000
         C           -2.888405037250    -0.694444018938    -0.405013210617    12.000000000000
         H            2.121998962750     0.364661981062    -1.315360210617     1.007825032230
         H            1.479434962750    -1.283751018938    -1.440746210617     1.007825032230
         H           -0.042329037250     1.295783981062     1.572832789383     1.007825032230
         H            1.514033962750     1.581947981062     0.817970789383     1.007825032230
         H            3.064742962750    -0.201764018938     0.972946789383     1.007825032230
         H            2.425257962750    -1.844610018938     0.795278789383     1.007825032230
         H            3.711806962750    -1.268000018938    -0.279734210617     1.007825032230
         H            0.356525962750     2.362528981062    -1.287279210617     1.007825032230
         H           -0.090546037250     3.346530981062     0.114893789383     1.007825032230
         H           -1.208572037250     2.118185981062    -0.503212210617     1.007825032230
         H           -1.925504037250    -1.402543018938     1.385754789383     1.007825032230
         H           -1.793192037250     0.342834981062     1.142168789383     1.007825032230
         H           -3.864289037250    -0.554358018938     0.069845789383     1.007825032230
         H           -2.757732037250     0.083710981062    -1.162285210617     1.007825032230
         H           -2.875066037250    -1.663715018938    -0.908071210617     1.007825032230

  Basis Set: AUG-CC-PVTZ
    Blend: AUG-CC-PVTZ
  Basis Set: (AUG-CC-PVTZ AUX)
    Blend: AUG-CC-PVTZ-JKFIT
	 Reference Energy          =    -328.3503479735572910 [Eh]
	 Singles Energy            =      -0.0000000000000000 [Eh]
	 Same-Spin Energy          =      -0.3499333673765607 [Eh]
	 Opposite-Spin Energy      =      -1.2492524881296234 [Eh]
	 Correlation Energy        =      -1.5991858555061842 [Eh]
	 Total Energy              =    -329.9495338290634550 [Eh]

	 ================> DF-SCS-MP2 Energies <==================
	-----------------------------------------------------------
	 SCS Same-Spin Scale       =       0.3333333333333333 [-]
	 SCS Opposite-Spin Scale   =       1.2000000000000000 [-]
	 SCS Same-Spin Energy      =      -0.1166444557921869 [Eh]
	 SCS Opposite-Spin Energy  =      -1.4991029857555480 [Eh]
	 SCS Correlation Energy    =      -1.6157474415477349 [Eh]
	 SCS Total Energy          =    -329.9660954151050305 [Eh]
	-----------------------------------------------------------

  Dipole Moment: [D]
     X:     0.2531      Y:     1.7269      Z:     0.6579     Total:     1.8652

*** Psi4 exiting successfully. Buy a developer a beer!
