                               Psi4 1.3.2 release

  ==> Input File <==

--------------------------------------------------------------------------
#psi4
#
memory 32 gb

molecule  {
0 1
  N       -0.5109270    -0.9518430    -0.0269340
  C        0.3979311    -0.0652891    -0.1634949
  C        1.7238140    -0.5084530    -0.7342290
  C        0.4670650     1.2778240     0.6138280
  C        2.7894260    -0.9991790     0.2510720
  C       -0.1640310     2.3214140    -0.3160410
  C       -1.7763620    -0.6501130     0.6316150
  C       -2.8974570    -0.7179310    -0.4005860
  H        2.1129470     0.3411750    -1.3109330
  H        1.4703830    -1.3072380    -1.4363190
  H       -0.0513810     1.2722970     1.5772600
  H        1.5049820     1.5584610     0.8223980
  H        3.0556910    -0.2252510     0.9773740
  H        2.4162060    -1.8680970     0.7997060
  H        3.7027550    -1.2914870    -0.2753070
  H        0.3474740     2.3390420    -1.2828520
  H       -0.0995980     3.3230440     0.1193210
  H       -1.2176240     2.0946990    -0.4987850
  H       -1.9345560    -1.4260300     1.3901820
  H       -1.8022440     0.3193480     1.1465960
  H       -3.8733410    -0.5778450     0.0742730
  H       -2.7667840     0.0602240    -1.1578580
  H       -2.8841180    -1.6872020    -0.9036440
units angstrom
no_reorient  #important for SAPT in psi4, default
symmetry c1  #important for SAPT in psi4, default
}

set PROPERTIES_ORIGIN ["COM"]
properties('MP2/aug-cc-pvtz', properties = ['dipole'])
--------------------------------------------------------------------------

    Molecular point group: c1
  Charge       = 0
  Multiplicity = 1
  Basis Set: AUG-CC-PVTZ
    Blend: AUG-CC-PVTZ
  Basis Set: (AUG-CC-PVTZ AUX)
    Blend: AUG-CC-PVTZ-JKFIT

    Orbital Energies [Eh]
    ---------------------

    Doubly Occupied:

       1A    -15.540926     2A    -11.272284     3A    -11.243011
       4A    -11.233724     5A    -11.222983     6A    -11.221288
       7A    -11.219242     8A    -11.208193     9A     -1.220307
      10A     -1.063986    11A     -1.024906    12A     -0.994861
      13A     -0.890553    14A     -0.853588    15A     -0.824839
      16A     -0.704305    17A     -0.661533    18A     -0.642165
      19A     -0.599703    20A     -0.589152    21A     -0.587945
      22A     -0.559887    23A     -0.536532    24A     -0.523245
      25A     -0.521333    26A     -0.515299    27A     -0.506458
      28A     -0.488003    29A     -0.481004    30A     -0.468461
      31A     -0.385658    32A     -0.373026

  @DF-RHF Final Energy:  -328.34834201036449

   => Energetics <=

    Nuclear Repulsion Energy =            388.7060774412562409
    One-Electron Energy =               -1213.7520381390831972
    Two-Electron Energy =                 496.6976186874625228
    Total Energy =                       -328.3483420103644903
  Basis Set: (AUG-CC-PVTZ AUX)
    Blend: AUG-CC-PVTZ-RI
    Molecular point group: c1

    Geometry (in Angstrom), charge = 0, multiplicity = 1:

       Center              X                  Y                   Z               Mass
    ------------   -----------------  -----------------  -----------------  -----------------
         N           -0.504833727756    -0.929906879112    -0.011468595178    14.003074004430
         C            0.404024372244    -0.043352979112    -0.148029495178    12.000000000000
         C            1.729907272244    -0.486516879112    -0.718763595178    12.000000000000
         C            0.473158272244     1.299760120888     0.629293404822    12.000000000000
         C            2.795519272244    -0.977242879112     0.266537404822    12.000000000000
         C           -0.157937727756     2.343350120888    -0.300575595178    12.000000000000
         C           -1.770268727756    -0.628176879112     0.647080404822    12.000000000000
         C           -2.891363727756    -0.695994879112    -0.385120595178    12.000000000000
         H            2.119040272244     0.363111120888    -1.295467595178     1.007825032230
         H            1.476476272244    -1.285301879112    -1.420853595178     1.007825032230
         H           -0.045287727756     1.294233120888     1.592725404822     1.007825032230
         H            1.511075272244     1.580397120888     0.837863404822     1.007825032230
         H            3.061784272244    -0.203314879112     0.992839404822     1.007825032230
         H            2.422299272244    -1.846160879112     0.815171404822     1.007825032230
         H            3.708848272244    -1.269550879112    -0.259841595178     1.007825032230
         H            0.353567272244     2.360978120888    -1.267386595178     1.007825032230
         H           -0.093504727756     3.344980120888     0.134786404822     1.007825032230
         H           -1.211530727756     2.116635120888    -0.483319595178     1.007825032230
         H           -1.928462727756    -1.404093879112     1.405647404822     1.007825032230
         H           -1.796150727756     0.341284120888     1.162061404822     1.007825032230
         H           -3.867247727756    -0.555908879112     0.089738404822     1.007825032230
         H           -2.760690727756     0.082160120888    -1.142392595178     1.007825032230
         H           -2.878024727756    -1.665265879112    -0.888178595178     1.007825032230

  Basis Set: AUG-CC-PVTZ
    Blend: AUG-CC-PVTZ
  Basis Set: (AUG-CC-PVTZ AUX)
    Blend: AUG-CC-PVTZ-JKFIT
	 Reference Energy          =    -328.3483420103644903 [Eh]
	 Singles Energy            =      -0.0000000000000000 [Eh]
	 Same-Spin Energy          =      -0.3499999976047938 [Eh]
	 Opposite-Spin Energy      =      -1.2487201974725299 [Eh]
	 Correlation Energy        =      -1.5987201950773238 [Eh]
	 Total Energy              =    -329.9470622054417959 [Eh]

	 ================> DF-SCS-MP2 Energies <==================
	-----------------------------------------------------------
	 SCS Same-Spin Scale       =       0.3333333333333333 [-]
	 SCS Opposite-Spin Scale   =       1.2000000000000000 [-]
	 SCS Same-Spin Energy      =      -0.1166666658682646 [Eh]
	 SCS Opposite-Spin Energy  =      -1.4984642369670358 [Eh]
	 SCS Correlation Energy    =      -1.6151309028353005 [Eh]
	 SCS Total Energy          =    -329.9634729131997801 [Eh]
	-----------------------------------------------------------

  Dipole Moment: [D]
     X:     0.3490      Y:     1.5505      Z:     0.6653     Total:     1.7229

*** Psi4 exiting successfully. Buy a developer a beer!
