                               Psi4 1.3.2 release

  ==> Input File <==

--------------------------------------------------------------------------
#psi4
#
memory 32 gb

molecule  {
0 1
  N       -0.5067939    -0.9269112    -0.0299234
  C        0.4568270    -0.1006020    -0.0211380
  C        1.7238140    -0.5084530    -0.7342290
  C        0.4670650     1.2778240     0.6138280
  C        2.7894260    -0.9991790     0.2510720
  C       -0.1640310     2.3214140    -0.3160410
  C       -1.7763620    -0.6501130     0.6316150
  C       -2.8974570    -0.7179310    -0.4005860
  H        2.1129470     0.3411750    -1.3109330
  H        1.4703830    -1.3072380    -1.4363190
  H       -0.0513810     1.2722970     1.5772600
  H        1.5049820     1.5584610     0.8223980
  H        3.0556910    -0.2252510     0.9773740
  H        2.4162060    -1.8680970     0.7997060
  H        3.7027550    -1.2914870    -0.2753070
  H        0.3474740     2.3390420    -1.2828520
  H       -0.0995980     3.3230440     0.1193210
  H       -1.2176240     2.0946990    -0.4987850
  H       -1.9345560    -1.4260300     1.3901820
  H       -1.8022440     0.3193480     1.1465960
  H       -3.8733410    -0.5778450     0.0742730
  H       -2.7667840     0.0602240    -1.1578580
  H       -2.8841180    -1.6872020    -0.9036440
units angstrom
no_reorient  #important for SAPT in psi4, default
symmetry c1  #important for SAPT in psi4, default
}

set PROPERTIES_ORIGIN ["COM"]
properties('MP2/aug-cc-pvtz', properties = ['dipole'])
--------------------------------------------------------------------------

    Molecular point group: c1
  Charge       = 0
  Multiplicity = 1
  Basis Set: AUG-CC-PVTZ
    Blend: AUG-CC-PVTZ
  Basis Set: (AUG-CC-PVTZ AUX)
    Blend: AUG-CC-PVTZ-JKFIT

    Orbital Energies [Eh]
    ---------------------

    Doubly Occupied:

       1A    -15.535452     2A    -11.268763     3A    -11.242011
       4A    -11.232326     5A    -11.225915     6A    -11.220601
       7A    -11.217002     8A    -11.207233     9A     -1.221689
      10A     -1.065690    11A     -1.026340    12A     -0.995127
      13A     -0.890793    14A     -0.858179    15A     -0.822985
      16A     -0.703512    17A     -0.662193    18A     -0.644253
      19A     -0.599105    20A     -0.592420    21A     -0.589985
      22A     -0.559328    23A     -0.539501    24A     -0.522498
      25A     -0.519896    26A     -0.512018    27A     -0.508753
      28A     -0.487949    29A     -0.482292    30A     -0.472362
      31A     -0.383376    32A     -0.374879

  @DF-RHF Final Energy:  -328.36068211621841

   => Energetics <=

    Nuclear Repulsion Energy =            389.2722392397367912
    One-Electron Energy =               -1214.8969954523333854
    Two-Electron Energy =                 497.2640740963781809
    Total Energy =                       -328.3606821162184133
  Basis Set: (AUG-CC-PVTZ AUX)
    Blend: AUG-CC-PVTZ-RI
    Molecular point group: c1

    Geometry (in Angstrom), charge = 0, multiplicity = 1:

       Center              X                  Y                   Z               Mass
    ------------   -----------------  -----------------  -----------------  -----------------
         N           -0.507460032520    -0.904315313704    -0.029189390059    14.003074004430
         C            0.456160867480    -0.078006113704    -0.020403990059    12.000000000000
         C            1.723147867480    -0.485857113704    -0.733494990059    12.000000000000
         C            0.466398867480     1.300419886296     0.614562009941    12.000000000000
         C            2.788759867480    -0.976583113704     0.251806009941    12.000000000000
         C           -0.164697132520     2.344009886296    -0.315306990059    12.000000000000
         C           -1.777028132520    -0.627517113704     0.632349009941    12.000000000000
         C           -2.898123132520    -0.695335113704    -0.399851990059    12.000000000000
         H            2.112280867480     0.363770886296    -1.310198990059     1.007825032230
         H            1.469716867480    -1.284642113704    -1.435584990059     1.007825032230
         H           -0.052047132520     1.294892886296     1.577994009941     1.007825032230
         H            1.504315867480     1.581056886296     0.823132009941     1.007825032230
         H            3.055024867480    -0.202655113704     0.978108009941     1.007825032230
         H            2.415539867480    -1.845501113704     0.800440009941     1.007825032230
         H            3.702088867480    -1.268891113704    -0.274572990059     1.007825032230
         H            0.346807867480     2.361637886296    -1.282117990059     1.007825032230
         H           -0.100264132520     3.345639886296     0.120055009941     1.007825032230
         H           -1.218290132520     2.117294886296    -0.498050990059     1.007825032230
         H           -1.935222132520    -1.403434113704     1.390916009941     1.007825032230
         H           -1.802910132520     0.341943886296     1.147330009941     1.007825032230
         H           -3.874007132520    -0.555249113704     0.075007009941     1.007825032230
         H           -2.767450132520     0.082819886296    -1.157123990059     1.007825032230
         H           -2.884784132520    -1.664606113704    -0.902909990059     1.007825032230

  Basis Set: AUG-CC-PVTZ
    Blend: AUG-CC-PVTZ
  Basis Set: (AUG-CC-PVTZ AUX)
    Blend: AUG-CC-PVTZ-JKFIT
	 Reference Energy          =    -328.3606821162184133 [Eh]
	 Singles Energy            =      -0.0000000000000000 [Eh]
	 Same-Spin Energy          =      -0.3494140560783487 [Eh]
	 Opposite-Spin Energy      =      -1.2468795000723720 [Eh]
	 Correlation Energy        =      -1.5962935561507208 [Eh]
	 Total Energy              =    -329.9569756723691398 [Eh]

	 ================> DF-SCS-MP2 Energies <==================
	-----------------------------------------------------------
	 SCS Same-Spin Scale       =       0.3333333333333333 [-]
	 SCS Opposite-Spin Scale   =       1.2000000000000000 [-]
	 SCS Same-Spin Energy      =      -0.1164713520261162 [Eh]
	 SCS Opposite-Spin Energy  =      -1.4962554000868464 [Eh]
	 SCS Correlation Energy    =      -1.6127267521129627 [Eh]
	 SCS Total Energy          =    -329.9734088683313757 [Eh]
	-----------------------------------------------------------

  Dipole Moment: [D]
     X:     0.3596      Y:     1.6435      Z:     0.6208     Total:     1.7932

*** Psi4 exiting successfully. Buy a developer a beer!
