                               Psi4 1.4a3.dev225

  ==> Input File <==

--------------------------------------------------------------------------
#psi4
#
memory 32 gb

molecule  {
0 1
  N       -0.5109430    -0.9518430    -0.0269260
  C        0.4568240    -0.1006160    -0.0211450
  C        1.7070180    -0.5031558    -0.7247852
  C        0.4670880     1.2778150     0.6137790
  C        2.7894950    -0.9990730     0.2510970
  C       -0.1640680     2.3213990    -0.3160610
  C       -1.7763790    -0.6500710     0.6316310
  C       -2.8974700    -0.7179400    -0.4005630
  H        2.1128780     0.3409680    -1.3111240
  H        1.4703470    -1.3074830    -1.4361490
  H       -0.0513130     1.2723030     1.5772340
  H        1.5050160     1.5584520     0.8222760
  H        3.0557420    -0.2250230     0.9772740
  H        2.4163470    -1.8679380     0.7998630
  H        3.7028160    -1.2913930    -0.2752870
  H        0.3476260     2.3392860    -1.2827640
  H       -0.0999350     3.3229720     0.1194750
  H       -1.2175750     2.0944730    -0.4990280
  H       -1.9345660    -1.4259490     1.3902370
  H       -1.8022330     0.3194130     1.1465770
  H       -3.8733550    -0.5777970     0.0742800
  H       -2.7667810     0.0601400    -1.1579070
  H       -2.8841480    -1.6872580    -0.9035300
units angstrom
no_reorient  #important for SAPT in psi4, default
symmetry c1  #important for SAPT in psi4, default
}

set PROPERTIES_ORIGIN ["COM"]
properties('MP2/aug-cc-pvtz', properties = ['dipole'])
--------------------------------------------------------------------------

    Molecular point group: c1
  Charge       = 0
  Multiplicity = 1
  Basis Set: AUG-CC-PVTZ
    Blend: AUG-CC-PVTZ
  Basis Set: (AUG-CC-PVTZ AUX)
    Blend: AUG-CC-PVTZ-JKFIT

    Orbital Energies [Eh]
    ---------------------

    Doubly Occupied:

       1A    -15.538896     2A    -11.271516     3A    -11.240875
       4A    -11.234043     5A    -11.226634     6A    -11.221674
       7A    -11.217887     8A    -11.206719     9A     -1.216796
      10A     -1.067464    11A     -1.026671    12A     -0.992405
      13A     -0.892812    14A     -0.858787    15A     -0.820996
      16A     -0.705047    17A     -0.662990    18A     -0.643586
      19A     -0.598688    20A     -0.592225    21A     -0.588962
      22A     -0.558704    23A     -0.540409    24A     -0.522787
      25A     -0.520203    26A     -0.510595    27A     -0.507648
      28A     -0.488496    29A     -0.479798    30A     -0.472671
      31A     -0.381057    32A     -0.377761

  @DF-RHF Final Energy:  -328.35849704400925

   => Energetics <=

    Nuclear Repulsion Energy =            389.0723329037892313
    One-Electron Energy =               -1214.4900566087310381
    Two-Electron Energy =                 497.0592266609326089
    Total Energy =                       -328.3584970440092548
  Basis Set: (AUG-CC-PVTZ AUX)
    Blend: AUG-CC-PVTZ-RI
    Molecular point group: c1

    Geometry (in Angstrom), charge = 0, multiplicity = 1:

       Center              X                  Y                   Z               Mass
    ------------   -----------------  -----------------  -----------------  -----------------
         N           -0.509316765610    -0.926733711059    -0.027563709603    14.003074004430
         C            0.458450234390    -0.075506711059    -0.021782709603    12.000000000000
         C            1.708644234390    -0.478046511059    -0.725422909603    12.000000000000
         C            0.468714234390     1.302924288941     0.613141290397    12.000000000000
         C            2.791121234390    -0.973963711059     0.250459290397    12.000000000000
         C           -0.162441765610     2.346508288941    -0.316698709603    12.000000000000
         C           -1.774752765610    -0.624961711059     0.630993290397    12.000000000000
         C           -2.895843765610    -0.692830711059    -0.401200709603    12.000000000000
         H            2.114504234390     0.366077288941    -1.311761709603     1.007825032230
         H            1.471973234390    -1.282373711059    -1.436786709603     1.007825032230
         H           -0.049686765610     1.297412288941     1.576596290397     1.007825032230
         H            1.506642234390     1.583561288941     0.821638290397     1.007825032230
         H            3.057368234390    -0.199913711059     0.976636290397     1.007825032230
         H            2.417973234390    -1.842828711059     0.799225290397     1.007825032230
         H            3.704442234390    -1.266283711059    -0.275924709603     1.007825032230
         H            0.349252234390     2.364395288941    -1.283401709603     1.007825032230
         H           -0.098308765610     3.348081288941     0.118837290397     1.007825032230
         H           -1.215948765610     2.119582288941    -0.499665709603     1.007825032230
         H           -1.932939765610    -1.400839711059     1.389599290397     1.007825032230
         H           -1.800606765610     0.344522288941     1.145939290397     1.007825032230
         H           -3.871728765610    -0.552687711059     0.073642290397     1.007825032230
         H           -2.765154765610     0.085249288941    -1.158544709603     1.007825032230
         H           -2.882521765610    -1.662148711059    -0.904167709603     1.007825032230

  Basis Set: AUG-CC-PVTZ
    Blend: AUG-CC-PVTZ
  Basis Set: (AUG-CC-PVTZ AUX)
    Blend: AUG-CC-PVTZ-JKFIT
	 Reference Energy          =    -328.3584970440092548 [Eh]
	 Singles Energy            =      -0.0000000000000000 [Eh]
	 Same-Spin Energy          =      -0.3499822271758384 [Eh]
	 Opposite-Spin Energy      =      -1.2481472381990728 [Eh]
	 Correlation Energy        =      -1.5981294653749112 [Eh]
	 Total Energy              =    -329.9566265093841935 [Eh]

	 ================> DF-SCS-MP2 Energies <==================
	-----------------------------------------------------------
	 SCS Same-Spin Scale       =       0.3333333333333333 [-]
	 SCS Opposite-Spin Scale   =       1.2000000000000000 [-]
	 SCS Same-Spin Energy      =      -0.1166607423919461 [Eh]
	 SCS Opposite-Spin Energy  =      -1.4977766858388872 [Eh]
	 SCS Correlation Energy    =      -1.6144374282308334 [Eh]
	 SCS Total Energy          =    -329.9729344722400697 [Eh]
	-----------------------------------------------------------

  Dipole Moment: [D]
     X:     0.3996      Y:     1.6993      Z:     0.6117     Total:     1.8497

*** Psi4 exiting successfully. Buy a developer a beer!
