                               Psi4 1.3.2 release

  ==> Input File <==

--------------------------------------------------------------------------
#psi4
#
memory 32 gb

molecule  {
0 1
  N       -0.5312997    -1.0505758    -0.0129802
  C        0.4568270    -0.1006020    -0.0211380
  C        1.7238140    -0.5084530    -0.7342290
  C        0.4670650     1.2778240     0.6138280
  C        2.7894260    -0.9991790     0.2510720
  C       -0.1640310     2.3214140    -0.3160410
  C       -1.7763620    -0.6501130     0.6316150
  C       -2.8974570    -0.7179310    -0.4005860
  H        2.1129470     0.3411750    -1.3109330
  H        1.4703830    -1.3072380    -1.4363190
  H       -0.0513810     1.2722970     1.5772600
  H        1.5049820     1.5584610     0.8223980
  H        3.0556910    -0.2252510     0.9773740
  H        2.4162060    -1.8680970     0.7997060
  H        3.7027550    -1.2914870    -0.2753070
  H        0.3474740     2.3390420    -1.2828520
  H       -0.0995980     3.3230440     0.1193210
  H       -1.2176240     2.0946990    -0.4987850
  H       -1.9345560    -1.4260300     1.3901820
  H       -1.8022440     0.3193480     1.1465960
  H       -3.8733410    -0.5778450     0.0742730
  H       -2.7667840     0.0602240    -1.1578580
  H       -2.8841180    -1.6872020    -0.9036440
units angstrom
no_reorient  #important for SAPT in psi4, default
symmetry c1  #important for SAPT in psi4, default
}

set PROPERTIES_ORIGIN ["COM"]
properties('MP2/aug-cc-pvtz', properties = ['dipole'])
--------------------------------------------------------------------------

    Molecular point group: c1
  Charge       = 0
  Multiplicity = 1
  Basis Set: AUG-CC-PVTZ
    Blend: AUG-CC-PVTZ
  Basis Set: (AUG-CC-PVTZ AUX)
    Blend: AUG-CC-PVTZ-JKFIT

    Orbital Energies [Eh]
    ---------------------

    Doubly Occupied:

       1A    -15.551506     2A    -11.286595     3A    -11.240498
       4A    -11.237028     5A    -11.229541     6A    -11.224361
       7A    -11.218470     8A    -11.204535     9A     -1.194126
      10A     -1.070480    11A     -1.028974    12A     -0.983404
      13A     -0.895025    14A     -0.858887    15A     -0.813872
      16A     -0.709518    17A     -0.663891    18A     -0.638406
      19A     -0.599733    20A     -0.592309    21A     -0.585061
      22A     -0.553961    23A     -0.542704    24A     -0.523760
      25A     -0.519776    26A     -0.512050    27A     -0.507277
      28A     -0.488709    29A     -0.482734    30A     -0.461238
      31A     -0.397784    32A     -0.359157

  @DF-RHF Final Energy:  -328.34150898217962

   => Energetics <=

    Nuclear Repulsion Energy =            386.9110102295355205
    One-Electron Energy =               -1210.1542966094182248
    Two-Electron Energy =                 494.9017773977030288
    Total Energy =                       -328.3415089821796187
  Basis Set: (AUG-CC-PVTZ AUX)
    Blend: AUG-CC-PVTZ-RI
    Molecular point group: c1

    Geometry (in Angstrom), charge = 0, multiplicity = 1:

       Center              X                  Y                   Z               Mass
    ------------   -----------------  -----------------  -----------------  -----------------
         N           -0.528932282596    -1.012671589229    -0.014343572845    14.003074004430
         C            0.459194417404    -0.062697789229    -0.022501372845    12.000000000000
         C            1.726181417404    -0.470548789229    -0.735592372845    12.000000000000
         C            0.469432417404     1.315728210771     0.612464627155    12.000000000000
         C            2.791793417404    -0.961274789229     0.249708627155    12.000000000000
         C           -0.161663582596     2.359318210771    -0.317404372845    12.000000000000
         C           -1.773994582596    -0.612208789229     0.630251627155    12.000000000000
         C           -2.895089582596    -0.680026789229    -0.401949372845    12.000000000000
         H            2.115314417404     0.379079210771    -1.312296372845     1.007825032230
         H            1.472750417404    -1.269333789229    -1.437682372845     1.007825032230
         H           -0.049013582596     1.310201210771     1.575896627155     1.007825032230
         H            1.507349417404     1.596365210771     0.821034627155     1.007825032230
         H            3.058058417404    -0.187346789229     0.976010627155     1.007825032230
         H            2.418573417404    -1.830192789229     0.798342627155     1.007825032230
         H            3.705122417404    -1.253582789229    -0.276670372845     1.007825032230
         H            0.349841417404     2.376946210771    -1.284215372845     1.007825032230
         H           -0.097230582596     3.360948210771     0.117957627155     1.007825032230
         H           -1.215256582596     2.132603210771    -0.500148372845     1.007825032230
         H           -1.932188582596    -1.388125789229     1.388818627155     1.007825032230
         H           -1.799876582596     0.357252210771     1.145232627155     1.007825032230
         H           -3.870973582596    -0.539940789229     0.072909627155     1.007825032230
         H           -2.764416582596     0.098128210771    -1.159221372845     1.007825032230
         H           -2.881750582596    -1.649297789229    -0.905007372845     1.007825032230

  Basis Set: AUG-CC-PVTZ
    Blend: AUG-CC-PVTZ
  Basis Set: (AUG-CC-PVTZ AUX)
    Blend: AUG-CC-PVTZ-JKFIT
	 Reference Energy          =    -328.3415089821796187 [Eh]
	 Singles Energy            =      -0.0000000000000000 [Eh]
	 Same-Spin Energy          =      -0.3521326970077592 [Eh]
	 Opposite-Spin Energy      =      -1.2535143842493508 [Eh]
	 Correlation Energy        =      -1.6056470812571100 [Eh]
	 Total Energy              =    -329.9471560634367506 [Eh]

	 ================> DF-SCS-MP2 Energies <==================
	-----------------------------------------------------------
	 SCS Same-Spin Scale       =       0.3333333333333333 [-]
	 SCS Opposite-Spin Scale   =       1.2000000000000000 [-]
	 SCS Same-Spin Energy      =      -0.1173775656692531 [Eh]
	 SCS Opposite-Spin Energy  =      -1.5042172610992208 [Eh]
	 SCS Correlation Energy    =      -1.6215948267684739 [Eh]
	 SCS Total Energy          =    -329.9631038089481194 [Eh]
	-----------------------------------------------------------

  Dipole Moment: [D]
     X:     0.4698      Y:     1.9002      Z:     0.5877     Total:     2.0438

*** Psi4 exiting successfully. Buy a developer a beer!
