                               Psi4 1.3.2 release

  ==> Input File <==

--------------------------------------------------------------------------
#psi4
#
memory 32 gb

molecule  {
0 1
  N       -0.5305224    -0.9962362    -0.0422810
  C        0.4568270    -0.1006020    -0.0211380
  C        1.7238140    -0.5084530    -0.7342290
  C        0.4670650     1.2778240     0.6138280
  C        2.7894260    -0.9991790     0.2510720
  C       -0.1640310     2.3214140    -0.3160410
  C       -1.7763620    -0.6501130     0.6316150
  C       -2.8974570    -0.7179310    -0.4005860
  H        2.1129470     0.3411750    -1.3109330
  H        1.4703830    -1.3072380    -1.4363190
  H       -0.0513810     1.2722970     1.5772600
  H        1.5049820     1.5584610     0.8223980
  H        3.0556910    -0.2252510     0.9773740
  H        2.4162060    -1.8680970     0.7997060
  H        3.7027550    -1.2914870    -0.2753070
  H        0.3474740     2.3390420    -1.2828520
  H       -0.0995980     3.3230440     0.1193210
  H       -1.2176240     2.0946990    -0.4987850
  H       -1.9345560    -1.4260300     1.3901820
  H       -1.8022440     0.3193480     1.1465960
  H       -3.8733410    -0.5778450     0.0742730
  H       -2.7667840     0.0602240    -1.1578580
  H       -2.8841180    -1.6872020    -0.9036440
units angstrom
no_reorient  #important for SAPT in psi4, default
symmetry c1  #important for SAPT in psi4, default
}

set PROPERTIES_ORIGIN ["COM"]
properties('MP2/aug-cc-pvtz', properties = ['dipole'])
--------------------------------------------------------------------------

    Molecular point group: c1
  Charge       = 0
  Multiplicity = 1
  Basis Set: AUG-CC-PVTZ
    Blend: AUG-CC-PVTZ
  Basis Set: (AUG-CC-PVTZ AUX)
    Blend: AUG-CC-PVTZ-JKFIT

    Orbital Energies [Eh]
    ---------------------

    Doubly Occupied:

       1A    -15.546043     2A    -11.280203     3A    -11.238680
       4A    -11.237727     5A    -11.228278     6A    -11.222998
       7A    -11.218053     8A    -11.204880     9A     -1.203622
      10A     -1.068825    11A     -1.028047    12A     -0.987548
      13A     -0.893170    14A     -0.858597    15A     -0.816915
      16A     -0.707709    17A     -0.663273    18A     -0.640601
      19A     -0.599438    20A     -0.591788    21A     -0.588106
      22A     -0.555466    23A     -0.541253    24A     -0.523169
      25A     -0.519365    26A     -0.511387    27A     -0.507998
      28A     -0.488488    29A     -0.482322    30A     -0.465775
      31A     -0.390080    32A     -0.368167

  @DF-RHF Final Energy:  -328.35149580885798

   => Energetics <=

    Nuclear Repulsion Energy =            387.8145459432115558
    One-Electron Energy =               -1211.9761386313743969
    Two-Electron Energy =                 495.8100968793048651
    Total Energy =                       -328.3514958088579760
  Basis Set: (AUG-CC-PVTZ AUX)
    Blend: AUG-CC-PVTZ-RI
    Molecular point group: c1

    Geometry (in Angstrom), charge = 0, multiplicity = 1:

       Center              X                  Y                   Z               Mass
    ------------   -----------------  -----------------  -----------------  -----------------
         N           -0.528251203832    -0.965058637184    -0.040017254383    14.003074004430
         C            0.459098196168    -0.069424437184    -0.018874254383    12.000000000000
         C            1.726085196168    -0.477275437184    -0.731965254383    12.000000000000
         C            0.469336196168     1.309001562816     0.616091745617    12.000000000000
         C            2.791697196168    -0.968001437184     0.253335745617    12.000000000000
         C           -0.161759803832     2.352591562816    -0.313777254383    12.000000000000
         C           -1.774090803832    -0.618935437184     0.633878745617    12.000000000000
         C           -2.895185803832    -0.686753437184    -0.398322254383    12.000000000000
         H            2.115218196168     0.372352562816    -1.308669254383     1.007825032230
         H            1.472654196168    -1.276060437184    -1.434055254383     1.007825032230
         H           -0.049109803832     1.303474562816     1.579523745617     1.007825032230
         H            1.507253196168     1.589638562816     0.824661745617     1.007825032230
         H            3.057962196168    -0.194073437184     0.979637745617     1.007825032230
         H            2.418477196168    -1.836919437184     0.801969745617     1.007825032230
         H            3.705026196168    -1.260309437184    -0.273043254383     1.007825032230
         H            0.349745196168     2.370219562816    -1.280588254383     1.007825032230
         H           -0.097326803832     3.354221562816     0.121584745617     1.007825032230
         H           -1.215352803832     2.125876562816    -0.496521254383     1.007825032230
         H           -1.932284803832    -1.394852437184     1.392445745617     1.007825032230
         H           -1.799972803832     0.350525562816     1.148859745617     1.007825032230
         H           -3.871069803832    -0.546667437184     0.076536745617     1.007825032230
         H           -2.764512803832     0.091401562816    -1.155594254383     1.007825032230
         H           -2.881846803832    -1.656024437184    -0.901380254383     1.007825032230

  Basis Set: AUG-CC-PVTZ
    Blend: AUG-CC-PVTZ
  Basis Set: (AUG-CC-PVTZ AUX)
    Blend: AUG-CC-PVTZ-JKFIT
	 Reference Energy          =    -328.3514958088579760 [Eh]
	 Singles Energy            =      -0.0000000000000000 [Eh]
	 Same-Spin Energy          =      -0.3510287149744399 [Eh]
	 Opposite-Spin Energy      =      -1.2508720446928054 [Eh]
	 Correlation Energy        =      -1.6019007596672452 [Eh]
	 Total Energy              =    -329.9533965685252497 [Eh]

	 ================> DF-SCS-MP2 Energies <==================
	-----------------------------------------------------------
	 SCS Same-Spin Scale       =       0.3333333333333333 [-]
	 SCS Opposite-Spin Scale   =       1.2000000000000000 [-]
	 SCS Same-Spin Energy      =      -0.1170095716581466 [Eh]
	 SCS Opposite-Spin Energy  =      -1.5010464536313666 [Eh]
	 SCS Correlation Energy    =      -1.6180560252895133 [Eh]
	 SCS Total Energy          =    -329.9695518341474667 [Eh]
	-----------------------------------------------------------

  Dipole Moment: [D]
     X:     0.4615      Y:     1.8056      Z:     0.6379     Total:     1.9698

*** Psi4 exiting successfully. Buy a developer a beer!
