                               Psi4 1.3.2 release

  ==> Input File <==

--------------------------------------------------------------------------
#psi4
#
memory 32 gb

molecule  {
0 1
  N       -0.5437681    -1.0992403    -0.0048209
  C        0.4568270    -0.1006020    -0.0211380
  C        1.7238140    -0.5084530    -0.7342290
  C        0.4670650     1.2778240     0.6138280
  C        2.7894260    -0.9991790     0.2510720
  C       -0.1640310     2.3214140    -0.3160410
  C       -1.7763620    -0.6501130     0.6316150
  C       -2.8974570    -0.7179310    -0.4005860
  H        2.1129470     0.3411750    -1.3109330
  H        1.4703830    -1.3072380    -1.4363190
  H       -0.0513810     1.2722970     1.5772600
  H        1.5049820     1.5584610     0.8223980
  H        3.0556910    -0.2252510     0.9773740
  H        2.4162060    -1.8680970     0.7997060
  H        3.7027550    -1.2914870    -0.2753070
  H        0.3474740     2.3390420    -1.2828520
  H       -0.0995980     3.3230440     0.1193210
  H       -1.2176240     2.0946990    -0.4987850
  H       -1.9345560    -1.4260300     1.3901820
  H       -1.8022440     0.3193480     1.1465960
  H       -3.8733410    -0.5778450     0.0742730
  H       -2.7667840     0.0602240    -1.1578580
  H       -2.8841180    -1.6872020    -0.9036440
units angstrom
no_reorient  #important for SAPT in psi4, default
symmetry c1  #important for SAPT in psi4, default
}

set PROPERTIES_ORIGIN ["COM"]
properties('MP2/aug-cc-pvtz', properties = ['dipole'])
--------------------------------------------------------------------------

    Molecular point group: c1
  Charge       = 0
  Multiplicity = 1
  Basis Set: AUG-CC-PVTZ
    Blend: AUG-CC-PVTZ
  Basis Set: (AUG-CC-PVTZ AUX)
    Blend: AUG-CC-PVTZ-JKFIT

    Orbital Energies [Eh]
    ---------------------

    Doubly Occupied:

       1A    -15.557199     2A    -11.293632     3A    -11.243463
       4A    -11.235416     5A    -11.230985     6A    -11.225867
       7A    -11.219182     8A    -11.203424     9A     -1.184548
      10A     -1.072513    11A     -1.030029    12A     -0.978565
      13A     -0.896843    14A     -0.859314    15A     -0.809988
      16A     -0.712041    17A     -0.664513    18A     -0.636624
      19A     -0.599889    20A     -0.593141    21A     -0.582265
      22A     -0.552361    23A     -0.544040    24A     -0.524365
      25A     -0.519983    26A     -0.512156    27A     -0.506524
      28A     -0.488610    29A     -0.483208    30A     -0.455729
      31A     -0.405510    32A     -0.349777

  @DF-RHF Final Energy:  -328.32705374927775

   => Energetics <=

    Nuclear Repulsion Energy =            385.9878297480134961
    One-Electron Energy =               -1208.2863650411436538
    Two-Electron Energy =                 493.9714815438524056
    Total Energy =                       -328.3270537492777521
  Basis Set: (AUG-CC-PVTZ AUX)
    Blend: AUG-CC-PVTZ-RI
    Molecular point group: c1

    Geometry (in Angstrom), charge = 0, multiplicity = 1:

       Center              X                  Y                   Z               Mass
    ------------   -----------------  -----------------  -----------------  -----------------
         N           -0.539857231092    -1.055311956564    -0.007194304915    14.003074004430
         C            0.460737868908    -0.056673656564    -0.023511404915    12.000000000000
         C            1.727724868908    -0.464524656564    -0.736602404915    12.000000000000
         C            0.470975868908     1.321752343436     0.611454595085    12.000000000000
         C            2.793336868908    -0.955250656564     0.248698595085    12.000000000000
         C           -0.160120131092     2.365342343436    -0.318414404915    12.000000000000
         C           -1.772451131092    -0.606184656564     0.629241595085    12.000000000000
         C           -2.893546131092    -0.674002656564    -0.402959404915    12.000000000000
         H            2.116857868908     0.385103343436    -1.313306404915     1.007825032230
         H            1.474293868908    -1.263309656564    -1.438692404915     1.007825032230
         H           -0.047470131092     1.316225343436     1.574886595085     1.007825032230
         H            1.508892868908     1.602389343436     0.820024595085     1.007825032230
         H            3.059601868908    -0.181322656564     0.975000595085     1.007825032230
         H            2.420116868908    -1.824168656564     0.797332595085     1.007825032230
         H            3.706665868908    -1.247558656564    -0.277680404915     1.007825032230
         H            0.351384868908     2.382970343436    -1.285225404915     1.007825032230
         H           -0.095687131092     3.366972343436     0.116947595085     1.007825032230
         H           -1.213713131092     2.138627343436    -0.501158404915     1.007825032230
         H           -1.930645131092    -1.382101656564     1.387808595085     1.007825032230
         H           -1.798333131092     0.363276343436     1.144222595085     1.007825032230
         H           -3.869430131092    -0.533916656564     0.071899595085     1.007825032230
         H           -2.762873131092     0.104152343436    -1.160231404915     1.007825032230
         H           -2.880207131092    -1.643273656564    -0.906017404915     1.007825032230

  Basis Set: AUG-CC-PVTZ
    Blend: AUG-CC-PVTZ
  Basis Set: (AUG-CC-PVTZ AUX)
    Blend: AUG-CC-PVTZ-JKFIT
	 Reference Energy          =    -328.3270537492777521 [Eh]
	 Singles Energy            =      -0.0000000000000000 [Eh]
	 Same-Spin Energy          =      -0.3535747701186251 [Eh]
	 Opposite-Spin Energy      =      -1.2568347318784139 [Eh]
	 Correlation Energy        =      -1.6104095019970390 [Eh]
	 Total Energy              =    -329.9374632512747780 [Eh]

	 ================> DF-SCS-MP2 Energies <==================
	-----------------------------------------------------------
	 SCS Same-Spin Scale       =       0.3333333333333333 [-]
	 SCS Opposite-Spin Scale   =       1.2000000000000000 [-]
	 SCS Same-Spin Energy      =      -0.1178582567062084 [Eh]
	 SCS Opposite-Spin Energy  =      -1.5082016782540966 [Eh]
	 SCS Correlation Energy    =      -1.6260599349603049 [Eh]
	 SCS Total Energy          =    -329.9531136842380761 [Eh]
	-----------------------------------------------------------

  Dipole Moment: [D]
     X:     0.4859      Y:     1.9698      Z:     0.5739     Total:     2.1084

*** Psi4 exiting successfully. Buy a developer a beer!
