                               Psi4 1.4a3.dev225

  ==> Input File <==

--------------------------------------------------------------------------
#psi4
#
memory 32 gb

molecule  {
0 1
  N       -0.5109430    -0.9518430    -0.0269260
  C        0.4718413    -0.0874071    -0.0210553
  C        1.7237990    -0.5085590    -0.7342300
  C        0.4670880     1.2778150     0.6137790
  C        2.7894950    -0.9990730     0.2510970
  C       -0.1640680     2.3213990    -0.3160610
  C       -1.7763790    -0.6500710     0.6316310
  C       -2.8974700    -0.7179400    -0.4005630
  H        2.1128780     0.3409680    -1.3111240
  H        1.4703470    -1.3074830    -1.4361490
  H       -0.0513130     1.2723030     1.5772340
  H        1.5050160     1.5584520     0.8222760
  H        3.0557420    -0.2250230     0.9772740
  H        2.4163470    -1.8679380     0.7998630
  H        3.7028160    -1.2913930    -0.2752870
  H        0.3476260     2.3392860    -1.2827640
  H       -0.0999350     3.3229720     0.1194750
  H       -1.2175750     2.0944730    -0.4990280
  H       -1.9345660    -1.4259490     1.3902370
  H       -1.8022330     0.3194130     1.1465770
  H       -3.8733550    -0.5777970     0.0742800
  H       -2.7667810     0.0601400    -1.1579070
  H       -2.8841480    -1.6872580    -0.9035300
units angstrom
no_reorient  #important for SAPT in psi4, default
symmetry c1  #important for SAPT in psi4, default
}

set PROPERTIES_ORIGIN ["COM"]
properties('MP2/aug-cc-pvtz', properties = ['dipole'])
--------------------------------------------------------------------------

    Molecular point group: c1
  Charge       = 0
  Multiplicity = 1
  Basis Set: AUG-CC-PVTZ
    Blend: AUG-CC-PVTZ
  Basis Set: (AUG-CC-PVTZ AUX)
    Blend: AUG-CC-PVTZ-JKFIT

    Orbital Energies [Eh]
    ---------------------

    Doubly Occupied:

       1A    -15.540035     2A    -11.274282     3A    -11.240016
       4A    -11.234350     5A    -11.227242     6A    -11.221918
       7A    -11.217751     8A    -11.206117     9A     -1.209625
      10A     -1.068585    11A     -1.028121    12A     -0.990506
      13A     -0.893326    14A     -0.859407    15A     -0.819811
      16A     -0.705382    17A     -0.663631    18A     -0.642662
      19A     -0.598559    20A     -0.592419    21A     -0.589465
      22A     -0.557700    23A     -0.540572    24A     -0.522975
      25A     -0.519793    26A     -0.512139    27A     -0.508310
      28A     -0.487736    29A     -0.482982    30A     -0.470706
      31A     -0.381673    32A     -0.372623

  @DF-RHF Final Energy:  -328.35659421449253

   => Energetics <=

    Nuclear Repulsion Energy =            388.6982580899236837
    One-Electron Energy =               -1213.7488677321268824
    Two-Electron Energy =                 496.6940154277106672
    Total Energy =                       -328.3565942144925316
  Basis Set: (AUG-CC-PVTZ AUX)
    Blend: AUG-CC-PVTZ-RI
    Molecular point group: c1

    Geometry (in Angstrom), charge = 0, multiplicity = 1:

       Center              X                  Y                   Z               Mass
    ------------   -----------------  -----------------  -----------------  -----------------
         N           -0.512689980636    -0.927561752323    -0.026571305484    14.003074004430
         C            0.470094319364    -0.063125852323    -0.020700605484    12.000000000000
         C            1.722052019364    -0.484277752323    -0.733875305484    12.000000000000
         C            0.465341019364     1.302096247677     0.614133694516    12.000000000000
         C            2.787748019364    -0.974791752323     0.251451694516    12.000000000000
         C           -0.165814980636     2.345680247677    -0.315706305484    12.000000000000
         C           -1.778125980636    -0.625789752323     0.631985694516    12.000000000000
         C           -2.899216980636    -0.693658752323    -0.400208305484    12.000000000000
         H            2.111131019364     0.365249247677    -1.310769305484     1.007825032230
         H            1.468600019364    -1.283201752323    -1.435794305484     1.007825032230
         H           -0.053059980636     1.296584247677     1.577588694516     1.007825032230
         H            1.503269019364     1.582733247677     0.822630694516     1.007825032230
         H            3.053995019364    -0.200741752323     0.977628694516     1.007825032230
         H            2.414600019364    -1.843656752323     0.800217694516     1.007825032230
         H            3.701069019364    -1.267111752323    -0.274932305484     1.007825032230
         H            0.345879019364     2.363567247677    -1.282409305484     1.007825032230
         H           -0.101681980636     3.347253247677     0.119829694516     1.007825032230
         H           -1.219321980636     2.118754247677    -0.498673305484     1.007825032230
         H           -1.936312980636    -1.401667752323     1.390591694516     1.007825032230
         H           -1.803979980636     0.343694247677     1.146931694516     1.007825032230
         H           -3.875101980636    -0.553515752323     0.074634694516     1.007825032230
         H           -2.768527980636     0.084421247677    -1.157552305484     1.007825032230
         H           -2.885894980636    -1.662976752323    -0.903175305484     1.007825032230

  Basis Set: AUG-CC-PVTZ
    Blend: AUG-CC-PVTZ
  Basis Set: (AUG-CC-PVTZ AUX)
    Blend: AUG-CC-PVTZ-JKFIT
	 Reference Energy          =    -328.3565942144925316 [Eh]
	 Singles Energy            =      -0.0000000000000000 [Eh]
	 Same-Spin Energy          =      -0.3504421069542920 [Eh]
	 Opposite-Spin Energy      =      -1.2491039464360700 [Eh]
	 Correlation Energy        =      -1.5995460533903620 [Eh]
	 Total Energy              =    -329.9561402678829154 [Eh]

	 ================> DF-SCS-MP2 Energies <==================
	-----------------------------------------------------------
	 SCS Same-Spin Scale       =       0.3333333333333333 [-]
	 SCS Opposite-Spin Scale   =       1.2000000000000000 [-]
	 SCS Same-Spin Energy      =      -0.1168140356514306 [Eh]
	 SCS Opposite-Spin Energy  =      -1.4989247357232840 [Eh]
	 SCS Correlation Energy    =      -1.6157387713747147 [Eh]
	 SCS Total Energy          =    -329.9723329858672400 [Eh]
	-----------------------------------------------------------

  Dipole Moment: [D]
     X:     0.4298      Y:     1.7334      Z:     0.6109     Total:     1.8875

*** Psi4 exiting successfully. Buy a developer a beer!
