                               Psi4 1.3.2 release

  ==> Input File <==

--------------------------------------------------------------------------
#psi4
#
memory 32 gb

molecule  {
0 1
  N       -0.5109270    -0.9518430    -0.0269340
  C        0.4693288    -0.1150312    -0.0330342
  C        1.7238140    -0.5084530    -0.7342290
  C        0.4670650     1.2778240     0.6138280
  C        2.7894260    -0.9991790     0.2510720
  C       -0.1640310     2.3214140    -0.3160410
  C       -1.7763620    -0.6501130     0.6316150
  C       -2.8974570    -0.7179310    -0.4005860
  H        2.1129470     0.3411750    -1.3109330
  H        1.4703830    -1.3072380    -1.4363190
  H       -0.0513810     1.2722970     1.5772600
  H        1.5049820     1.5584610     0.8223980
  H        3.0556910    -0.2252510     0.9773740
  H        2.4162060    -1.8680970     0.7997060
  H        3.7027550    -1.2914870    -0.2753070
  H        0.3474740     2.3390420    -1.2828520
  H       -0.0995980     3.3230440     0.1193210
  H       -1.2176240     2.0946990    -0.4987850
  H       -1.9345560    -1.4260300     1.3901820
  H       -1.8022440     0.3193480     1.1465960
  H       -3.8733410    -0.5778450     0.0742730
  H       -2.7667840     0.0602240    -1.1578580
  H       -2.8841180    -1.6872020    -0.9036440
units angstrom
no_reorient  #important for SAPT in psi4, default
symmetry c1  #important for SAPT in psi4, default
}

set PROPERTIES_ORIGIN ["COM"]
properties('MP2/aug-cc-pvtz', properties = ['dipole'])
--------------------------------------------------------------------------

    Molecular point group: c1
  Charge       = 0
  Multiplicity = 1
  Basis Set: AUG-CC-PVTZ
    Blend: AUG-CC-PVTZ
  Basis Set: (AUG-CC-PVTZ AUX)
    Blend: AUG-CC-PVTZ-JKFIT

    Orbital Energies [Eh]
    ---------------------

    Doubly Occupied:

       1A    -15.538330     2A    -11.272380     3A    -11.241431
       4A    -11.233887     5A    -11.225806     6A    -11.221208
       7A    -11.218121     8A    -11.206752     9A     -1.215074
      10A     -1.066981    11A     -1.026742    12A     -0.993244
      13A     -0.891842    14A     -0.857571    15A     -0.822456
      16A     -0.704235    17A     -0.662360    18A     -0.642926
      19A     -0.598376    20A     -0.592689    21A     -0.589913
      22A     -0.558422    23A     -0.539501    24A     -0.522056
      25A     -0.519465    26A     -0.513161    27A     -0.508549
      28A     -0.487876    29A     -0.482298    30A     -0.473023
      31A     -0.378858    32A     -0.377124

  @DF-RHF Final Energy:  -328.35871337663639

   => Energetics <=

    Nuclear Repulsion Energy =            388.7526955878554986
    One-Electron Energy =               -1213.8575046373243822
    Two-Electron Energy =                 496.7460956728325527
    Total Energy =                       -328.3587133766363877
  Basis Set: (AUG-CC-PVTZ AUX)
    Blend: AUG-CC-PVTZ-RI
    Molecular point group: c1

    Geometry (in Angstrom), charge = 0, multiplicity = 1:

       Center              X                  Y                   Z               Mass
    ------------   -----------------  -----------------  -----------------  -----------------
         N           -0.512407711098    -0.924630156798    -0.025308076961    14.003074004430
         C            0.467848088902    -0.087818356798    -0.031408276961    12.000000000000
         C            1.722333288902    -0.481240156798    -0.732603076961    12.000000000000
         C            0.465584288902     1.305036843202     0.615453923039    12.000000000000
         C            2.787945288902    -0.971966156798     0.252697923039    12.000000000000
         C           -0.165511711098     2.348626843202    -0.314415076961    12.000000000000
         C           -1.777842711098    -0.622900156798     0.633240923039    12.000000000000
         C           -2.898937711098    -0.690718156798    -0.398960076961    12.000000000000
         H            2.111466288902     0.368387843202    -1.309307076961     1.007825032230
         H            1.468902288902    -1.280025156798    -1.434693076961     1.007825032230
         H           -0.052861711098     1.299509843202     1.578885923039     1.007825032230
         H            1.503501288902     1.585673843202     0.824023923039     1.007825032230
         H            3.054210288902    -0.198038156798     0.978999923039     1.007825032230
         H            2.414725288902    -1.840884156798     0.801331923039     1.007825032230
         H            3.701274288902    -1.264274156798    -0.273681076961     1.007825032230
         H            0.345993288902     2.366254843202    -1.281226076961     1.007825032230
         H           -0.101078711098     3.350256843202     0.120946923039     1.007825032230
         H           -1.219104711098     2.121911843202    -0.497159076961     1.007825032230
         H           -1.936036711098    -1.398817156798     1.391807923039     1.007825032230
         H           -1.803724711098     0.346560843202     1.148221923039     1.007825032230
         H           -3.874821711098    -0.550632156798     0.075898923039     1.007825032230
         H           -2.768264711098     0.087436843202    -1.156232076961     1.007825032230
         H           -2.885598711098    -1.659989156798    -0.902018076961     1.007825032230

  Basis Set: AUG-CC-PVTZ
    Blend: AUG-CC-PVTZ
  Basis Set: (AUG-CC-PVTZ AUX)
    Blend: AUG-CC-PVTZ-JKFIT
	 Reference Energy          =    -328.3587133766363877 [Eh]
	 Singles Energy            =      -0.0000000000000000 [Eh]
	 Same-Spin Energy          =      -0.3498535941868554 [Eh]
	 Opposite-Spin Energy      =      -1.2479398709541840 [Eh]
	 Correlation Energy        =      -1.5977934651410393 [Eh]
	 Total Energy              =    -329.9565068417774114 [Eh]

	 ================> DF-SCS-MP2 Energies <==================
	-----------------------------------------------------------
	 SCS Same-Spin Scale       =       0.3333333333333333 [-]
	 SCS Opposite-Spin Scale   =       1.2000000000000000 [-]
	 SCS Same-Spin Energy      =      -0.1166178647289518 [Eh]
	 SCS Opposite-Spin Energy  =      -1.4975278451450207 [Eh]
	 SCS Correlation Energy    =      -1.6141457098739724 [Eh]
	 SCS Total Energy          =    -329.9728590865103683 [Eh]
	-----------------------------------------------------------

  Dipole Moment: [D]
     X:     0.4275      Y:     1.6574      Z:     0.5931     Total:     1.8115

*** Psi4 exiting successfully. Buy a developer a beer!
