                               Psi4 1.3.2 release

  ==> Input File <==

--------------------------------------------------------------------------
#psi4
#
memory 32 gb

molecule  {
0 1
  N       -0.5109270    -0.9518430    -0.0269340
  C        0.4460277    -0.0943951    -0.0443627
  C        1.7238140    -0.5084530    -0.7342290
  C        0.4670650     1.2778240     0.6138280
  C        2.7894260    -0.9991790     0.2510720
  C       -0.1640310     2.3214140    -0.3160410
  C       -1.7763620    -0.6501130     0.6316150
  C       -2.8974570    -0.7179310    -0.4005860
  H        2.1129470     0.3411750    -1.3109330
  H        1.4703830    -1.3072380    -1.4363190
  H       -0.0513810     1.2722970     1.5772600
  H        1.5049820     1.5584610     0.8223980
  H        3.0556910    -0.2252510     0.9773740
  H        2.4162060    -1.8680970     0.7997060
  H        3.7027550    -1.2914870    -0.2753070
  H        0.3474740     2.3390420    -1.2828520
  H       -0.0995980     3.3230440     0.1193210
  H       -1.2176240     2.0946990    -0.4987850
  H       -1.9345560    -1.4260300     1.3901820
  H       -1.8022440     0.3193480     1.1465960
  H       -3.8733410    -0.5778450     0.0742730
  H       -2.7667840     0.0602240    -1.1578580
  H       -2.8841180    -1.6872020    -0.9036440
units angstrom
no_reorient  #important for SAPT in psi4, default
symmetry c1  #important for SAPT in psi4, default
}

set PROPERTIES_ORIGIN ["COM"]
properties('MP2/aug-cc-pvtz', properties = ['dipole'])
--------------------------------------------------------------------------

    Molecular point group: c1
  Charge       = 0
  Multiplicity = 1
  Basis Set: AUG-CC-PVTZ
    Blend: AUG-CC-PVTZ
  Basis Set: (AUG-CC-PVTZ AUX)
    Blend: AUG-CC-PVTZ-JKFIT

    Orbital Energies [Eh]
    ---------------------

    Doubly Occupied:

       1A    -15.538600     2A    -11.271960     3A    -11.241167
       4A    -11.233948     5A    -11.226095     6A    -11.221288
       7A    -11.217593     8A    -11.206856     9A     -1.217046
      10A     -1.066207    11A     -1.026633    12A     -0.993308
      13A     -0.891274    14A     -0.857819    15A     -0.821905
      16A     -0.704536    17A     -0.662463    18A     -0.643008
      19A     -0.599409    20A     -0.591046    21A     -0.589738
      22A     -0.558388    23A     -0.539604    24A     -0.522893
      25A     -0.519794    26A     -0.512691    27A     -0.508186
      28A     -0.488321    29A     -0.482075    30A     -0.470496
      31A     -0.380941    32A     -0.377933

  @DF-RHF Final Energy:  -328.35910456765237

   => Energetics <=

    Nuclear Repulsion Energy =            388.8272534446472264
    One-Electron Energy =               -1214.0062759198463027
    Two-Electron Energy =                 496.8199179075467100
    Total Energy =                       -328.3591045676523663
  Basis Set: (AUG-CC-PVTZ AUX)
    Blend: AUG-CC-PVTZ-RI
    Molecular point group: c1

    Geometry (in Angstrom), charge = 0, multiplicity = 1:

       Center              X                  Y                   Z               Mass
    ------------   -----------------  -----------------  -----------------  -----------------
         N           -0.509935892772    -0.926819267619    -0.024106331383    14.003074004430
         C            0.447018807228    -0.069371367619    -0.041535031383    12.000000000000
         C            1.724805107228    -0.483429267619    -0.731401331383    12.000000000000
         C            0.468056107228     1.302847732381     0.616655668617    12.000000000000
         C            2.790417107228    -0.974155267619     0.253899668617    12.000000000000
         C           -0.163039892772     2.346437732381    -0.313213331383    12.000000000000
         C           -1.775370892772    -0.625089267619     0.634442668617    12.000000000000
         C           -2.896465892772    -0.692907267619    -0.397758331383    12.000000000000
         H            2.113938107228     0.366198732381    -1.308105331383     1.007825032230
         H            1.471374107228    -1.282214267619    -1.433491331383     1.007825032230
         H           -0.050389892772     1.297320732381     1.580087668617     1.007825032230
         H            1.505973107228     1.583484732381     0.825225668617     1.007825032230
         H            3.056682107228    -0.200227267619     0.980201668617     1.007825032230
         H            2.417197107228    -1.843073267619     0.802533668617     1.007825032230
         H            3.703746107228    -1.266463267619    -0.272479331383     1.007825032230
         H            0.348465107228     2.364065732381    -1.280024331383     1.007825032230
         H           -0.098606892772     3.348067732381     0.122148668617     1.007825032230
         H           -1.216632892772     2.119722732381    -0.495957331383     1.007825032230
         H           -1.933564892772    -1.401006267619     1.393009668617     1.007825032230
         H           -1.801252892772     0.344371732381     1.149423668617     1.007825032230
         H           -3.872349892772    -0.552821267619     0.077100668617     1.007825032230
         H           -2.765792892772     0.085247732381    -1.155030331383     1.007825032230
         H           -2.883126892772    -1.662178267619    -0.900816331383     1.007825032230

  Basis Set: AUG-CC-PVTZ
    Blend: AUG-CC-PVTZ
  Basis Set: (AUG-CC-PVTZ AUX)
    Blend: AUG-CC-PVTZ-JKFIT
	 Reference Energy          =    -328.3591045676523663 [Eh]
	 Singles Energy            =      -0.0000000000000000 [Eh]
	 Same-Spin Energy          =      -0.3497652082994965 [Eh]
	 Opposite-Spin Energy      =      -1.2478258944433263 [Eh]
	 Correlation Energy        =      -1.5975911027428227 [Eh]
	 Total Energy              =    -329.9566956703951632 [Eh]

	 ================> DF-SCS-MP2 Energies <==================
	-----------------------------------------------------------
	 SCS Same-Spin Scale       =       0.3333333333333333 [-]
	 SCS Opposite-Spin Scale   =       1.2000000000000000 [-]
	 SCS Same-Spin Energy      =      -0.1165884027664988 [Eh]
	 SCS Opposite-Spin Energy  =      -1.4973910733319915 [Eh]
	 SCS Correlation Energy    =      -1.6139794760984905 [Eh]
	 SCS Total Energy          =    -329.9730840437508732 [Eh]
	-----------------------------------------------------------

  Dipole Moment: [D]
     X:     0.3876      Y:     1.6839      Z:     0.6240     Total:     1.8371

*** Psi4 exiting successfully. Buy a developer a beer!
