                               Psi4 1.3.2 release

  ==> Input File <==

--------------------------------------------------------------------------
#psi4
#
memory 32 gb

molecule  {
0 1
  N       -0.5109270    -0.9518430    -0.0269340
  C        0.5296043    -0.1403834     0.1134061
  C        1.7238140    -0.5084530    -0.7342290
  C        0.4670650     1.2778240     0.6138280
  C        2.7894260    -0.9991790     0.2510720
  C       -0.1640310     2.3214140    -0.3160410
  C       -1.7763620    -0.6501130     0.6316150
  C       -2.8974570    -0.7179310    -0.4005860
  H        2.1129470     0.3411750    -1.3109330
  H        1.4703830    -1.3072380    -1.4363190
  H       -0.0513810     1.2722970     1.5772600
  H        1.5049820     1.5584610     0.8223980
  H        3.0556910    -0.2252510     0.9773740
  H        2.4162060    -1.8680970     0.7997060
  H        3.7027550    -1.2914870    -0.2753070
  H        0.3474740     2.3390420    -1.2828520
  H       -0.0995980     3.3230440     0.1193210
  H       -1.2176240     2.0946990    -0.4987850
  H       -1.9345560    -1.4260300     1.3901820
  H       -1.8022440     0.3193480     1.1465960
  H       -3.8733410    -0.5778450     0.0742730
  H       -2.7667840     0.0602240    -1.1578580
  H       -2.8841180    -1.6872020    -0.9036440
units angstrom
no_reorient  #important for SAPT in psi4, default
symmetry c1  #important for SAPT in psi4, default
}

set PROPERTIES_ORIGIN ["COM"]
properties('MP2/aug-cc-pvtz', properties = ['dipole'])
--------------------------------------------------------------------------

    Molecular point group: c1
  Charge       = 0
  Multiplicity = 1
  Basis Set: AUG-CC-PVTZ
    Blend: AUG-CC-PVTZ
  Basis Set: (AUG-CC-PVTZ AUX)
    Blend: AUG-CC-PVTZ-JKFIT

    Orbital Energies [Eh]
    ---------------------

    Doubly Occupied:

       1A    -15.544671     2A    -11.276899     3A    -11.240017
       4A    -11.235052     5A    -11.229310     6A    -11.222132
       7A    -11.215389     8A    -11.206600     9A     -1.205303
      10A     -1.068533    11A     -1.027652    12A     -0.989314
      13A     -0.893796    14A     -0.858705    15A     -0.817043
      16A     -0.706129    17A     -0.662533    18A     -0.640754
      19A     -0.597301    20A     -0.594059    21A     -0.590249
      22A     -0.557033    23A     -0.541885    24A     -0.520918
      25A     -0.519690    26A     -0.511912    27A     -0.507865
      28A     -0.486794    29A     -0.482377    30A     -0.467654
      31A     -0.383220    32A     -0.368076

  @DF-RHF Final Energy:  -328.34294360275607

   => Energetics <=

    Nuclear Repulsion Energy =            388.2422077751920142
    One-Electron Energy =               -1212.8325697707734889
    Two-Electron Energy =                 496.2474183928254092
    Total Energy =                       -328.3429436027560655
  Basis Set: (AUG-CC-PVTZ AUX)
    Blend: AUG-CC-PVTZ-RI
    Molecular point group: c1

    Geometry (in Angstrom), charge = 0, multiplicity = 1:

       Center              X                  Y                   Z               Mass
    ------------   -----------------  -----------------  -----------------  -----------------
         N           -0.518801833498    -0.921940754472    -0.040842700523    14.003074004430
         C            0.521729466502    -0.110481154472     0.099497399477    12.000000000000
         C            1.715939166502    -0.478550754472    -0.748137700523    12.000000000000
         C            0.459190166502     1.307726245528     0.599919299477    12.000000000000
         C            2.781551166502    -0.969276754472     0.237163299477    12.000000000000
         C           -0.171905833498     2.351316245528    -0.329949700523    12.000000000000
         C           -1.784236833498    -0.620210754472     0.617706299477    12.000000000000
         C           -2.905331833498    -0.688028754472    -0.414494700523    12.000000000000
         H            2.105072166502     0.371077245528    -1.324841700523     1.007825032230
         H            1.462508166502    -1.277335754472    -1.450227700523     1.007825032230
         H           -0.059255833498     1.302199245528     1.563351299477     1.007825032230
         H            1.497107166502     1.588363245528     0.808489299477     1.007825032230
         H            3.047816166502    -0.195348754472     0.963465299477     1.007825032230
         H            2.408331166502    -1.838194754472     0.785797299477     1.007825032230
         H            3.694880166502    -1.261584754472    -0.289215700523     1.007825032230
         H            0.339599166502     2.368944245528    -1.296760700523     1.007825032230
         H           -0.107472833498     3.352946245528     0.105412299477     1.007825032230
         H           -1.225498833498     2.124601245528    -0.512693700523     1.007825032230
         H           -1.942430833498    -1.396127754472     1.376273299477     1.007825032230
         H           -1.810118833498     0.349250245528     1.132687299477     1.007825032230
         H           -3.881215833498    -0.547942754472     0.060364299477     1.007825032230
         H           -2.774658833498     0.090126245528    -1.171766700523     1.007825032230
         H           -2.891992833498    -1.657299754472    -0.917552700523     1.007825032230

  Basis Set: AUG-CC-PVTZ
    Blend: AUG-CC-PVTZ
  Basis Set: (AUG-CC-PVTZ AUX)
    Blend: AUG-CC-PVTZ-JKFIT
	 Reference Energy          =    -328.3429436027560655 [Eh]
	 Singles Energy            =      -0.0000000000000000 [Eh]
	 Same-Spin Energy          =      -0.3513240872132254 [Eh]
	 Opposite-Spin Energy      =      -1.2515864874624487 [Eh]
	 Correlation Energy        =      -1.6029105746756742 [Eh]
	 Total Energy              =    -329.9458541774317268 [Eh]

	 ================> DF-SCS-MP2 Energies <==================
	-----------------------------------------------------------
	 SCS Same-Spin Scale       =       0.3333333333333333 [-]
	 SCS Opposite-Spin Scale   =       1.2000000000000000 [-]
	 SCS Same-Spin Energy      =      -0.1171080290710751 [Eh]
	 SCS Opposite-Spin Energy  =      -1.5019037849549384 [Eh]
	 SCS Correlation Energy    =      -1.6190118140260135 [Eh]
	 SCS Total Energy          =    -329.9619554167820752 [Eh]
	-----------------------------------------------------------

  Dipole Moment: [D]
     X:     0.3365      Y:     1.7627      Z:     0.5497     Total:     1.8768

*** Psi4 exiting successfully. Buy a developer a beer!
