                               Psi4 1.4a3.dev225

  ==> Input File <==

--------------------------------------------------------------------------
#psi4
#
memory 32 gb

molecule  {
0 1
  N       -0.5109430    -0.9518430    -0.0269260
  C        0.4568240    -0.1006160    -0.0211450
  C        1.7237990    -0.5085590    -0.7342300
  C        0.4670880     1.2778150     0.6137790
  C        2.7894950    -0.9990730     0.2510970
  C       -0.1640680     2.3213990    -0.3160610
  C       -1.8197719    -0.6397230     0.6542135
  C       -2.8974700    -0.7179400    -0.4005630
  H        2.1128780     0.3409680    -1.3111240
  H        1.4703470    -1.3074830    -1.4361490
  H       -0.0513130     1.2723030     1.5772340
  H        1.5050160     1.5584520     0.8222760
  H        3.0557420    -0.2250230     0.9772740
  H        2.4163470    -1.8679380     0.7998630
  H        3.7028160    -1.2913930    -0.2752870
  H        0.3476260     2.3392860    -1.2827640
  H       -0.0999350     3.3229720     0.1194750
  H       -1.2175750     2.0944730    -0.4990280
  H       -1.9345660    -1.4259490     1.3902370
  H       -1.8022330     0.3194130     1.1465770
  H       -3.8733550    -0.5777970     0.0742800
  H       -2.7667810     0.0601400    -1.1579070
  H       -2.8841480    -1.6872580    -0.9035300
units angstrom
no_reorient  #important for SAPT in psi4, default
symmetry c1  #important for SAPT in psi4, default
}

set PROPERTIES_ORIGIN ["COM"]
properties('MP2/aug-cc-pvtz', properties = ['dipole'])
--------------------------------------------------------------------------

    Molecular point group: c1
  Charge       = 0
  Multiplicity = 1
  Basis Set: AUG-CC-PVTZ
    Blend: AUG-CC-PVTZ
  Basis Set: (AUG-CC-PVTZ AUX)
    Blend: AUG-CC-PVTZ-JKFIT

    Orbital Energies [Eh]
    ---------------------

    Doubly Occupied:

       1A    -15.538683     2A    -11.269854     3A    -11.240597
       4A    -11.233459     5A    -11.226347     6A    -11.220407
       7A    -11.216454     8A    -11.207001     9A     -1.206903
      10A     -1.063935    11A     -1.026415    12A     -0.996244
      13A     -0.889177    14A     -0.857515    15A     -0.822488
      16A     -0.701823    17A     -0.660819    18A     -0.640947
      19A     -0.600731    20A     -0.591246    21A     -0.589851
      22A     -0.555598    23A     -0.539493    24A     -0.521089
      25A     -0.520468    26A     -0.514802    27A     -0.508433
      28A     -0.488970    29A     -0.480377    30A     -0.472817
      31A     -0.379944    32A     -0.376098

  @DF-RHF Final Energy:  -328.35665957586036

   => Energetics <=

    Nuclear Repulsion Energy =            388.1446828297150091
    One-Electron Energy =               -1212.6847180763757024
    Two-Electron Energy =                 496.1833756708002738
    Total Energy =                       -328.3566595758603626
  Basis Set: (AUG-CC-PVTZ AUX)
    Blend: AUG-CC-PVTZ-RI
    Molecular point group: c1

    Geometry (in Angstrom), charge = 0, multiplicity = 1:

       Center              X                  Y                   Z               Mass
    ------------   -----------------  -----------------  -----------------  -----------------
         N           -0.506493732273    -0.927258263430    -0.028957378040    14.003074004430
         C            0.461273267727    -0.076031263430    -0.023176378040    12.000000000000
         C            1.728248267727    -0.483974263430    -0.736261378040    12.000000000000
         C            0.471537267727     1.302399736570     0.611747621960    12.000000000000
         C            2.793944267727    -0.974488263430     0.249065621960    12.000000000000
         C           -0.159618732273     2.345983736570    -0.318092378040    12.000000000000
         C           -1.815322632273    -0.615138263430     0.652182121960    12.000000000000
         C           -2.893020732273    -0.693355263430    -0.402594378040    12.000000000000
         H            2.117327267727     0.365552736570    -1.313155378040     1.007825032230
         H            1.474796267727    -1.282898263430    -1.438180378040     1.007825032230
         H           -0.046863732273     1.296887736570     1.575202621960     1.007825032230
         H            1.509465267727     1.583036736570     0.820244621960     1.007825032230
         H            3.060191267727    -0.200438263430     0.975242621960     1.007825032230
         H            2.420796267727    -1.843353263430     0.797831621960     1.007825032230
         H            3.707265267727    -1.266808263430    -0.277318378040     1.007825032230
         H            0.352075267727     2.363870736570    -1.284795378040     1.007825032230
         H           -0.095485732273     3.347556736570     0.117443621960     1.007825032230
         H           -1.213125732273     2.119057736570    -0.501059378040     1.007825032230
         H           -1.930116732273    -1.401364263430     1.388205621960     1.007825032230
         H           -1.797783732273     0.343997736570     1.144545621960     1.007825032230
         H           -3.868905732273    -0.553212263430     0.072248621960     1.007825032230
         H           -2.762331732273     0.084724736570    -1.159938378040     1.007825032230
         H           -2.879698732273    -1.662673263430    -0.905561378040     1.007825032230

  Basis Set: AUG-CC-PVTZ
    Blend: AUG-CC-PVTZ
  Basis Set: (AUG-CC-PVTZ AUX)
    Blend: AUG-CC-PVTZ-JKFIT
	 Reference Energy          =    -328.3566595758603626 [Eh]
	 Singles Energy            =      -0.0000000000000000 [Eh]
	 Same-Spin Energy          =      -0.3497810485278363 [Eh]
	 Opposite-Spin Energy      =      -1.2484539663168692 [Eh]
	 Correlation Energy        =      -1.5982350148447055 [Eh]
	 Total Energy              =    -329.9548945907050665 [Eh]

	 ================> DF-SCS-MP2 Energies <==================
	-----------------------------------------------------------
	 SCS Same-Spin Scale       =       0.3333333333333333 [-]
	 SCS Opposite-Spin Scale   =       1.2000000000000000 [-]
	 SCS Same-Spin Energy      =      -0.1165936828426121 [Eh]
	 SCS Opposite-Spin Energy  =      -1.4981447595802431 [Eh]
	 SCS Correlation Energy    =      -1.6147384424228552 [Eh]
	 SCS Total Energy          =    -329.9713980182831961 [Eh]
	-----------------------------------------------------------

  Dipole Moment: [D]
     X:     0.3162      Y:     1.7167      Z:     0.6399     Total:     1.8592

*** Psi4 exiting successfully. Buy a developer a beer!
