                               Psi4 1.3.2 release

  ==> Input File <==

--------------------------------------------------------------------------
#psi4
#
memory 32 gb

molecule  {
0 1
  N       -0.4928734    -0.9070822    -0.0107846
  C        0.4568270    -0.1006020    -0.0211380
  C        1.7238140    -0.5084530    -0.7342290
  C        0.4670650     1.2778240     0.6138280
  C        2.7894260    -0.9991790     0.2510720
  C       -0.1640310     2.3214140    -0.3160410
  C       -1.7763620    -0.6501130     0.6316150
  C       -2.8974570    -0.7179310    -0.4005860
  H        2.1129470     0.3411750    -1.3109330
  H        1.4703830    -1.3072380    -1.4363190
  H       -0.0513810     1.2722970     1.5772600
  H        1.5049820     1.5584610     0.8223980
  H        3.0556910    -0.2252510     0.9773740
  H        2.4162060    -1.8680970     0.7997060
  H        3.7027550    -1.2914870    -0.2753070
  H        0.3474740     2.3390420    -1.2828520
  H       -0.0995980     3.3230440     0.1193210
  H       -1.2176240     2.0946990    -0.4987850
  H       -1.9345560    -1.4260300     1.3901820
  H       -1.8022440     0.3193480     1.1465960
  H       -3.8733410    -0.5778450     0.0742730
  H       -2.7667840     0.0602240    -1.1578580
  H       -2.8841180    -1.6872020    -0.9036440
units angstrom
no_reorient  #important for SAPT in psi4, default
symmetry c1  #important for SAPT in psi4, default
}

set PROPERTIES_ORIGIN ["COM"]
properties('MP2/aug-cc-pvtz', properties = ['dipole'])
--------------------------------------------------------------------------

    Molecular point group: c1
  Charge       = 0
  Multiplicity = 1
  Basis Set: AUG-CC-PVTZ
    Blend: AUG-CC-PVTZ
  Basis Set: (AUG-CC-PVTZ AUX)
    Blend: AUG-CC-PVTZ-JKFIT

    Orbital Energies [Eh]
    ---------------------

    Doubly Occupied:

       1A    -15.531227     2A    -11.264382     3A    -11.243452
       4A    -11.230096     5A    -11.224958     6A    -11.219639
       7A    -11.216503     8A    -11.208594     9A     -1.229002
      10A     -1.064471    11A     -1.025664    12A     -0.997927
      13A     -0.890152    14A     -0.858051    15A     -0.825466
      16A     -0.701640    17A     -0.661754    18A     -0.645642
      19A     -0.599006    20A     -0.593133    21A     -0.589845
      22A     -0.561130    23A     -0.539107    24A     -0.522538
      25A     -0.520403    26A     -0.512652    27A     -0.508811
      28A     -0.487577    29A     -0.482596    30A     -0.474211
      31A     -0.389153    32A     -0.368566

  @DF-RHF Final Energy:  -328.36110837573051

   => Energetics <=

    Nuclear Repulsion Energy =            389.7978691797083002
    One-Electron Energy =               -1215.9432622173760592
    Two-Electron Energy =                 497.7842846619372494
    Total Energy =                       -328.3611083757305096
  Basis Set: (AUG-CC-PVTZ AUX)
    Blend: AUG-CC-PVTZ-RI
    Molecular point group: c1

    Geometry (in Angstrom), charge = 0, multiplicity = 1:

       Center              X                  Y                   Z               Mass
    ------------   -----------------  -----------------  -----------------  -----------------
         N           -0.495262738117    -0.886940926957    -0.012419764103    14.003074004430
         C            0.454437661883    -0.080460726957    -0.022773164103    12.000000000000
         C            1.721424661883    -0.488311726957    -0.735864164103    12.000000000000
         C            0.464675661883     1.297965273043     0.612192835897    12.000000000000
         C            2.787036661883    -0.979037726957     0.249436835897    12.000000000000
         C           -0.166420338117     2.341555273043    -0.317676164103    12.000000000000
         C           -1.778751338117    -0.629971726957     0.629979835897    12.000000000000
         C           -2.899846338117    -0.697789726957    -0.402221164103    12.000000000000
         H            2.110557661883     0.361316273043    -1.312568164103     1.007825032230
         H            1.467993661883    -1.287096726957    -1.437954164103     1.007825032230
         H           -0.053770338117     1.292438273043     1.575624835897     1.007825032230
         H            1.502592661883     1.578602273043     0.820762835897     1.007825032230
         H            3.053301661883    -0.205109726957     0.975738835897     1.007825032230
         H            2.413816661883    -1.847955726957     0.798070835897     1.007825032230
         H            3.700365661883    -1.271345726957    -0.276942164103     1.007825032230
         H            0.345084661883     2.359183273043    -1.284487164103     1.007825032230
         H           -0.101987338117     3.343185273043     0.117685835897     1.007825032230
         H           -1.220013338117     2.114840273043    -0.500420164103     1.007825032230
         H           -1.936945338117    -1.405888726957     1.388546835897     1.007825032230
         H           -1.804633338117     0.339489273043     1.144960835897     1.007825032230
         H           -3.875730338117    -0.557703726957     0.072637835897     1.007825032230
         H           -2.769173338117     0.080365273043    -1.159493164103     1.007825032230
         H           -2.886507338117    -1.667060726957    -0.905279164103     1.007825032230

  Basis Set: AUG-CC-PVTZ
    Blend: AUG-CC-PVTZ
  Basis Set: (AUG-CC-PVTZ AUX)
    Blend: AUG-CC-PVTZ-JKFIT
	 Reference Energy          =    -328.3611083757305096 [Eh]
	 Singles Energy            =      -0.0000000000000000 [Eh]
	 Same-Spin Energy          =      -0.3489182739533666 [Eh]
	 Opposite-Spin Energy      =      -1.2455900609162582 [Eh]
	 Correlation Energy        =      -1.5945083348696247 [Eh]
	 Total Energy              =    -329.9556167106001112 [Eh]

	 ================> DF-SCS-MP2 Energies <==================
	-----------------------------------------------------------
	 SCS Same-Spin Scale       =       0.3333333333333333 [-]
	 SCS Opposite-Spin Scale   =       1.2000000000000000 [-]
	 SCS Same-Spin Energy      =      -0.1163060913177889 [Eh]
	 SCS Opposite-Spin Energy  =      -1.4947080730995099 [Eh]
	 SCS Correlation Energy    =      -1.6110141644172988 [Eh]
	 SCS Total Energy          =    -329.9721225401478364 [Eh]
	-----------------------------------------------------------

  Dipole Moment: [D]
     X:     0.2957      Y:     1.5811      Z:     0.5892     Total:     1.7130

*** Psi4 exiting successfully. Buy a developer a beer!
