                               Psi4 1.3.2 release

  ==> Input File <==

--------------------------------------------------------------------------
#psi4
#
memory 32 gb

molecule  {
0 1
  N       -0.5742410    -1.0837040    -0.0704942
  C        0.4568270    -0.1006020    -0.0211380
  C        1.7238140    -0.5084530    -0.7342290
  C        0.4670650     1.2778240     0.6138280
  C        2.7894260    -0.9991790     0.2510720
  C       -0.1640310     2.3214140    -0.3160410
  C       -1.7763620    -0.6501130     0.6316150
  C       -2.8974570    -0.7179310    -0.4005860
  H        2.1129470     0.3411750    -1.3109330
  H        1.4703830    -1.3072380    -1.4363190
  H       -0.0513810     1.2722970     1.5772600
  H        1.5049820     1.5584610     0.8223980
  H        3.0556910    -0.2252510     0.9773740
  H        2.4162060    -1.8680970     0.7997060
  H        3.7027550    -1.2914870    -0.2753070
  H        0.3474740     2.3390420    -1.2828520
  H       -0.0995980     3.3230440     0.1193210
  H       -1.2176240     2.0946990    -0.4987850
  H       -1.9345560    -1.4260300     1.3901820
  H       -1.8022440     0.3193480     1.1465960
  H       -3.8733410    -0.5778450     0.0742730
  H       -2.7667840     0.0602240    -1.1578580
  H       -2.8841180    -1.6872020    -0.9036440
units angstrom
no_reorient  #important for SAPT in psi4, default
symmetry c1  #important for SAPT in psi4, default
}

set PROPERTIES_ORIGIN ["COM"]
properties('MP2/aug-cc-pvtz', properties = ['dipole'])
--------------------------------------------------------------------------

    Molecular point group: c1
  Charge       = 0
  Multiplicity = 1
  Basis Set: AUG-CC-PVTZ
    Blend: AUG-CC-PVTZ
  Basis Set: (AUG-CC-PVTZ AUX)
    Blend: AUG-CC-PVTZ-JKFIT

    Orbital Energies [Eh]
    ---------------------

    Doubly Occupied:

       1A    -15.558890     2A    -11.295481     3A    -11.244349
       4A    -11.235135     5A    -11.231432     6A    -11.226153
       7A    -11.219757     8A    -11.201428     9A     -1.182623
      10A     -1.073429    11A     -1.030340    12A     -0.976525
      13A     -0.896539    14A     -0.859476    15A     -0.808287
      16A     -0.713746    17A     -0.664529    18A     -0.637000
      19A     -0.599684    20A     -0.593529    21A     -0.583414
      22A     -0.551510    23A     -0.543642    24A     -0.524433
      25A     -0.519249    26A     -0.510429    27A     -0.506558
      28A     -0.487979    29A     -0.483060    30A     -0.454017
      31A     -0.408044    32A     -0.348163

  @DF-RHF Final Energy:  -328.32304418385382

   => Energetics <=

    Nuclear Repulsion Energy =            385.9260085864843290
    One-Electron Energy =               -1208.1604480740368217
    Two-Electron Energy =                 493.9113953036986118
    Total Energy =                       -328.3230441838538241
  Basis Set: (AUG-CC-PVTZ AUX)
    Blend: AUG-CC-PVTZ-RI
    Molecular point group: c1

    Geometry (in Angstrom), charge = 0, multiplicity = 1:

       Center              X                  Y                   Z               Mass
    ------------   -----------------  -----------------  -----------------  -----------------
         N           -0.566557919474    -1.041698880522    -0.064737968901    14.003074004430
         C            0.464510080526    -0.058596880522    -0.015381768901    12.000000000000
         C            1.731497080526    -0.466447880522    -0.728472768901    12.000000000000
         C            0.474748080526     1.319829119478     0.619584231099    12.000000000000
         C            2.797109080526    -0.957173880522     0.256828231099    12.000000000000
         C           -0.156347919474     2.363419119478    -0.310284768901    12.000000000000
         C           -1.768678919474    -0.608107880522     0.637371231099    12.000000000000
         C           -2.889773919474    -0.675925880522    -0.394829768901    12.000000000000
         H            2.120630080526     0.383180119478    -1.305176768901     1.007825032230
         H            1.478066080526    -1.265232880522    -1.430562768901     1.007825032230
         H           -0.043697919474     1.314302119478     1.583016231099     1.007825032230
         H            1.512665080526     1.600466119478     0.828154231099     1.007825032230
         H            3.063374080526    -0.183245880522     0.983130231099     1.007825032230
         H            2.423889080526    -1.826091880522     0.805462231099     1.007825032230
         H            3.710438080526    -1.249481880522    -0.269550768901     1.007825032230
         H            0.355157080526     2.381047119478    -1.277095768901     1.007825032230
         H           -0.091914919474     3.365049119478     0.125077231099     1.007825032230
         H           -1.209940919474     2.136704119478    -0.493028768901     1.007825032230
         H           -1.926872919474    -1.384024880522     1.395938231099     1.007825032230
         H           -1.794560919474     0.361353119478     1.152352231099     1.007825032230
         H           -3.865657919474    -0.535839880522     0.080029231099     1.007825032230
         H           -2.759100919474     0.102229119478    -1.152101768901     1.007825032230
         H           -2.876434919474    -1.645196880522    -0.897887768901     1.007825032230

  Basis Set: AUG-CC-PVTZ
    Blend: AUG-CC-PVTZ
  Basis Set: (AUG-CC-PVTZ AUX)
    Blend: AUG-CC-PVTZ-JKFIT
	 Reference Energy          =    -328.3230441838538241 [Eh]
	 Singles Energy            =      -0.0000000000000000 [Eh]
	 Same-Spin Energy          =      -0.3540690865730458 [Eh]
	 Opposite-Spin Energy      =      -1.2578722867577523 [Eh]
	 Correlation Energy        =      -1.6119413733307981 [Eh]
	 Total Energy              =    -329.9349855571846319 [Eh]

	 ================> DF-SCS-MP2 Energies <==================
	-----------------------------------------------------------
	 SCS Same-Spin Scale       =       0.3333333333333333 [-]
	 SCS Opposite-Spin Scale   =       1.2000000000000000 [-]
	 SCS Same-Spin Energy      =      -0.1180230288576819 [Eh]
	 SCS Opposite-Spin Energy  =      -1.5094467441093027 [Eh]
	 SCS Correlation Energy    =      -1.6274697729669847 [Eh]
	 SCS Total Energy          =    -329.9505139568208278 [Eh]
	-----------------------------------------------------------

  Dipole Moment: [D]
     X:     0.5407      Y:     1.9454      Z:     0.6772     Total:     2.1297

*** Psi4 exiting successfully. Buy a developer a beer!
