                               Psi4 1.3.2 release

  ==> Input File <==

--------------------------------------------------------------------------
#psi4
#
memory 32 gb

molecule  {
0 1
  N       -0.5109270    -0.9518430    -0.0269340
  C        0.6069976     0.0314888    -0.0202386
  C        1.7238140    -0.5084530    -0.7342290
  C        0.4670650     1.2778240     0.6138280
  C        2.7894260    -0.9991790     0.2510720
  C       -0.1640310     2.3214140    -0.3160410
  C       -1.7763620    -0.6501130     0.6316150
  C       -2.8974570    -0.7179310    -0.4005860
  H        2.1129470     0.3411750    -1.3109330
  H        1.4703830    -1.3072380    -1.4363190
  H       -0.0513810     1.2722970     1.5772600
  H        1.5049820     1.5584610     0.8223980
  H        3.0556910    -0.2252510     0.9773740
  H        2.4162060    -1.8680970     0.7997060
  H        3.7027550    -1.2914870    -0.2753070
  H        0.3474740     2.3390420    -1.2828520
  H       -0.0995980     3.3230440     0.1193210
  H       -1.2176240     2.0946990    -0.4987850
  H       -1.9345560    -1.4260300     1.3901820
  H       -1.8022440     0.3193480     1.1465960
  H       -3.8733410    -0.5778450     0.0742730
  H       -2.7667840     0.0602240    -1.1578580
  H       -2.8841180    -1.6872020    -0.9036440
units angstrom
no_reorient  #important for SAPT in psi4, default
symmetry c1  #important for SAPT in psi4, default
}

set PROPERTIES_ORIGIN ["COM"]
properties('MP2/aug-cc-pvtz', properties = ['dipole'])
--------------------------------------------------------------------------

    Molecular point group: c1
  Charge       = 0
  Multiplicity = 1
  Basis Set: AUG-CC-PVTZ
    Blend: AUG-CC-PVTZ
  Basis Set: (AUG-CC-PVTZ AUX)
    Blend: AUG-CC-PVTZ-JKFIT

    Orbital Energies [Eh]
    ---------------------

    Doubly Occupied:

       1A    -15.544821     2A    -11.291193     3A    -11.236986
       4A    -11.233196     5A    -11.232743     6A    -11.227233
       7A    -11.222398     8A    -11.201095     9A     -1.175063
      10A     -1.082590    11A     -1.042062    12A     -0.969483
      13A     -0.907621    14A     -0.872896    15A     -0.803547
      16A     -0.713824    17A     -0.670467    18A     -0.646233
      19A     -0.607392    20A     -0.590662    21A     -0.580655
      22A     -0.561892    23A     -0.544533    24A     -0.526286
      25A     -0.521289    26A     -0.514789    27A     -0.507401
      28A     -0.499774    29A     -0.482390    30A     -0.456567
      31A     -0.380430    32A     -0.324967

  @DF-RHF Final Energy:  -328.29108942969833

   => Energetics <=

    Nuclear Repulsion Energy =            388.1067122769969728
    One-Electron Energy =               -1212.4506443618859066
    Two-Electron Energy =                 496.0528426551906023
    Total Energy =                       -328.2910894296983315
  Basis Set: (AUG-CC-PVTZ AUX)
    Blend: AUG-CC-PVTZ-RI
    Molecular point group: c1

    Geometry (in Angstrom), charge = 0, multiplicity = 1:

       Center              X                  Y                   Z               Mass
    ------------   -----------------  -----------------  -----------------  -----------------
         N           -0.527011839772    -0.940173235065    -0.026665454877    14.003074004430
         C            0.590912760228     0.043158564935    -0.019970054877    12.000000000000
         C            1.707729160228    -0.496783235065    -0.733960454877    12.000000000000
         C            0.450980160228     1.289493764935     0.614096545123    12.000000000000
         C            2.773341160228    -0.987509235065     0.251340545123    12.000000000000
         C           -0.180115839772     2.333083764935    -0.315772454877    12.000000000000
         C           -1.792446839772    -0.638443235065     0.631883545123    12.000000000000
         C           -2.913541839772    -0.706261235065    -0.400317454877    12.000000000000
         H            2.096862160228     0.352844764935    -1.310664454877     1.007825032230
         H            1.454298160228    -1.295568235065    -1.436050454877     1.007825032230
         H           -0.067465839772     1.283966764935     1.577528545123     1.007825032230
         H            1.488897160228     1.570130764935     0.822666545123     1.007825032230
         H            3.039606160228    -0.213581235065     0.977642545123     1.007825032230
         H            2.400121160228    -1.856427235065     0.799974545123     1.007825032230
         H            3.686670160228    -1.279817235065    -0.275038454877     1.007825032230
         H            0.331389160228     2.350711764935    -1.282583454877     1.007825032230
         H           -0.115682839772     3.334713764935     0.119589545123     1.007825032230
         H           -1.233708839772     2.106368764935    -0.498516454877     1.007825032230
         H           -1.950640839772    -1.414360235065     1.390450545123     1.007825032230
         H           -1.818328839772     0.331017764935     1.146864545123     1.007825032230
         H           -3.889425839772    -0.566175235065     0.074541545123     1.007825032230
         H           -2.782868839772     0.071893764935    -1.157589454877     1.007825032230
         H           -2.900202839772    -1.675532235065    -0.903375454877     1.007825032230

  Basis Set: AUG-CC-PVTZ
    Blend: AUG-CC-PVTZ
  Basis Set: (AUG-CC-PVTZ AUX)
    Blend: AUG-CC-PVTZ-JKFIT
	 Reference Energy          =    -328.2910894296983315 [Eh]
	 Singles Energy            =      -0.0000000000000000 [Eh]
	 Same-Spin Energy          =      -0.3579835614900801 [Eh]
	 Opposite-Spin Energy      =      -1.2625486246068514 [Eh]
	 Correlation Energy        =      -1.6205321860969315 [Eh]
	 Total Energy              =    -329.9116216157952408 [Eh]

	 ================> DF-SCS-MP2 Energies <==================
	-----------------------------------------------------------
	 SCS Same-Spin Scale       =       0.3333333333333333 [-]
	 SCS Opposite-Spin Scale   =       1.2000000000000000 [-]
	 SCS Same-Spin Energy      =      -0.1193278538300267 [Eh]
	 SCS Opposite-Spin Energy  =      -1.5150583495282215 [Eh]
	 SCS Correlation Energy    =      -1.6343862033582481 [Eh]
	 SCS Total Energy          =    -329.9254756330565783 [Eh]
	-----------------------------------------------------------

  Dipole Moment: [D]
     X:     0.6164      Y:     1.8816      Z:     0.5811     Total:     2.0635

*** Psi4 exiting successfully. Buy a developer a beer!
