                               Psi4 1.3.2 release

  ==> Input File <==

--------------------------------------------------------------------------
#psi4
#
memory 32 gb

molecule  {
0 1
  N       -0.5109270    -0.9518430    -0.0269340
  C        0.3817417    -0.1666474    -0.0215877
  C        1.7238140    -0.5084530    -0.7342290
  C        0.4670650     1.2778240     0.6138280
  C        2.7894260    -0.9991790     0.2510720
  C       -0.1640310     2.3214140    -0.3160410
  C       -1.7763620    -0.6501130     0.6316150
  C       -2.8974570    -0.7179310    -0.4005860
  H        2.1129470     0.3411750    -1.3109330
  H        1.4703830    -1.3072380    -1.4363190
  H       -0.0513810     1.2722970     1.5772600
  H        1.5049820     1.5584610     0.8223980
  H        3.0556910    -0.2252510     0.9773740
  H        2.4162060    -1.8680970     0.7997060
  H        3.7027550    -1.2914870    -0.2753070
  H        0.3474740     2.3390420    -1.2828520
  H       -0.0995980     3.3230440     0.1193210
  H       -1.2176240     2.0946990    -0.4987850
  H       -1.9345560    -1.4260300     1.3901820
  H       -1.8022440     0.3193480     1.1465960
  H       -3.8733410    -0.5778450     0.0742730
  H       -2.7667840     0.0602240    -1.1578580
  H       -2.8841180    -1.6872020    -0.9036440
units angstrom
no_reorient  #important for SAPT in psi4, default
symmetry c1  #important for SAPT in psi4, default
}

set PROPERTIES_ORIGIN ["COM"]
properties('MP2/aug-cc-pvtz', properties = ['dipole'])
--------------------------------------------------------------------------

    Molecular point group: c1
  Charge       = 0
  Multiplicity = 1
  Basis Set: AUG-CC-PVTZ
    Blend: AUG-CC-PVTZ
  Basis Set: (AUG-CC-PVTZ AUX)
    Blend: AUG-CC-PVTZ-JKFIT

    Orbital Energies [Eh]
    ---------------------

    Doubly Occupied:

       1A    -15.531148     2A    -11.262098     3A    -11.245944
       4A    -11.231997     5A    -11.223696     6A    -11.218172
       7A    -11.214772     8A    -11.209889     9A     -1.253840
      10A     -1.056535    11A     -1.022226    12A     -1.003030
      13A     -0.882965    14A     -0.854669    15A     -0.825999
      16A     -0.701955    17A     -0.655791    18A     -0.646469
      19A     -0.603761    20A     -0.592435    21A     -0.585598
      22A     -0.562789    23A     -0.538311    24A     -0.522282
      25A     -0.520446    26A     -0.512137    27A     -0.508113
      28A     -0.489824    29A     -0.481896    30A     -0.467906
      31A     -0.409591    32A     -0.363174

  @DF-RHF Final Energy:  -328.35056922565514

   => Energetics <=

    Nuclear Repulsion Energy =            389.4161299882276239
    One-Electron Energy =               -1215.1344751061656098
    Two-Electron Energy =                 497.3677758922829071
    Total Energy =                       -328.3505692256551356
  Basis Set: (AUG-CC-PVTZ AUX)
    Blend: AUG-CC-PVTZ-RI
    Molecular point group: c1

    Geometry (in Angstrom), charge = 0, multiplicity = 1:

       Center              X                  Y                   Z               Mass
    ------------   -----------------  -----------------  -----------------  -----------------
         N           -0.503116330054    -0.919154626929    -0.026522340170    14.003074004430
         C            0.389552369946    -0.133959026929    -0.021176040170    12.000000000000
         C            1.731624669946    -0.475764626929    -0.733817340170    12.000000000000
         C            0.474875669946     1.310512373071     0.614239659830    12.000000000000
         C            2.797236669946    -0.966490626929     0.251483659830    12.000000000000
         C           -0.156220330054     2.354102373071    -0.315629340170    12.000000000000
         C           -1.768551330054    -0.617424626929     0.632026659830    12.000000000000
         C           -2.889646330054    -0.685242626929    -0.400174340170    12.000000000000
         H            2.120757669946     0.373863373071    -1.310521340170     1.007825032230
         H            1.478193669946    -1.274549626929    -1.435907340170     1.007825032230
         H           -0.043570330054     1.304985373071     1.577671659830     1.007825032230
         H            1.512792669946     1.591149373071     0.822809659830     1.007825032230
         H            3.063501669946    -0.192562626929     0.977785659830     1.007825032230
         H            2.424016669946    -1.835408626929     0.800117659830     1.007825032230
         H            3.710565669946    -1.258798626929    -0.274895340170     1.007825032230
         H            0.355284669946     2.371730373071    -1.282440340170     1.007825032230
         H           -0.091787330054     3.355732373071     0.119732659830     1.007825032230
         H           -1.209813330054     2.127387373071    -0.498373340170     1.007825032230
         H           -1.926745330054    -1.393341626929     1.390593659830     1.007825032230
         H           -1.794433330054     0.352036373071     1.147007659830     1.007825032230
         H           -3.865530330054    -0.545156626929     0.074684659830     1.007825032230
         H           -2.758973330054     0.092912373071    -1.157446340170     1.007825032230
         H           -2.876307330054    -1.654513626929    -0.903232340170     1.007825032230

  Basis Set: AUG-CC-PVTZ
    Blend: AUG-CC-PVTZ
  Basis Set: (AUG-CC-PVTZ AUX)
    Blend: AUG-CC-PVTZ-JKFIT
	 Reference Energy          =    -328.3505692256551356 [Eh]
	 Singles Energy            =      -0.0000000000000000 [Eh]
	 Same-Spin Energy          =      -0.3476951540651214 [Eh]
	 Opposite-Spin Energy      =      -1.2437354970944421 [Eh]
	 Correlation Energy        =      -1.5914306511595635 [Eh]
	 Total Energy              =    -329.9419998768146911 [Eh]

	 ================> DF-SCS-MP2 Energies <==================
	-----------------------------------------------------------
	 SCS Same-Spin Scale       =       0.3333333333333333 [-]
	 SCS Opposite-Spin Scale   =       1.2000000000000000 [-]
	 SCS Same-Spin Energy      =      -0.1158983846883738 [Eh]
	 SCS Opposite-Spin Energy  =      -1.4924825965133304 [Eh]
	 SCS Correlation Energy    =      -1.6083809812017043 [Eh]
	 SCS Total Energy          =    -329.9589502068568549 [Eh]
	-----------------------------------------------------------

  Dipole Moment: [D]
     X:     0.1157      Y:     1.5114      Z:     0.6351     Total:     1.6435

*** Psi4 exiting successfully. Buy a developer a beer!
