                               Psi4 1.3.2 release

  ==> Input File <==

--------------------------------------------------------------------------
#psi4
#
memory 32 gb

molecule  {
0 1
  N       -0.5109270    -0.9518430    -0.0269340
  C        0.4568270    -0.1006020    -0.0211380
  C        1.8916269    -0.5624730    -0.8286782
  C        0.4670650     1.2778240     0.6138280
  C        2.7894260    -0.9991790     0.2510720
  C       -0.1640310     2.3214140    -0.3160410
  C       -1.7763620    -0.6501130     0.6316150
  C       -2.8974570    -0.7179310    -0.4005860
  H        2.1129470     0.3411750    -1.3109330
  H        1.4703830    -1.3072380    -1.4363190
  H       -0.0513810     1.2722970     1.5772600
  H        1.5049820     1.5584610     0.8223980
  H        3.0556910    -0.2252510     0.9773740
  H        2.4162060    -1.8680970     0.7997060
  H        3.7027550    -1.2914870    -0.2753070
  H        0.3474740     2.3390420    -1.2828520
  H       -0.0995980     3.3230440     0.1193210
  H       -1.2176240     2.0946990    -0.4987850
  H       -1.9345560    -1.4260300     1.3901820
  H       -1.8022440     0.3193480     1.1465960
  H       -3.8733410    -0.5778450     0.0742730
  H       -2.7667840     0.0602240    -1.1578580
  H       -2.8841180    -1.6872020    -0.9036440
units angstrom
no_reorient  #important for SAPT in psi4, default
symmetry c1  #important for SAPT in psi4, default
}

set PROPERTIES_ORIGIN ["COM"]
properties('MP2/aug-cc-pvtz', properties = ['dipole'])
--------------------------------------------------------------------------

    Molecular point group: c1
  Charge       = 0
  Multiplicity = 1
  Basis Set: AUG-CC-PVTZ
    Blend: AUG-CC-PVTZ
  Basis Set: (AUG-CC-PVTZ AUX)
    Blend: AUG-CC-PVTZ-JKFIT

    Orbital Energies [Eh]
    ---------------------

    Doubly Occupied:

       1A    -15.537623     2A    -11.275845     3A    -11.240583
       4A    -11.233922     5A    -11.226447     6A    -11.223993
       7A    -11.214789     8A    -11.206171     9A     -1.208486
      10A     -1.061641    11A     -1.031605    12A     -0.995425
      13A     -0.883302    14A     -0.854027    15A     -0.824094
      16A     -0.700720    17A     -0.659728    18A     -0.638536
      19A     -0.610642    20A     -0.593324    21A     -0.583931
      22A     -0.559454    23A     -0.538478    24A     -0.535877
      25A     -0.522011    26A     -0.516595    27A     -0.506702
      28A     -0.499844    29A     -0.485826    30A     -0.442678
      31A     -0.381074    32A     -0.359306

  @DF-RHF Final Energy:  -328.32967157388072

   => Energetics <=

    Nuclear Repulsion Energy =            386.1737877865937207
    One-Electron Energy =               -1208.7015527478838521
    Two-Electron Energy =                 494.1980933874094148
    Total Energy =                       -328.3296715738807166
  Basis Set: (AUG-CC-PVTZ AUX)
    Blend: AUG-CC-PVTZ-RI
    Molecular point group: c1

    Geometry (in Angstrom), charge = 0, multiplicity = 1:

       Center              X                  Y                   Z               Mass
    ------------   -----------------  -----------------  -----------------  -----------------
         N           -0.528883363453    -0.920430300785    -0.016550721377    14.003074004430
         C            0.438870636547    -0.069189300785    -0.010754721377    12.000000000000
         C            1.873670536547    -0.531060300785    -0.818294921377    12.000000000000
         C            0.449108636547     1.309236699215     0.624211278623    12.000000000000
         C            2.771469636547    -0.967766300785     0.261455278623    12.000000000000
         C           -0.181987363453     2.352826699215    -0.305657721377    12.000000000000
         C           -1.794318363453    -0.618700300785     0.641998278623    12.000000000000
         C           -2.915413363453    -0.686518300785    -0.390202721377    12.000000000000
         H            2.094990636547     0.372587699215    -1.300549721377     1.007825032230
         H            1.452426636547    -1.275825300785    -1.425935721377     1.007825032230
         H           -0.069337363453     1.303709699215     1.587643278623     1.007825032230
         H            1.487025636547     1.589873699215     0.832781278623     1.007825032230
         H            3.037734636547    -0.193838300785     0.987757278623     1.007825032230
         H            2.398249636547    -1.836684300785     0.810089278623     1.007825032230
         H            3.684798636547    -1.260074300785    -0.264923721377     1.007825032230
         H            0.329517636547     2.370454699215    -1.272468721377     1.007825032230
         H           -0.117554363453     3.354456699215     0.129704278623     1.007825032230
         H           -1.235580363453     2.126111699215    -0.488401721377     1.007825032230
         H           -1.952512363453    -1.394617300785     1.400565278623     1.007825032230
         H           -1.820200363453     0.350760699215     1.156979278623     1.007825032230
         H           -3.891297363453    -0.546432300785     0.084656278623     1.007825032230
         H           -2.784740363453     0.091636699215    -1.147474721377     1.007825032230
         H           -2.902074363453    -1.655789300785    -0.893260721377     1.007825032230

  Basis Set: AUG-CC-PVTZ
    Blend: AUG-CC-PVTZ
  Basis Set: (AUG-CC-PVTZ AUX)
    Blend: AUG-CC-PVTZ-JKFIT
	 Reference Energy          =    -328.3296715738807166 [Eh]
	 Singles Energy            =      -0.0000000000000000 [Eh]
	 Same-Spin Energy          =      -0.3504806496856813 [Eh]
	 Opposite-Spin Energy      =      -1.2499068664159951 [Eh]
	 Correlation Energy        =      -1.6003875161016765 [Eh]
	 Total Energy              =    -329.9300590899823646 [Eh]

	 ================> DF-SCS-MP2 Energies <==================
	-----------------------------------------------------------
	 SCS Same-Spin Scale       =       0.3333333333333333 [-]
	 SCS Opposite-Spin Scale   =       1.2000000000000000 [-]
	 SCS Same-Spin Energy      =      -0.1168268832285604 [Eh]
	 SCS Opposite-Spin Energy  =      -1.4998882396991942 [Eh]
	 SCS Correlation Energy    =      -1.6167151229277545 [Eh]
	 SCS Total Energy          =    -329.9463866968084744 [Eh]
	-----------------------------------------------------------

  Dipole Moment: [D]
     X:     0.2904      Y:     1.7313      Z:     0.6683     Total:     1.8783

*** Psi4 exiting successfully. Buy a developer a beer!
