                               Psi4 1.3.2 release

  ==> Input File <==

--------------------------------------------------------------------------
#psi4
#
memory 32 gb

molecule  {
0 1
  N       -0.4981498    -0.9659905    -0.0388758
  C        0.4568270    -0.1006020    -0.0211380
  C        1.7238140    -0.5084530    -0.7342290
  C        0.4670650     1.2778240     0.6138280
  C        2.7894260    -0.9991790     0.2510720
  C       -0.1640310     2.3214140    -0.3160410
  C       -1.7763620    -0.6501130     0.6316150
  C       -2.8974570    -0.7179310    -0.4005860
  H        2.1129470     0.3411750    -1.3109330
  H        1.4703830    -1.3072380    -1.4363190
  H       -0.0513810     1.2722970     1.5772600
  H        1.5049820     1.5584610     0.8223980
  H        3.0556910    -0.2252510     0.9773740
  H        2.4162060    -1.8680970     0.7997060
  H        3.7027550    -1.2914870    -0.2753070
  H        0.3474740     2.3390420    -1.2828520
  H       -0.0995980     3.3230440     0.1193210
  H       -1.2176240     2.0946990    -0.4987850
  H       -1.9345560    -1.4260300     1.3901820
  H       -1.8022440     0.3193480     1.1465960
  H       -3.8733410    -0.5778450     0.0742730
  H       -2.7667840     0.0602240    -1.1578580
  H       -2.8841180    -1.6872020    -0.9036440
units angstrom
no_reorient  #important for SAPT in psi4, default
symmetry c1  #important for SAPT in psi4, default
}

set PROPERTIES_ORIGIN ["COM"]
properties('MP2/aug-cc-pvtz', properties = ['dipole'])
--------------------------------------------------------------------------

    Molecular point group: c1
  Charge       = 0
  Multiplicity = 1
  Basis Set: AUG-CC-PVTZ
    Blend: AUG-CC-PVTZ
  Basis Set: (AUG-CC-PVTZ AUX)
    Blend: AUG-CC-PVTZ-JKFIT

    Orbital Energies [Eh]
    ---------------------

    Doubly Occupied:

       1A    -15.540627     2A    -11.271940     3A    -11.241821
       4A    -11.235032     5A    -11.227123     6A    -11.220455
       7A    -11.216797     8A    -11.206798     9A     -1.213547
      10A     -1.065095    11A     -1.027188    12A     -0.992901
      13A     -0.890776    14A     -0.858451    15A     -0.819976
      16A     -0.704063    17A     -0.661703    18A     -0.642245
      19A     -0.599024    20A     -0.591080    21A     -0.589018
      22A     -0.557178    23A     -0.540479    24A     -0.522689
      25A     -0.519688    26A     -0.511168    27A     -0.508294
      28A     -0.488209    29A     -0.481400    30A     -0.469558
      31A     -0.382308    32A     -0.379391

  @DF-RHF Final Energy:  -328.35817690484896

   => Energetics <=

    Nuclear Repulsion Energy =            388.5263525482698128
    One-Electron Energy =               -1213.4170176098809861
    Two-Electron Energy =                 496.5324881567621560
    Total Energy =                       -328.3581769048489605
  Basis Set: (AUG-CC-PVTZ AUX)
    Blend: AUG-CC-PVTZ-RI
    Molecular point group: c1

    Geometry (in Angstrom), charge = 0, multiplicity = 1:

       Center              X                  Y                   Z               Mass
    ------------   -----------------  -----------------  -----------------  -----------------
         N           -0.499885977526    -0.938557023928    -0.037033580887    14.003074004430
         C            0.455090822474    -0.073168523928    -0.019295780887    12.000000000000
         C            1.722077822474    -0.481019523928    -0.732386780887    12.000000000000
         C            0.465328822474     1.305257476072     0.615670219113    12.000000000000
         C            2.787689822474    -0.971745523928     0.252914219113    12.000000000000
         C           -0.165767177526     2.348847476072    -0.314198780887    12.000000000000
         C           -1.778098177526    -0.622679523928     0.633457219113    12.000000000000
         C           -2.899193177526    -0.690497523928    -0.398743780887    12.000000000000
         H            2.111210822474     0.368608476072    -1.309090780887     1.007825032230
         H            1.468646822474    -1.279804523928    -1.434476780887     1.007825032230
         H           -0.053117177526     1.299730476072     1.579102219113     1.007825032230
         H            1.503245822474     1.585894476072     0.824240219113     1.007825032230
         H            3.053954822474    -0.197817523928     0.979216219113     1.007825032230
         H            2.414469822474    -1.840663523928     0.801548219113     1.007825032230
         H            3.701018822474    -1.264053523928    -0.273464780887     1.007825032230
         H            0.345737822474     2.366475476072    -1.281009780887     1.007825032230
         H           -0.101334177526     3.350477476072     0.121163219113     1.007825032230
         H           -1.219360177526     2.122132476072    -0.496942780887     1.007825032230
         H           -1.936292177526    -1.398596523928     1.392024219113     1.007825032230
         H           -1.803980177526     0.346781476072     1.148438219113     1.007825032230
         H           -3.875077177526    -0.550411523928     0.076115219113     1.007825032230
         H           -2.768520177526     0.087657476072    -1.156015780887     1.007825032230
         H           -2.885854177526    -1.659768523928    -0.901801780887     1.007825032230

  Basis Set: AUG-CC-PVTZ
    Blend: AUG-CC-PVTZ
  Basis Set: (AUG-CC-PVTZ AUX)
    Blend: AUG-CC-PVTZ-JKFIT
	 Reference Energy          =    -328.3581769048489605 [Eh]
	 Singles Energy            =      -0.0000000000000000 [Eh]
	 Same-Spin Energy          =      -0.3498409478328253 [Eh]
	 Opposite-Spin Energy      =      -1.2483559284718382 [Eh]
	 Correlation Energy        =      -1.5981968763046634 [Eh]
	 Total Energy              =    -329.9563737811536157 [Eh]

	 ================> DF-SCS-MP2 Energies <==================
	-----------------------------------------------------------
	 SCS Same-Spin Scale       =       0.3333333333333333 [-]
	 SCS Opposite-Spin Scale   =       1.2000000000000000 [-]
	 SCS Same-Spin Energy      =      -0.1166136492776084 [Eh]
	 SCS Opposite-Spin Energy  =      -1.4980271141662058 [Eh]
	 SCS Correlation Energy    =      -1.6146407634438142 [Eh]
	 SCS Total Energy          =    -329.9728176682927483 [Eh]
	-----------------------------------------------------------

  Dipole Moment: [D]
     X:     0.3620      Y:     1.7463      Z:     0.6370     Total:     1.8938

*** Psi4 exiting successfully. Buy a developer a beer!
