                               Psi4 1.3.2 release

  ==> Input File <==

--------------------------------------------------------------------------
#psi4
#
memory 32 gb

molecule  {
0 1
  N       -0.5109270    -0.9518430    -0.0269340
  C        0.4568270    -0.1006020    -0.0211380
  C        1.6513028    -0.6448922    -0.7675112
  C        0.4670650     1.2778240     0.6138280
  C        2.7894260    -0.9991790     0.2510720
  C       -0.1640310     2.3214140    -0.3160410
  C       -1.7763620    -0.6501130     0.6316150
  C       -2.8974570    -0.7179310    -0.4005860
  H        2.1129470     0.3411750    -1.3109330
  H        1.4703830    -1.3072380    -1.4363190
  H       -0.0513810     1.2722970     1.5772600
  H        1.5049820     1.5584610     0.8223980
  H        3.0556910    -0.2252510     0.9773740
  H        2.4162060    -1.8680970     0.7997060
  H        3.7027550    -1.2914870    -0.2753070
  H        0.3474740     2.3390420    -1.2828520
  H       -0.0995980     3.3230440     0.1193210
  H       -1.2176240     2.0946990    -0.4987850
  H       -1.9345560    -1.4260300     1.3901820
  H       -1.8022440     0.3193480     1.1465960
  H       -3.8733410    -0.5778450     0.0742730
  H       -2.7667840     0.0602240    -1.1578580
  H       -2.8841180    -1.6872020    -0.9036440
units angstrom
no_reorient  #important for SAPT in psi4, default
symmetry c1  #important for SAPT in psi4, default
}

set PROPERTIES_ORIGIN ["COM"]
properties('MP2/aug-cc-pvtz', properties = ['dipole'])
--------------------------------------------------------------------------

    Molecular point group: c1
  Charge       = 0
  Multiplicity = 1
  Basis Set: AUG-CC-PVTZ
    Blend: AUG-CC-PVTZ
  Basis Set: (AUG-CC-PVTZ AUX)
    Blend: AUG-CC-PVTZ-JKFIT

    Orbital Energies [Eh]
    ---------------------

    Doubly Occupied:

       1A    -15.536676     2A    -11.273046     3A    -11.238958
       4A    -11.238136     5A    -11.227130     6A    -11.224557
       7A    -11.219766     8A    -11.206156     9A     -1.217382
      10A     -1.063425    11A     -1.028567    12A     -0.990200
      13A     -0.889719    14A     -0.865115    15A     -0.821663
      16A     -0.712403    17A     -0.669043    18A     -0.639795
      19A     -0.598131    20A     -0.595784    21A     -0.580745
      22A     -0.560836    23A     -0.539793    24A     -0.530950
      25A     -0.520937    26A     -0.514726    27A     -0.508785
      28A     -0.489734    29A     -0.478842    30A     -0.457152
      31A     -0.379608    32A     -0.374457

  @DF-RHF Final Energy:  -328.32866692169580

   => Energetics <=

    Nuclear Repulsion Energy =            388.6208954017578776
    One-Electron Energy =               -1213.5146931970550668
    Two-Electron Energy =                 496.5651308736013334
    Total Energy =                       -328.3286669216957989
  Basis Set: (AUG-CC-PVTZ AUX)
    Blend: AUG-CC-PVTZ-RI
    Molecular point group: c1

    Geometry (in Angstrom), charge = 0, multiplicity = 1:

       Center              X                  Y                   Z               Mass
    ------------   -----------------  -----------------  -----------------  -----------------
         N           -0.503389394740    -0.911687138921    -0.023039415537    14.003074004430
         C            0.464364605260    -0.060446138921    -0.017243415537    12.000000000000
         C            1.658840405260    -0.604736338921    -0.763616615537    12.000000000000
         C            0.474602605260     1.317979861079     0.617722584463    12.000000000000
         C            2.796963605260    -0.959023138921     0.254966584463    12.000000000000
         C           -0.156493394740     2.361569861079    -0.312146415537    12.000000000000
         C           -1.768824394740    -0.609957138921     0.635509584463    12.000000000000
         C           -2.889919394740    -0.677775138921    -0.396691415537    12.000000000000
         H            2.120484605260     0.381330861079    -1.307038415537     1.007825032230
         H            1.477920605260    -1.267082138921    -1.432424415537     1.007825032230
         H           -0.043843394740     1.312452861079     1.581154584463     1.007825032230
         H            1.512519605260     1.598616861079     0.826292584463     1.007825032230
         H            3.063228605260    -0.185095138921     0.981268584463     1.007825032230
         H            2.423743605260    -1.827941138921     0.803600584463     1.007825032230
         H            3.710292605260    -1.251331138921    -0.271412415537     1.007825032230
         H            0.355011605260     2.379197861079    -1.278957415537     1.007825032230
         H           -0.092060394740     3.363199861079     0.123215584463     1.007825032230
         H           -1.210086394740     2.134854861079    -0.494890415537     1.007825032230
         H           -1.927018394740    -1.385874138921     1.394076584463     1.007825032230
         H           -1.794706394740     0.359503861079     1.150490584463     1.007825032230
         H           -3.865803394740    -0.537689138921     0.078167584463     1.007825032230
         H           -2.759246394740     0.100379861079    -1.153963415537     1.007825032230
         H           -2.876580394740    -1.647046138921    -0.899749415537     1.007825032230

  Basis Set: AUG-CC-PVTZ
    Blend: AUG-CC-PVTZ
  Basis Set: (AUG-CC-PVTZ AUX)
    Blend: AUG-CC-PVTZ-JKFIT
	 Reference Energy          =    -328.3286669216957989 [Eh]
	 Singles Energy            =      -0.0000000000000000 [Eh]
	 Same-Spin Energy          =      -0.3500499843721367 [Eh]
	 Opposite-Spin Energy      =      -1.2491446048094088 [Eh]
	 Correlation Energy        =      -1.5991945891815456 [Eh]
	 Total Energy              =    -329.9278615108773351 [Eh]

	 ================> DF-SCS-MP2 Energies <==================
	-----------------------------------------------------------
	 SCS Same-Spin Scale       =       0.3333333333333333 [-]
	 SCS Opposite-Spin Scale   =       1.2000000000000000 [-]
	 SCS Same-Spin Energy      =      -0.1166833281240456 [Eh]
	 SCS Opposite-Spin Energy  =      -1.4989735257712906 [Eh]
	 SCS Correlation Energy    =      -1.6156568538953362 [Eh]
	 SCS Total Energy          =    -329.9443237755911582 [Eh]
	-----------------------------------------------------------

  Dipole Moment: [D]
     X:     0.3886      Y:     1.6725      Z:     0.6634     Total:     1.8407

*** Psi4 exiting successfully. Buy a developer a beer!
