                               Psi4 1.3.2 release

  ==> Input File <==

--------------------------------------------------------------------------
#psi4
#
memory 32 gb

molecule  {
0 1
  N       -0.5109270    -0.9518430    -0.0269340
  C        0.4568270    -0.1006020    -0.0211380
  C        1.7644858    -0.4149166    -0.7076744
  C        0.4670650     1.2778240     0.6138280
  C        2.7894260    -0.9991790     0.2510720
  C       -0.1640310     2.3214140    -0.3160410
  C       -1.7763620    -0.6501130     0.6316150
  C       -2.8974570    -0.7179310    -0.4005860
  H        2.1129470     0.3411750    -1.3109330
  H        1.4703830    -1.3072380    -1.4363190
  H       -0.0513810     1.2722970     1.5772600
  H        1.5049820     1.5584610     0.8223980
  H        3.0556910    -0.2252510     0.9773740
  H        2.4162060    -1.8680970     0.7997060
  H        3.7027550    -1.2914870    -0.2753070
  H        0.3474740     2.3390420    -1.2828520
  H       -0.0995980     3.3230440     0.1193210
  H       -1.2176240     2.0946990    -0.4987850
  H       -1.9345560    -1.4260300     1.3901820
  H       -1.8022440     0.3193480     1.1465960
  H       -3.8733410    -0.5778450     0.0742730
  H       -2.7667840     0.0602240    -1.1578580
  H       -2.8841180    -1.6872020    -0.9036440
units angstrom
no_reorient  #important for SAPT in psi4, default
symmetry c1  #important for SAPT in psi4, default
}

set PROPERTIES_ORIGIN ["COM"]
properties('MP2/aug-cc-pvtz', properties = ['dipole'])
--------------------------------------------------------------------------

    Molecular point group: c1
  Charge       = 0
  Multiplicity = 1
  Basis Set: AUG-CC-PVTZ
    Blend: AUG-CC-PVTZ
  Basis Set: (AUG-CC-PVTZ AUX)
    Blend: AUG-CC-PVTZ-JKFIT

    Orbital Energies [Eh]
    ---------------------

    Doubly Occupied:

       1A    -15.540793     2A    -11.273860     3A    -11.242410
       4A    -11.232060     5A    -11.226600     6A    -11.223248
       7A    -11.218051     8A    -11.207253     9A     -1.215839
      10A     -1.069701    11A     -1.026394    12A     -0.994645
      13A     -0.893870    14A     -0.855954    15A     -0.824488
      16A     -0.706446    17A     -0.659394    18A     -0.647084
      19A     -0.602275    20A     -0.593881    21A     -0.588379
      22A     -0.556430    23A     -0.541225    24A     -0.526562
      25A     -0.521148    26A     -0.519657    27A     -0.509608
      28A     -0.488829    29A     -0.478034    30A     -0.453905
      31A     -0.380068    32A     -0.378732

  @DF-RHF Final Energy:  -328.34610883102857

   => Energetics <=

    Nuclear Repulsion Energy =            388.9369704438817621
    One-Electron Energy =               -1214.1725134127414094
    Two-Electron Energy =                 496.8894341378310173
    Total Energy =                       -328.3461088310285731
  Basis Set: (AUG-CC-PVTZ AUX)
    Blend: AUG-CC-PVTZ-RI
    Molecular point group: c1

    Geometry (in Angstrom), charge = 0, multiplicity = 1:

       Center              X                  Y                   Z               Mass
    ------------   -----------------  -----------------  -----------------  -----------------
         N           -0.515396030199    -0.936083322038    -0.029386999933    14.003074004430
         C            0.452357969801    -0.084842322038    -0.023590999933    12.000000000000
         C            1.760016769801    -0.399156922038    -0.710127399933    12.000000000000
         C            0.462595969801     1.293583677962     0.611375000067    12.000000000000
         C            2.784956969801    -0.983419322038     0.248619000067    12.000000000000
         C           -0.168500030199     2.337173677962    -0.318493999933    12.000000000000
         C           -1.780831030199    -0.634353322038     0.629162000067    12.000000000000
         C           -2.901926030199    -0.702171322038    -0.403038999933    12.000000000000
         H            2.108477969801     0.356934677962    -1.313385999933     1.007825032230
         H            1.465913969801    -1.291478322038    -1.438771999933     1.007825032230
         H           -0.055850030199     1.288056677962     1.574807000067     1.007825032230
         H            1.500512969801     1.574220677962     0.819945000067     1.007825032230
         H            3.051221969801    -0.209491322038     0.974921000067     1.007825032230
         H            2.411736969801    -1.852337322038     0.797253000067     1.007825032230
         H            3.698285969801    -1.275727322038    -0.277759999933     1.007825032230
         H            0.343004969801     2.354801677962    -1.285304999933     1.007825032230
         H           -0.104067030199     3.338803677962     0.116868000067     1.007825032230
         H           -1.222093030199     2.110458677962    -0.501237999933     1.007825032230
         H           -1.939025030199    -1.410270322038     1.387729000067     1.007825032230
         H           -1.806713030199     0.335107677962     1.144143000067     1.007825032230
         H           -3.877810030199    -0.562085322038     0.071820000067     1.007825032230
         H           -2.771253030199     0.075983677962    -1.160310999933     1.007825032230
         H           -2.888587030199    -1.671442322038    -0.906096999933     1.007825032230

  Basis Set: AUG-CC-PVTZ
    Blend: AUG-CC-PVTZ
  Basis Set: (AUG-CC-PVTZ AUX)
    Blend: AUG-CC-PVTZ-JKFIT
	 Reference Energy          =    -328.3461088310285731 [Eh]
	 Singles Energy            =      -0.0000000000000000 [Eh]
	 Same-Spin Energy          =      -0.3503024855353274 [Eh]
	 Opposite-Spin Energy      =      -1.2489508428441409 [Eh]
	 Correlation Energy        =      -1.5992533283794683 [Eh]
	 Total Energy              =    -329.9453621594080346 [Eh]

	 ================> DF-SCS-MP2 Energies <==================
	-----------------------------------------------------------
	 SCS Same-Spin Scale       =       0.3333333333333333 [-]
	 SCS Opposite-Spin Scale   =       1.2000000000000000 [-]
	 SCS Same-Spin Energy      =      -0.1167674951784425 [Eh]
	 SCS Opposite-Spin Energy  =      -1.4987410114129691 [Eh]
	 SCS Correlation Energy    =      -1.6155085065914117 [Eh]
	 SCS Total Energy          =    -329.9616173376199981 [Eh]
	-----------------------------------------------------------

  Dipole Moment: [D]
     X:     0.3695      Y:     1.7240      Z:     0.6340     Total:     1.8737

*** Psi4 exiting successfully. Buy a developer a beer!
