                               Psi4 1.3.2 release

  ==> Input File <==

--------------------------------------------------------------------------
#psi4
#
memory 32 gb

molecule  {
0 1
  N       -0.5109270    -0.9518430    -0.0269340
  C        0.4434927    -0.1186011    -0.0350222
  C        1.7238140    -0.5084530    -0.7342290
  C        0.4670650     1.2778240     0.6138280
  C        2.7894260    -0.9991790     0.2510720
  C       -0.1640310     2.3214140    -0.3160410
  C       -1.7763620    -0.6501130     0.6316150
  C       -2.8974570    -0.7179310    -0.4005860
  H        2.1129470     0.3411750    -1.3109330
  H        1.4703830    -1.3072380    -1.4363190
  H       -0.0513810     1.2722970     1.5772600
  H        1.5049820     1.5584610     0.8223980
  H        3.0556910    -0.2252510     0.9773740
  H        2.4162060    -1.8680970     0.7997060
  H        3.7027550    -1.2914870    -0.2753070
  H        0.3474740     2.3390420    -1.2828520
  H       -0.0995980     3.3230440     0.1193210
  H       -1.2176240     2.0946990    -0.4987850
  H       -1.9345560    -1.4260300     1.3901820
  H       -1.8022440     0.3193480     1.1465960
  H       -3.8733410    -0.5778450     0.0742730
  H       -2.7667840     0.0602240    -1.1578580
  H       -2.8841180    -1.6872020    -0.9036440
units angstrom
no_reorient  #important for SAPT in psi4, default
symmetry c1  #important for SAPT in psi4, default
}

set PROPERTIES_ORIGIN ["COM"]
properties('MP2/aug-cc-pvtz', properties = ['dipole'])
--------------------------------------------------------------------------

    Molecular point group: c1
  Charge       = 0
  Multiplicity = 1
  Basis Set: AUG-CC-PVTZ
    Blend: AUG-CC-PVTZ
  Basis Set: (AUG-CC-PVTZ AUX)
    Blend: AUG-CC-PVTZ-JKFIT

    Orbital Energies [Eh]
    ---------------------

    Doubly Occupied:

       1A    -15.537112     2A    -11.270144     3A    -11.242172
       4A    -11.233533     5A    -11.225451     6A    -11.220731
       7A    -11.217286     8A    -11.207387     9A     -1.222756
      10A     -1.064538    11A     -1.025540    12A     -0.995575
      13A     -0.889837    14A     -0.856722    15A     -0.823431
      16A     -0.703700    17A     -0.661232    18A     -0.643373
      19A     -0.599792    20A     -0.591362    21A     -0.589715
      22A     -0.558977    23A     -0.539208    24A     -0.522212
      25A     -0.519730    26A     -0.512656    27A     -0.508610
      28A     -0.488522    29A     -0.481955    30A     -0.471027
      31A     -0.385208    32A     -0.376025

  @DF-RHF Final Energy:  -328.36029392449484

   => Energetics <=

    Nuclear Repulsion Energy =            388.8961278508819532
    One-Electron Energy =               -1214.1418002034270103
    Two-Electron Energy =                 496.8853784280502168
    Total Energy =                       -328.3602939244948402
  Basis Set: (AUG-CC-PVTZ AUX)
    Blend: AUG-CC-PVTZ-RI
    Molecular point group: c1

    Geometry (in Angstrom), charge = 0, multiplicity = 1:

       Center              X                  Y                   Z               Mass
    ------------   -----------------  -----------------  -----------------  -----------------
         N           -0.509666975878    -0.924251456040    -0.025097186710    14.003074004430
         C            0.444752724122    -0.091009556040    -0.033185386710    12.000000000000
         C            1.725074024122    -0.480861456040    -0.732392186710    12.000000000000
         C            0.468325024122     1.305415543960     0.615664813290    12.000000000000
         C            2.790686024122    -0.971587456040     0.252908813290    12.000000000000
         C           -0.162770975878     2.349005543960    -0.314204186710    12.000000000000
         C           -1.775101975878    -0.622521456040     0.633451813290    12.000000000000
         C           -2.896196975878    -0.690339456040    -0.398749186710    12.000000000000
         H            2.114207024122     0.368766543960    -1.309096186710     1.007825032230
         H            1.471643024122    -1.279646456040    -1.434482186710     1.007825032230
         H           -0.050120975878     1.299888543960     1.579096813290     1.007825032230
         H            1.506242024122     1.586052543960     0.824234813290     1.007825032230
         H            3.056951024122    -0.197659456040     0.979210813290     1.007825032230
         H            2.417466024122    -1.840505456040     0.801542813290     1.007825032230
         H            3.704015024122    -1.263895456040    -0.273470186710     1.007825032230
         H            0.348734024122     2.366633543960    -1.281015186710     1.007825032230
         H           -0.098337975878     3.350635543960     0.121157813290     1.007825032230
         H           -1.216363975878     2.122290543960    -0.496948186710     1.007825032230
         H           -1.933295975878    -1.398438456040     1.392018813290     1.007825032230
         H           -1.800983975878     0.346939543960     1.148432813290     1.007825032230
         H           -3.872080975878    -0.550253456040     0.076109813290     1.007825032230
         H           -2.765523975878     0.087815543960    -1.156021186710     1.007825032230
         H           -2.882857975878    -1.659610456040    -0.901807186710     1.007825032230

  Basis Set: AUG-CC-PVTZ
    Blend: AUG-CC-PVTZ
  Basis Set: (AUG-CC-PVTZ AUX)
    Blend: AUG-CC-PVTZ-JKFIT
	 Reference Energy          =    -328.3602939244948402 [Eh]
	 Singles Energy            =      -0.0000000000000000 [Eh]
	 Same-Spin Energy          =      -0.3492667586290453 [Eh]
	 Opposite-Spin Energy      =      -1.2468540330264002 [Eh]
	 Correlation Energy        =      -1.5961207916554454 [Eh]
	 Total Energy              =    -329.9564147161502774 [Eh]

	 ================> DF-SCS-MP2 Energies <==================
	-----------------------------------------------------------
	 SCS Same-Spin Scale       =       0.3333333333333333 [-]
	 SCS Opposite-Spin Scale   =       1.2000000000000000 [-]
	 SCS Same-Spin Energy      =      -0.1164222528763484 [Eh]
	 SCS Opposite-Spin Energy  =      -1.4962248396316802 [Eh]
	 SCS Correlation Energy    =      -1.6126470925080285 [Eh]
	 SCS Total Energy          =    -329.9729410170028814 [Eh]
	-----------------------------------------------------------

  Dipole Moment: [D]
     X:     0.3595      Y:     1.6406      Z:     0.6112     Total:     1.7872

*** Psi4 exiting successfully. Buy a developer a beer!
