                               Psi4 1.3.2 release

  ==> Input File <==

--------------------------------------------------------------------------
#psi4
#
memory 32 gb

molecule  {
0 1
  N       -0.5109270    -0.9518430    -0.0269340
  C        0.4058455    -0.1732886    -0.0779354
  C        1.7238140    -0.5084530    -0.7342290
  C        0.4670650     1.2778240     0.6138280
  C        2.7894260    -0.9991790     0.2510720
  C       -0.1640310     2.3214140    -0.3160410
  C       -1.7763620    -0.6501130     0.6316150
  C       -2.8974570    -0.7179310    -0.4005860
  H        2.1129470     0.3411750    -1.3109330
  H        1.4703830    -1.3072380    -1.4363190
  H       -0.0513810     1.2722970     1.5772600
  H        1.5049820     1.5584610     0.8223980
  H        3.0556910    -0.2252510     0.9773740
  H        2.4162060    -1.8680970     0.7997060
  H        3.7027550    -1.2914870    -0.2753070
  H        0.3474740     2.3390420    -1.2828520
  H       -0.0995980     3.3230440     0.1193210
  H       -1.2176240     2.0946990    -0.4987850
  H       -1.9345560    -1.4260300     1.3901820
  H       -1.8022440     0.3193480     1.1465960
  H       -3.8733410    -0.5778450     0.0742730
  H       -2.7667840     0.0602240    -1.1578580
  H       -2.8841180    -1.6872020    -0.9036440
units angstrom
no_reorient  #important for SAPT in psi4, default
symmetry c1  #important for SAPT in psi4, default
}

set PROPERTIES_ORIGIN ["COM"]
properties('MP2/aug-cc-pvtz', properties = ['dipole'])
--------------------------------------------------------------------------

    Molecular point group: c1
  Charge       = 0
  Multiplicity = 1
  Basis Set: AUG-CC-PVTZ
    Blend: AUG-CC-PVTZ
  Basis Set: (AUG-CC-PVTZ AUX)
    Blend: AUG-CC-PVTZ-JKFIT

    Orbital Energies [Eh]
    ---------------------

    Doubly Occupied:

       1A    -15.531864     2A    -11.264060     3A    -11.246452
       4A    -11.230620     5A    -11.221692     6A    -11.219379
       7A    -11.217485     8A    -11.209694     9A     -1.245703
      10A     -1.059443    11A     -1.021169    12A     -1.003319
      13A     -0.886504    14A     -0.851179    15A     -0.829372
      16A     -0.701449    17A     -0.656851    18A     -0.645513
      19A     -0.603132    20A     -0.591747    21A     -0.586780
      22A     -0.562853    23A     -0.536724    24A     -0.521599
      25A     -0.520797    26A     -0.514464    27A     -0.507944
      28A     -0.489421    29A     -0.482778    30A     -0.469628
      31A     -0.404722    32A     -0.362193

  @DF-RHF Final Energy:  -328.35233671391597

   => Energetics <=

    Nuclear Repulsion Energy =            389.2254483706535666
    One-Electron Energy =               -1214.7625092382902494
    Two-Electron Energy =                 497.1847241537207083
    Total Energy =                       -328.3523367139159745
  Basis Set: (AUG-CC-PVTZ AUX)
    Blend: AUG-CC-PVTZ-RI
    Molecular point group: c1

    Geometry (in Angstrom), charge = 0, multiplicity = 1:

       Center              X                  Y                   Z               Mass
    ------------   -----------------  -----------------  -----------------  -----------------
         N           -0.505673300092    -0.918450117706    -0.020544885138    14.003074004430
         C            0.411099199908    -0.139895717706    -0.071546285138    12.000000000000
         C            1.729067699908    -0.475060117706    -0.727839885138    12.000000000000
         C            0.472318699908     1.311216882294     0.620217114862    12.000000000000
         C            2.794679699908    -0.965786117706     0.257461114862    12.000000000000
         C           -0.158777300092     2.354806882294    -0.309651885138    12.000000000000
         C           -1.771108300092    -0.616720117706     0.638004114862    12.000000000000
         C           -2.892203300092    -0.684538117706    -0.394196885138    12.000000000000
         H            2.118200699908     0.374567882294    -1.304543885138     1.007825032230
         H            1.475636699908    -1.273845117706    -1.429929885138     1.007825032230
         H           -0.046127300092     1.305689882294     1.583649114862     1.007825032230
         H            1.510235699908     1.591853882294     0.828787114862     1.007825032230
         H            3.060944699908    -0.191858117706     0.983763114862     1.007825032230
         H            2.421459699908    -1.834704117706     0.806095114862     1.007825032230
         H            3.708008699908    -1.258094117706    -0.268917885138     1.007825032230
         H            0.352727699908     2.372434882294    -1.276462885138     1.007825032230
         H           -0.094344300092     3.356436882294     0.125710114862     1.007825032230
         H           -1.212370300092     2.128091882294    -0.492395885138     1.007825032230
         H           -1.929302300092    -1.392637117706     1.396571114862     1.007825032230
         H           -1.796990300092     0.352740882294     1.152985114862     1.007825032230
         H           -3.868087300092    -0.544452117706     0.080662114862     1.007825032230
         H           -2.761530300092     0.093616882294    -1.151468885138     1.007825032230
         H           -2.878864300092    -1.653809117706    -0.897254885138     1.007825032230

  Basis Set: AUG-CC-PVTZ
    Blend: AUG-CC-PVTZ
  Basis Set: (AUG-CC-PVTZ AUX)
    Blend: AUG-CC-PVTZ-JKFIT
	 Reference Energy          =    -328.3523367139159745 [Eh]
	 Singles Energy            =      -0.0000000000000000 [Eh]
	 Same-Spin Energy          =      -0.3480491182692178 [Eh]
	 Opposite-Spin Energy      =      -1.2443049782288789 [Eh]
	 Correlation Energy        =      -1.5923540964980967 [Eh]
	 Total Energy              =    -329.9446908104140448 [Eh]

	 ================> DF-SCS-MP2 Energies <==================
	-----------------------------------------------------------
	 SCS Same-Spin Scale       =       0.3333333333333333 [-]
	 SCS Opposite-Spin Scale   =       1.2000000000000000 [-]
	 SCS Same-Spin Energy      =      -0.1160163727564059 [Eh]
	 SCS Opposite-Spin Energy  =      -1.4931659738746546 [Eh]
	 SCS Correlation Energy    =      -1.6091823466310604 [Eh]
	 SCS Total Energy          =    -329.9615190605470616 [Eh]
	-----------------------------------------------------------

  Dipole Moment: [D]
     X:     0.2444      Y:     1.4106      Z:     0.5888     Total:     1.5480

*** Psi4 exiting successfully. Buy a developer a beer!
