                               Psi4 1.4a3.dev225

  ==> Input File <==

--------------------------------------------------------------------------
#psi4
#
memory 32 gb

molecule  {
0 1
  N       -0.5109430    -0.9518430    -0.0269260
  C        0.4568240    -0.1006160    -0.0211450
  C        1.6818465    -0.4950511    -0.7106181
  C        0.4670880     1.2778150     0.6137790
  C        2.7894950    -0.9990730     0.2510970
  C       -0.1640680     2.3213990    -0.3160610
  C       -1.7763790    -0.6500710     0.6316310
  C       -2.8974700    -0.7179400    -0.4005630
  H        2.1128780     0.3409680    -1.3111240
  H        1.4703470    -1.3074830    -1.4361490
  H       -0.0513130     1.2723030     1.5772340
  H        1.5050160     1.5584520     0.8222760
  H        3.0557420    -0.2250230     0.9772740
  H        2.4163470    -1.8679380     0.7998630
  H        3.7028160    -1.2913930    -0.2752870
  H        0.3476260     2.3392860    -1.2827640
  H       -0.0999350     3.3229720     0.1194750
  H       -1.2175750     2.0944730    -0.4990280
  H       -1.9345660    -1.4259490     1.3902370
  H       -1.8022330     0.3194130     1.1465770
  H       -3.8733550    -0.5777970     0.0742800
  H       -2.7667810     0.0601400    -1.1579070
  H       -2.8841480    -1.6872580    -0.9035300
units angstrom
no_reorient  #important for SAPT in psi4, default
symmetry c1  #important for SAPT in psi4, default
}

set PROPERTIES_ORIGIN ["COM"]
properties('MP2/aug-cc-pvtz', properties = ['dipole'])
--------------------------------------------------------------------------

    Molecular point group: c1
  Charge       = 0
  Multiplicity = 1
  Basis Set: AUG-CC-PVTZ
    Blend: AUG-CC-PVTZ
  Basis Set: (AUG-CC-PVTZ AUX)
    Blend: AUG-CC-PVTZ-JKFIT

    Orbital Energies [Eh]
    ---------------------

    Doubly Occupied:

       1A    -15.539005     2A    -11.270170     3A    -11.240832
       4A    -11.234025     5A    -11.226601     6A    -11.222299
       7A    -11.218946     8A    -11.206744     9A     -1.218372
      10A     -1.068914    11A     -1.026471    12A     -0.991657
      13A     -0.894815    14A     -0.859536    15A     -0.820635
      16A     -0.705608    17A     -0.663691    18A     -0.644605
      19A     -0.598228    20A     -0.593158    21A     -0.587408
      22A     -0.559760    23A     -0.540866    24A     -0.522971
      25A     -0.520897    26A     -0.510415    27A     -0.504553
      28A     -0.489028    29A     -0.475792    30A     -0.475367
      31A     -0.382505    32A     -0.376696

  @DF-RHF Final Energy:  -328.35602942540680

   => Energetics <=

    Nuclear Repulsion Energy =            389.4953551331061590
    One-Electron Energy =               -1215.3216280705603367
    Two-Electron Energy =                 497.4702435120473751
    Total Energy =                       -328.3560294254068026
  Basis Set: (AUG-CC-PVTZ AUX)
    Blend: AUG-CC-PVTZ-RI
    Molecular point group: c1

    Geometry (in Angstrom), charge = 0, multiplicity = 1:

       Center              X                  Y                   Z               Mass
    ------------   -----------------  -----------------  -----------------  -----------------
         N           -0.506646532231    -0.927593470726    -0.029066578455    14.003074004430
         C            0.461120467769    -0.076366470726    -0.023285578455    12.000000000000
         C            1.686142967769    -0.470801570726    -0.712758678455    12.000000000000
         C            0.471384467769     1.302064529274     0.611638421545    12.000000000000
         C            2.793791467769    -0.974823470726     0.248956421545    12.000000000000
         C           -0.159771532231     2.345648529274    -0.318201578455    12.000000000000
         C           -1.772082532231    -0.625821470726     0.629490421545    12.000000000000
         C           -2.893173532231    -0.693690470726    -0.402703578455    12.000000000000
         H            2.117174467769     0.365217529274    -1.313264578455     1.007825032230
         H            1.474643467769    -1.283233470726    -1.438289578455     1.007825032230
         H           -0.047016532231     1.296552529274     1.575093421545     1.007825032230
         H            1.509312467769     1.582701529274     0.820135421545     1.007825032230
         H            3.060038467769    -0.200773470726     0.975133421545     1.007825032230
         H            2.420643467769    -1.843688470726     0.797722421545     1.007825032230
         H            3.707112467769    -1.267143470726    -0.277427578455     1.007825032230
         H            0.351922467769     2.363535529274    -1.284904578455     1.007825032230
         H           -0.095638532231     3.347221529274     0.117334421545     1.007825032230
         H           -1.213278532231     2.118722529274    -0.501168578455     1.007825032230
         H           -1.930269532231    -1.401699470726     1.388096421545     1.007825032230
         H           -1.797936532231     0.343662529274     1.144436421545     1.007825032230
         H           -3.869058532231    -0.553547470726     0.072139421545     1.007825032230
         H           -2.762484532231     0.084389529274    -1.160047578455     1.007825032230
         H           -2.879851532231    -1.663008470726    -0.905670578455     1.007825032230

  Basis Set: AUG-CC-PVTZ
    Blend: AUG-CC-PVTZ
  Basis Set: (AUG-CC-PVTZ AUX)
    Blend: AUG-CC-PVTZ-JKFIT
	 Reference Energy          =    -328.3560294254068026 [Eh]
	 Singles Energy            =      -0.0000000000000000 [Eh]
	 Same-Spin Energy          =      -0.3502536373794473 [Eh]
	 Opposite-Spin Energy      =      -1.2484914403128082 [Eh]
	 Correlation Energy        =      -1.5987450776922556 [Eh]
	 Total Energy              =    -329.9547745030990313 [Eh]

	 ================> DF-SCS-MP2 Energies <==================
	-----------------------------------------------------------
	 SCS Same-Spin Scale       =       0.3333333333333333 [-]
	 SCS Opposite-Spin Scale   =       1.2000000000000000 [-]
	 SCS Same-Spin Energy      =      -0.1167512124598158 [Eh]
	 SCS Opposite-Spin Energy  =      -1.4981897283753698 [Eh]
	 SCS Correlation Energy    =      -1.6149409408351856 [Eh]
	 SCS Total Energy          =    -329.9709703662419997 [Eh]
	-----------------------------------------------------------

  Dipole Moment: [D]
     X:     0.4179      Y:     1.6927      Z:     0.6080     Total:     1.8465

*** Psi4 exiting successfully. Buy a developer a beer!
