                               Psi4 1.3.2 release

  ==> Input File <==

--------------------------------------------------------------------------
#psi4
#
memory 32 gb

molecule  {
0 1
  N       -0.4446462    -0.9322654     0.1091434
  C        0.4568270    -0.1006020    -0.0211380
  C        1.7238140    -0.5084530    -0.7342290
  C        0.4670650     1.2778240     0.6138280
  C        2.7894260    -0.9991790     0.2510720
  C       -0.1640310     2.3214140    -0.3160410
  C       -1.7763620    -0.6501130     0.6316150
  C       -2.8974570    -0.7179310    -0.4005860
  H        2.1129470     0.3411750    -1.3109330
  H        1.4703830    -1.3072380    -1.4363190
  H       -0.0513810     1.2722970     1.5772600
  H        1.5049820     1.5584610     0.8223980
  H        3.0556910    -0.2252510     0.9773740
  H        2.4162060    -1.8680970     0.7997060
  H        3.7027550    -1.2914870    -0.2753070
  H        0.3474740     2.3390420    -1.2828520
  H       -0.0995980     3.3230440     0.1193210
  H       -1.2176240     2.0946990    -0.4987850
  H       -1.9345560    -1.4260300     1.3901820
  H       -1.8022440     0.3193480     1.1465960
  H       -3.8733410    -0.5778450     0.0742730
  H       -2.7667840     0.0602240    -1.1578580
  H       -2.8841180    -1.6872020    -0.9036440
units angstrom
no_reorient  #important for SAPT in psi4, default
symmetry c1  #important for SAPT in psi4, default
}

set PROPERTIES_ORIGIN ["COM"]
properties('MP2/aug-cc-pvtz', properties = ['dipole'])
--------------------------------------------------------------------------

    Molecular point group: c1
  Charge       = 0
  Multiplicity = 1
  Basis Set: AUG-CC-PVTZ
    Blend: AUG-CC-PVTZ
  Basis Set: (AUG-CC-PVTZ AUX)
    Blend: AUG-CC-PVTZ-JKFIT

    Orbital Energies [Eh]
    ---------------------

    Doubly Occupied:

       1A    -15.527788     2A    -11.262367     3A    -11.244243
       4A    -11.228378     5A    -11.223949     6A    -11.219520
       7A    -11.215806     8A    -11.212550     9A     -1.232556
      10A     -1.063301    11A     -1.025163    12A     -0.999837
      13A     -0.891374    14A     -0.857599    15A     -0.829121
      16A     -0.697981    17A     -0.661246    18A     -0.644906
      19A     -0.598809    20A     -0.591503    21A     -0.589797
      22A     -0.563458    23A     -0.540733    24A     -0.525048
      25A     -0.521204    26A     -0.514154    27A     -0.508125
      28A     -0.487238    29A     -0.483555    30A     -0.474839
      31A     -0.394721    32A     -0.359192

  @DF-RHF Final Energy:  -328.35653575829559

   => Energetics <=

    Nuclear Repulsion Energy =            389.8449564052796745
    One-Electron Energy =               -1216.0228616350329958
    Two-Electron Energy =                 497.8213694714577855
    Total Energy =                       -328.3565357582955926
  Basis Set: (AUG-CC-PVTZ AUX)
    Blend: AUG-CC-PVTZ-RI
    Molecular point group: c1

    Geometry (in Angstrom), charge = 0, multiplicity = 1:

       Center              X                  Y                   Z               Mass
    ------------   -----------------  -----------------  -----------------  -----------------
         N           -0.453005537827    -0.909006722324     0.092662461620    14.003074004430
         C            0.448467662173    -0.077343322324    -0.037618938380    12.000000000000
         C            1.715454662173    -0.485194322324    -0.750709938380    12.000000000000
         C            0.458705662173     1.301082677676     0.597347061620    12.000000000000
         C            2.781066662173    -0.975920322324     0.234591061620    12.000000000000
         C           -0.172390337827     2.344672677676    -0.332521938380    12.000000000000
         C           -1.784721337827    -0.626854322324     0.615134061620    12.000000000000
         C           -2.905816337827    -0.694672322324    -0.417066938380    12.000000000000
         H            2.104587662173     0.364433677676    -1.327413938380     1.007825032230
         H            1.462023662173    -1.283979322324    -1.452799938380     1.007825032230
         H           -0.059740337827     1.295555677676     1.560779061620     1.007825032230
         H            1.496622662173     1.581719677676     0.805917061620     1.007825032230
         H            3.047331662173    -0.201992322324     0.960893061620     1.007825032230
         H            2.407846662173    -1.844838322324     0.783225061620     1.007825032230
         H            3.694395662173    -1.268228322324    -0.291787938380     1.007825032230
         H            0.339114662173     2.362300677676    -1.299332938380     1.007825032230
         H           -0.107957337827     3.346302677676     0.102840061620     1.007825032230
         H           -1.225983337827     2.117957677676    -0.515265938380     1.007825032230
         H           -1.942915337827    -1.402771322324     1.373701061620     1.007825032230
         H           -1.810603337827     0.342606677676     1.130115061620     1.007825032230
         H           -3.881700337827    -0.554586322324     0.057792061620     1.007825032230
         H           -2.775143337827     0.083482677676    -1.174338938380     1.007825032230
         H           -2.892477337827    -1.663943322324    -0.920124938380     1.007825032230

  Basis Set: AUG-CC-PVTZ
    Blend: AUG-CC-PVTZ
  Basis Set: (AUG-CC-PVTZ AUX)
    Blend: AUG-CC-PVTZ-JKFIT
	 Reference Energy          =    -328.3565357582955926 [Eh]
	 Singles Energy            =      -0.0000000000000000 [Eh]
	 Same-Spin Energy          =      -0.3487147606122245 [Eh]
	 Opposite-Spin Energy      =      -1.2451163434611527 [Eh]
	 Correlation Energy        =      -1.5938311040733772 [Eh]
	 Total Energy              =    -329.9503668623689805 [Eh]

	 ================> DF-SCS-MP2 Energies <==================
	-----------------------------------------------------------
	 SCS Same-Spin Scale       =       0.3333333333333333 [-]
	 SCS Opposite-Spin Scale   =       1.2000000000000000 [-]
	 SCS Same-Spin Energy      =      -0.1162382535374082 [Eh]
	 SCS Opposite-Spin Energy  =      -1.4941396121533832 [Eh]
	 SCS Correlation Energy    =      -1.6103778656907914 [Eh]
	 SCS Total Energy          =    -329.9669136239863860 [Eh]
	-----------------------------------------------------------

  Dipole Moment: [D]
     X:     0.1705      Y:     1.5935      Z:     0.3784     Total:     1.6467

*** Psi4 exiting successfully. Buy a developer a beer!
