                               Psi4 1.3.2 release

  ==> Input File <==

--------------------------------------------------------------------------
#psi4
#
memory 32 gb

molecule  {
0 1
  N       -0.5109270    -0.9518430    -0.0269340
  C        0.4795801    -0.1133865     0.0246528
  C        1.7238140    -0.5084530    -0.7342290
  C        0.4670650     1.2778240     0.6138280
  C        2.7894260    -0.9991790     0.2510720
  C       -0.1640310     2.3214140    -0.3160410
  C       -1.7763620    -0.6501130     0.6316150
  C       -2.8974570    -0.7179310    -0.4005860
  H        2.1129470     0.3411750    -1.3109330
  H        1.4703830    -1.3072380    -1.4363190
  H       -0.0513810     1.2722970     1.5772600
  H        1.5049820     1.5584610     0.8223980
  H        3.0556910    -0.2252510     0.9773740
  H        2.4162060    -1.8680970     0.7997060
  H        3.7027550    -1.2914870    -0.2753070
  H        0.3474740     2.3390420    -1.2828520
  H       -0.0995980     3.3230440     0.1193210
  H       -1.2176240     2.0946990    -0.4987850
  H       -1.9345560    -1.4260300     1.3901820
  H       -1.8022440     0.3193480     1.1465960
  H       -3.8733410    -0.5778450     0.0742730
  H       -2.7667840     0.0602240    -1.1578580
  H       -2.8841180    -1.6872020    -0.9036440
units angstrom
no_reorient  #important for SAPT in psi4, default
symmetry c1  #important for SAPT in psi4, default
}

set PROPERTIES_ORIGIN ["COM"]
properties('MP2/aug-cc-pvtz', properties = ['dipole'])
--------------------------------------------------------------------------

    Molecular point group: c1
  Charge       = 0
  Multiplicity = 1
  Basis Set: AUG-CC-PVTZ
    Blend: AUG-CC-PVTZ
  Basis Set: (AUG-CC-PVTZ AUX)
    Blend: AUG-CC-PVTZ-JKFIT

    Orbital Energies [Eh]
    ---------------------

    Doubly Occupied:

       1A    -15.539900     2A    -11.273382     3A    -11.240436
       4A    -11.234315     5A    -11.227665     6A    -11.221577
       7A    -11.216630     8A    -11.206487     9A     -1.212879
      10A     -1.067334    11A     -1.027270    12A     -0.991834
      13A     -0.892322    14A     -0.858861    15A     -0.819906
      16A     -0.704984    17A     -0.662637    18A     -0.642554
      19A     -0.598663    20A     -0.592532    21A     -0.590113
      22A     -0.557645    23A     -0.540990    24A     -0.522145
      25A     -0.519889    26A     -0.510920    27A     -0.509076
      28A     -0.487865    29A     -0.482477    30A     -0.470155
      31A     -0.380842    32A     -0.375725

  @DF-RHF Final Energy:  -328.35676561398111

   => Energetics <=

    Nuclear Repulsion Energy =            388.6792332848849583
    One-Electron Energy =               -1213.7119783630341772
    Two-Electron Energy =                 496.6759794641681083
    Total Energy =                       -328.3567656139811106
  Basis Set: (AUG-CC-PVTZ AUX)
    Blend: AUG-CC-PVTZ-RI
    Molecular point group: c1

    Geometry (in Angstrom), charge = 0, multiplicity = 1:

       Center              X                  Y                   Z               Mass
    ------------   -----------------  -----------------  -----------------  -----------------
         N           -0.513495185560    -0.924804629231    -0.031427607100    14.003074004430
         C            0.477011914440    -0.086348129231     0.020159192900    12.000000000000
         C            1.721245814440    -0.481414629231    -0.738722607100    12.000000000000
         C            0.464496814440     1.304862370769     0.609334392900    12.000000000000
         C            2.786857814440    -0.972140629231     0.246578392900    12.000000000000
         C           -0.166599185560     2.348452370769    -0.320534607100    12.000000000000
         C           -1.778930185560    -0.623074629231     0.627121392900    12.000000000000
         C           -2.900025185560    -0.690892629231    -0.405079607100    12.000000000000
         H            2.110378814440     0.368213370769    -1.315426607100     1.007825032230
         H            1.467814814440    -1.280199629231    -1.440812607100     1.007825032230
         H           -0.053949185560     1.299335370769     1.572766392900     1.007825032230
         H            1.502413814440     1.585499370769     0.817904392900     1.007825032230
         H            3.053122814440    -0.198212629231     0.972880392900     1.007825032230
         H            2.413637814440    -1.841058629231     0.795212392900     1.007825032230
         H            3.700186814440    -1.264448629231    -0.279800607100     1.007825032230
         H            0.344905814440     2.366080370769    -1.287345607100     1.007825032230
         H           -0.102166185560     3.350082370769     0.114827392900     1.007825032230
         H           -1.220192185560     2.121737370769    -0.503278607100     1.007825032230
         H           -1.937124185560    -1.398991629231     1.385688392900     1.007825032230
         H           -1.804812185560     0.346386370769     1.142102392900     1.007825032230
         H           -3.875909185560    -0.550806629231     0.069779392900     1.007825032230
         H           -2.769352185560     0.087262370769    -1.162351607100     1.007825032230
         H           -2.886686185560    -1.660163629231    -0.908137607100     1.007825032230

  Basis Set: AUG-CC-PVTZ
    Blend: AUG-CC-PVTZ
  Basis Set: (AUG-CC-PVTZ AUX)
    Blend: AUG-CC-PVTZ-JKFIT
	 Reference Energy          =    -328.3567656139811106 [Eh]
	 Singles Energy            =      -0.0000000000000000 [Eh]
	 Same-Spin Energy          =      -0.3501604506358261 [Eh]
	 Opposite-Spin Energy      =      -1.2487143244081160 [Eh]
	 Correlation Energy        =      -1.5988747750439423 [Eh]
	 Total Energy              =    -329.9556403890250635 [Eh]

	 ================> DF-SCS-MP2 Energies <==================
	-----------------------------------------------------------
	 SCS Same-Spin Scale       =       0.3333333333333333 [-]
	 SCS Opposite-Spin Scale   =       1.2000000000000000 [-]
	 SCS Same-Spin Energy      =      -0.1167201502119420 [Eh]
	 SCS Opposite-Spin Energy  =      -1.4984571892897391 [Eh]
	 SCS Correlation Energy    =      -1.6151773395016811 [Eh]
	 SCS Total Energy          =    -329.9719429534827668 [Eh]
	-----------------------------------------------------------

  Dipole Moment: [D]
     X:     0.3822      Y:     1.7340      Z:     0.5946     Total:     1.8725

*** Psi4 exiting successfully. Buy a developer a beer!
