                               Psi4 1.3.2 release

  ==> Input File <==

--------------------------------------------------------------------------
#psi4
#
memory 32 gb

molecule  {
0 1
  N       -0.4872538    -0.9456746     0.0176956
  C        0.4568270    -0.1006020    -0.0211380
  C        1.7238140    -0.5084530    -0.7342290
  C        0.4670650     1.2778240     0.6138280
  C        2.7894260    -0.9991790     0.2510720
  C       -0.1640310     2.3214140    -0.3160410
  C       -1.7763620    -0.6501130     0.6316150
  C       -2.8974570    -0.7179310    -0.4005860
  H        2.1129470     0.3411750    -1.3109330
  H        1.4703830    -1.3072380    -1.4363190
  H       -0.0513810     1.2722970     1.5772600
  H        1.5049820     1.5584610     0.8223980
  H        3.0556910    -0.2252510     0.9773740
  H        2.4162060    -1.8680970     0.7997060
  H        3.7027550    -1.2914870    -0.2753070
  H        0.3474740     2.3390420    -1.2828520
  H       -0.0995980     3.3230440     0.1193210
  H       -1.2176240     2.0946990    -0.4987850
  H       -1.9345560    -1.4260300     1.3901820
  H       -1.8022440     0.3193480     1.1465960
  H       -3.8733410    -0.5778450     0.0742730
  H       -2.7667840     0.0602240    -1.1578580
  H       -2.8841180    -1.6872020    -0.9036440
units angstrom
no_reorient  #important for SAPT in psi4, default
symmetry c1  #important for SAPT in psi4, default
}

set PROPERTIES_ORIGIN ["COM"]
properties('MP2/aug-cc-pvtz', properties = ['dipole'])
--------------------------------------------------------------------------

    Molecular point group: c1
  Charge       = 0
  Multiplicity = 1
  Basis Set: AUG-CC-PVTZ
    Blend: AUG-CC-PVTZ
  Basis Set: (AUG-CC-PVTZ AUX)
    Blend: AUG-CC-PVTZ-JKFIT

    Orbital Energies [Eh]
    ---------------------

    Doubly Occupied:

       1A    -15.534974     2A    -11.268403     3A    -11.242049
       4A    -11.232063     5A    -11.225734     6A    -11.220588
       7A    -11.216660     8A    -11.208693     9A     -1.221975
      10A     -1.065353    11A     -1.026277    12A     -0.995543
      13A     -0.891342    14A     -0.858118    15A     -0.824039
      16A     -0.702358    17A     -0.662157    18A     -0.643710
      19A     -0.599106    20A     -0.591142    21A     -0.590135
      22A     -0.559956    23A     -0.540122    24A     -0.522949
      25A     -0.520603    26A     -0.513041    27A     -0.508579
      28A     -0.488021    29A     -0.482517    30A     -0.472366
      31A     -0.384926    32A     -0.372417

  @DF-RHF Final Energy:  -328.36047223453761

   => Energetics <=

    Nuclear Repulsion Energy =            389.1882087089116453
    One-Electron Energy =               -1214.7255273873970509
    Two-Electron Energy =                 497.1768464439478521
    Total Energy =                       -328.3604722345376103
  Basis Set: (AUG-CC-PVTZ AUX)
    Blend: AUG-CC-PVTZ-RI
    Molecular point group: c1

    Geometry (in Angstrom), charge = 0, multiplicity = 1:

       Center              X                  Y                   Z               Mass
    ------------   -----------------  -----------------  -----------------  -----------------
         N           -0.490338783113    -0.920756010073     0.012534898737    14.003074004430
         C            0.453742016887    -0.075683410073    -0.026298701263    12.000000000000
         C            1.720729016887    -0.483534410073    -0.739389701263    12.000000000000
         C            0.463980016887     1.302742589927     0.608667298737    12.000000000000
         C            2.786341016887    -0.974260410073     0.245911298737    12.000000000000
         C           -0.167115983113     2.346332589927    -0.321201701263    12.000000000000
         C           -1.779446983113    -0.625194410073     0.626454298737    12.000000000000
         C           -2.900541983113    -0.693012410073    -0.405746701263    12.000000000000
         H            2.109862016887     0.366093589927    -1.316093701263     1.007825032230
         H            1.467298016887    -1.282319410073    -1.441479701263     1.007825032230
         H           -0.054465983113     1.297215589927     1.572099298737     1.007825032230
         H            1.501897016887     1.583379589927     0.817237298737     1.007825032230
         H            3.052606016887    -0.200332410073     0.972213298737     1.007825032230
         H            2.413121016887    -1.843178410073     0.794545298737     1.007825032230
         H            3.699670016887    -1.266568410073    -0.280467701263     1.007825032230
         H            0.344389016887     2.363960589927    -1.288012701263     1.007825032230
         H           -0.102682983113     3.347962589927     0.114160298737     1.007825032230
         H           -1.220708983113     2.119617589927    -0.503945701263     1.007825032230
         H           -1.937640983113    -1.401111410073     1.385021298737     1.007825032230
         H           -1.805328983113     0.344266589927     1.141435298737     1.007825032230
         H           -3.876425983113    -0.552926410073     0.069112298737     1.007825032230
         H           -2.769868983113     0.085142589927    -1.163018701263     1.007825032230
         H           -2.887202983113    -1.662283410073    -0.908804701263     1.007825032230

  Basis Set: AUG-CC-PVTZ
    Blend: AUG-CC-PVTZ
  Basis Set: (AUG-CC-PVTZ AUX)
    Blend: AUG-CC-PVTZ-JKFIT
	 Reference Energy          =    -328.3604722345376103 [Eh]
	 Singles Energy            =      -0.0000000000000000 [Eh]
	 Same-Spin Energy          =      -0.3493380895949377 [Eh]
	 Opposite-Spin Energy      =      -1.2467369951298646 [Eh]
	 Correlation Energy        =      -1.5960750847248022 [Eh]
	 Total Energy              =    -329.9565473192624268 [Eh]

	 ================> DF-SCS-MP2 Energies <==================
	-----------------------------------------------------------
	 SCS Same-Spin Scale       =       0.3333333333333333 [-]
	 SCS Opposite-Spin Scale   =       1.2000000000000000 [-]
	 SCS Same-Spin Energy      =      -0.1164460298649792 [Eh]
	 SCS Opposite-Spin Energy  =      -1.4960843941558375 [Eh]
	 SCS Correlation Energy    =      -1.6125304240208167 [Eh]
	 SCS Total Energy          =    -329.9730026585584142 [Eh]
	-----------------------------------------------------------

  Dipole Moment: [D]
     X:     0.3107      Y:     1.6689      Z:     0.5390     Total:     1.7811

*** Psi4 exiting successfully. Buy a developer a beer!
