                               Psi4 1.3.2 release

  ==> Input File <==

--------------------------------------------------------------------------
#psi4
#
memory 32 gb

molecule  {
0 1
  N       -0.4967193    -0.8516402    -0.0376794
  C        0.4568270    -0.1006020    -0.0211380
  C        1.7238140    -0.5084530    -0.7342290
  C        0.4670650     1.2778240     0.6138280
  C        2.7894260    -0.9991790     0.2510720
  C       -0.1640310     2.3214140    -0.3160410
  C       -1.7763620    -0.6501130     0.6316150
  C       -2.8974570    -0.7179310    -0.4005860
  H        2.1129470     0.3411750    -1.3109330
  H        1.4703830    -1.3072380    -1.4363190
  H       -0.0513810     1.2722970     1.5772600
  H        1.5049820     1.5584610     0.8223980
  H        3.0556910    -0.2252510     0.9773740
  H        2.4162060    -1.8680970     0.7997060
  H        3.7027550    -1.2914870    -0.2753070
  H        0.3474740     2.3390420    -1.2828520
  H       -0.0995980     3.3230440     0.1193210
  H       -1.2176240     2.0946990    -0.4987850
  H       -1.9345560    -1.4260300     1.3901820
  H       -1.8022440     0.3193480     1.1465960
  H       -3.8733410    -0.5778450     0.0742730
  H       -2.7667840     0.0602240    -1.1578580
  H       -2.8841180    -1.6872020    -0.9036440
units angstrom
no_reorient  #important for SAPT in psi4, default
symmetry c1  #important for SAPT in psi4, default
}

set PROPERTIES_ORIGIN ["COM"]
properties('MP2/aug-cc-pvtz', properties = ['dipole'])
--------------------------------------------------------------------------

    Molecular point group: c1
  Charge       = 0
  Multiplicity = 1
  Basis Set: AUG-CC-PVTZ
    Blend: AUG-CC-PVTZ
  Basis Set: (AUG-CC-PVTZ AUX)
    Blend: AUG-CC-PVTZ-JKFIT

    Orbital Energies [Eh]
    ---------------------

    Doubly Occupied:

       1A    -15.525190     2A    -11.258479     3A    -11.245790
       4A    -11.226874     5A    -11.223678     6A    -11.218250
       7A    -11.216246     8A    -11.208871     9A     -1.239930
      10A     -1.063131    11A     -1.024652    12A     -1.001564
      13A     -0.888609    14A     -0.857890    15A     -0.827806
      16A     -0.700408    17A     -0.661095    18A     -0.648484
      19A     -0.599744    20A     -0.594933    21A     -0.589408
      22A     -0.563225    23A     -0.537749    24A     -0.522259
      25A     -0.520325    26A     -0.512425    27A     -0.508762
      28A     -0.486827    29A     -0.483324    30A     -0.476248
      31A     -0.397646    32A     -0.359605

  @DF-RHF Final Energy:  -328.35783942370642

   => Energetics <=

    Nuclear Repulsion Energy =            390.7033146610305039
    One-Electron Energy =               -1217.7434563286360572
    Two-Electron Energy =                 498.6823022438991302
    Total Energy =                       -328.3578394237064231
  Basis Set: (AUG-CC-PVTZ AUX)
    Blend: AUG-CC-PVTZ-RI
    Molecular point group: c1

    Geometry (in Angstrom), charge = 0, multiplicity = 1:

       Center              X                  Y                   Z               Mass
    ------------   -----------------  -----------------  -----------------  -----------------
         N           -0.498632557775    -0.838362039970    -0.035985282117    14.003074004430
         C            0.454913742225    -0.087323839970    -0.019443882117    12.000000000000
         C            1.721900742225    -0.495174839970    -0.732534882117    12.000000000000
         C            0.465151742225     1.291102160030     0.615522117883    12.000000000000
         C            2.787512742225    -0.985900839970     0.252766117883    12.000000000000
         C           -0.165944257775     2.334692160030    -0.314346882117    12.000000000000
         C           -1.778275257775    -0.636834839970     0.633309117883    12.000000000000
         C           -2.899370257775    -0.704652839970    -0.398891882117    12.000000000000
         H            2.111033742225     0.354453160030    -1.309238882117     1.007825032230
         H            1.468469742225    -1.293959839970    -1.434624882117     1.007825032230
         H           -0.053294257775     1.285575160030     1.578954117883     1.007825032230
         H            1.503068742225     1.571739160030     0.824092117883     1.007825032230
         H            3.053777742225    -0.211972839970     0.979068117883     1.007825032230
         H            2.414292742225    -1.854818839970     0.801400117883     1.007825032230
         H            3.700841742225    -1.278208839970    -0.273612882117     1.007825032230
         H            0.345560742225     2.352320160030    -1.281157882117     1.007825032230
         H           -0.101511257775     3.336322160030     0.121015117883     1.007825032230
         H           -1.219537257775     2.107977160030    -0.497090882117     1.007825032230
         H           -1.936469257775    -1.412751839970     1.391876117883     1.007825032230
         H           -1.804157257775     0.332626160030     1.148290117883     1.007825032230
         H           -3.875254257775    -0.564566839970     0.075967117883     1.007825032230
         H           -2.768697257775     0.073502160030    -1.156163882117     1.007825032230
         H           -2.886031257775    -1.673923839970    -0.901949882117     1.007825032230

  Basis Set: AUG-CC-PVTZ
    Blend: AUG-CC-PVTZ
  Basis Set: (AUG-CC-PVTZ AUX)
    Blend: AUG-CC-PVTZ-JKFIT
	 Reference Energy          =    -328.3578394237064231 [Eh]
	 Singles Energy            =      -0.0000000000000000 [Eh]
	 Same-Spin Energy          =      -0.3484213905125279 [Eh]
	 Opposite-Spin Energy      =      -1.2441446465305486 [Eh]
	 Correlation Energy        =      -1.5925660370430763 [Eh]
	 Total Energy              =    -329.9504054607494936 [Eh]

	 ================> DF-SCS-MP2 Energies <==================
	-----------------------------------------------------------
	 SCS Same-Spin Scale       =       0.3333333333333333 [-]
	 SCS Opposite-Spin Scale   =       1.2000000000000000 [-]
	 SCS Same-Spin Energy      =      -0.1161404635041760 [Eh]
	 SCS Opposite-Spin Energy  =      -1.4929735758366582 [Eh]
	 SCS Correlation Energy    =      -1.6091140393408341 [Eh]
	 SCS Total Energy          =    -329.9669534630472754 [Eh]
	-----------------------------------------------------------

  Dipole Moment: [D]
     X:     0.2555      Y:     1.4421      Z:     0.6367     Total:     1.5970

*** Psi4 exiting successfully. Buy a developer a beer!
