                               Psi4 1.4a3.dev225

  ==> Input File <==

--------------------------------------------------------------------------
#psi4
#
memory 32 gb

molecule  {
0 1
  N       -0.5109430    -0.9518430    -0.0269260
  C        0.4568240    -0.1006160    -0.0211450
  C        1.7237990    -0.5085590    -0.7342300
  C        0.4670880     1.2778150     0.6137790
  C        2.7894950    -0.9990730     0.2510970
  C       -0.1640680     2.3213990    -0.3160610
  C       -1.7590218    -0.6542102     0.6225980
  C       -2.8974700    -0.7179400    -0.4005630
  H        2.1128780     0.3409680    -1.3111240
  H        1.4703470    -1.3074830    -1.4361490
  H       -0.0513130     1.2723030     1.5772340
  H        1.5050160     1.5584520     0.8222760
  H        3.0557420    -0.2250230     0.9772740
  H        2.4163470    -1.8679380     0.7998630
  H        3.7028160    -1.2913930    -0.2752870
  H        0.3476260     2.3392860    -1.2827640
  H       -0.0999350     3.3229720     0.1194750
  H       -1.2175750     2.0944730    -0.4990280
  H       -1.9345660    -1.4259490     1.3902370
  H       -1.8022330     0.3194130     1.1465770
  H       -3.8733550    -0.5777970     0.0742800
  H       -2.7667810     0.0601400    -1.1579070
  H       -2.8841480    -1.6872580    -0.9035300
units angstrom
no_reorient  #important for SAPT in psi4, default
symmetry c1  #important for SAPT in psi4, default
}

set PROPERTIES_ORIGIN ["COM"]
properties('MP2/aug-cc-pvtz', properties = ['dipole'])
--------------------------------------------------------------------------

    Molecular point group: c1
  Charge       = 0
  Multiplicity = 1
  Basis Set: AUG-CC-PVTZ
    Blend: AUG-CC-PVTZ
  Basis Set: (AUG-CC-PVTZ AUX)
    Blend: AUG-CC-PVTZ-JKFIT

    Orbital Energies [Eh]
    ---------------------

    Doubly Occupied:

       1A    -15.538763     2A    -11.273325     3A    -11.241199
       4A    -11.234292     5A    -11.226766     6A    -11.221760
       7A    -11.217608     8A    -11.206638     9A     -1.219834
      10A     -1.067801    11A     -1.027087    12A     -0.991449
      13A     -0.892649    14A     -0.858627    15A     -0.820892
      16A     -0.705807    17A     -0.663415    18A     -0.643693
      19A     -0.599100    20A     -0.591665    21A     -0.589454
      22A     -0.559351    23A     -0.540365    24A     -0.523441
      25A     -0.520102    26A     -0.511802    27A     -0.507274
      28A     -0.488197    29A     -0.482944    30A     -0.469192
      31A     -0.380751    32A     -0.377641

  @DF-RHF Final Energy:  -328.35877746896762

   => Energetics <=

    Nuclear Repulsion Energy =            389.0621396045475535
    One-Electron Energy =               -1214.4560657912622901
    Two-Electron Energy =                 497.0351487177470631
    Total Energy =                       -328.3587774689676166
  Basis Set: (AUG-CC-PVTZ AUX)
    Blend: AUG-CC-PVTZ-RI
    Molecular point group: c1

    Geometry (in Angstrom), charge = 0, multiplicity = 1:

       Center              X                  Y                   Z               Mass
    ------------   -----------------  -----------------  -----------------  -----------------
         N           -0.512938201008    -0.925721437853    -0.025603554733    14.003074004430
         C            0.454828798992    -0.074494437853    -0.019822554733    12.000000000000
         C            1.721803798992    -0.482437437853    -0.732907554733    12.000000000000
         C            0.465092798992     1.303936562147     0.615101445267    12.000000000000
         C            2.787499798992    -0.972951437853     0.252419445267    12.000000000000
         C           -0.166063201008     2.347520562147    -0.314738554733    12.000000000000
         C           -1.761017001008    -0.628088637853     0.623920445267    12.000000000000
         C           -2.899465201008    -0.691818437853    -0.399240554733    12.000000000000
         H            2.110882798992     0.367089562147    -1.309801554733     1.007825032230
         H            1.468351798992    -1.281361437853    -1.434826554733     1.007825032230
         H           -0.053308201008     1.298424562147     1.578556445267     1.007825032230
         H            1.503020798992     1.584573562147     0.823598445267     1.007825032230
         H            3.053746798992    -0.198901437853     0.978596445267     1.007825032230
         H            2.414351798992    -1.841816437853     0.801185445267     1.007825032230
         H            3.700820798992    -1.265271437853    -0.273964554733     1.007825032230
         H            0.345630798992     2.365407562147    -1.281441554733     1.007825032230
         H           -0.101930201008     3.349093562147     0.120797445267     1.007825032230
         H           -1.219570201008     2.120594562147    -0.497705554733     1.007825032230
         H           -1.936561201008    -1.399827437853     1.391559445267     1.007825032230
         H           -1.804228201008     0.345534562147     1.147899445267     1.007825032230
         H           -3.875350201008    -0.551675437853     0.075602445267     1.007825032230
         H           -2.768776201008     0.086261562147    -1.156584554733     1.007825032230
         H           -2.886143201008    -1.661136437853    -0.902207554733     1.007825032230

  Basis Set: AUG-CC-PVTZ
    Blend: AUG-CC-PVTZ
  Basis Set: (AUG-CC-PVTZ AUX)
    Blend: AUG-CC-PVTZ-JKFIT
	 Reference Energy          =    -328.3587774689676166 [Eh]
	 Singles Energy            =      -0.0000000000000000 [Eh]
	 Same-Spin Energy          =      -0.3499469894791080 [Eh]
	 Opposite-Spin Energy      =      -1.2479241766388893 [Eh]
	 Correlation Energy        =      -1.5978711661179972 [Eh]
	 Total Energy              =    -329.9566486350856280 [Eh]

	 ================> DF-SCS-MP2 Energies <==================
	-----------------------------------------------------------
	 SCS Same-Spin Scale       =       0.3333333333333333 [-]
	 SCS Opposite-Spin Scale   =       1.2000000000000000 [-]
	 SCS Same-Spin Energy      =      -0.1166489964930360 [Eh]
	 SCS Opposite-Spin Energy  =      -1.4975090119666672 [Eh]
	 SCS Correlation Energy    =      -1.6141580084597031 [Eh]
	 SCS Total Energy          =    -329.9729354774273133 [Eh]
	-----------------------------------------------------------

  Dipole Moment: [D]
     X:     0.4197      Y:     1.6967      Z:     0.6023     Total:     1.8487

*** Psi4 exiting successfully. Buy a developer a beer!
