                               Psi4 1.4a3.dev225

  ==> Input File <==

--------------------------------------------------------------------------
#psi4
#
memory 32 gb

molecule  {
0 1
  N       -0.5109430    -0.9518430    -0.0269260
  C        0.4568240    -0.1006160    -0.0211450
  C        1.7237990    -0.5085590    -0.7342300
  C        0.4670880     1.2778150     0.6137790
  C        2.7894950    -0.9990730     0.2510970
  C       -0.1640680     2.3213990    -0.3160610
  C       -1.7329861    -0.6604190     0.6090485
  C       -2.8974700    -0.7179400    -0.4005630
  H        2.1128780     0.3409680    -1.3111240
  H        1.4703470    -1.3074830    -1.4361490
  H       -0.0513130     1.2723030     1.5772340
  H        1.5050160     1.5584520     0.8222760
  H        3.0557420    -0.2250230     0.9772740
  H        2.4163470    -1.8679380     0.7998630
  H        3.7028160    -1.2913930    -0.2752870
  H        0.3476260     2.3392860    -1.2827640
  H       -0.0999350     3.3229720     0.1194750
  H       -1.2175750     2.0944730    -0.4990280
  H       -1.9345660    -1.4259490     1.3902370
  H       -1.8022330     0.3194130     1.1465770
  H       -3.8733550    -0.5777970     0.0742800
  H       -2.7667810     0.0601400    -1.1579070
  H       -2.8841480    -1.6872580    -0.9035300
units angstrom
no_reorient  #important for SAPT in psi4, default
symmetry c1  #important for SAPT in psi4, default
}

set PROPERTIES_ORIGIN ["COM"]
properties('MP2/aug-cc-pvtz', properties = ['dipole'])
--------------------------------------------------------------------------

    Molecular point group: c1
  Charge       = 0
  Multiplicity = 1
  Basis Set: AUG-CC-PVTZ
    Blend: AUG-CC-PVTZ
  Basis Set: (AUG-CC-PVTZ AUX)
    Blend: AUG-CC-PVTZ-JKFIT

    Orbital Energies [Eh]
    ---------------------

    Doubly Occupied:

       1A    -15.538589     2A    -11.274920     3A    -11.241852
       4A    -11.234666     5A    -11.226947     6A    -11.222376
       7A    -11.218135     8A    -11.206618     9A     -1.226388
      10A     -1.069735    11A     -1.027429    12A     -0.989289
      13A     -0.894343    14A     -0.859157    15A     -0.820530
      16A     -0.707515    17A     -0.664852    18A     -0.644792
      19A     -0.599385    20A     -0.591997    21A     -0.588312
      22A     -0.561398    23A     -0.540726    24A     -0.524638
      25A     -0.520709    26A     -0.512233    27A     -0.504825
      28A     -0.488394    29A     -0.483939    30A     -0.466944
      31A     -0.381311    32A     -0.376269

  @DF-RHF Final Energy:  -328.35680248126710

   => Energetics <=

    Nuclear Repulsion Energy =            389.4703724810973995
    One-Electron Energy =               -1215.2359242301783979
    Two-Electron Energy =                 497.4087492678138460
    Total Energy =                       -328.3568024812670956
  Basis Set: (AUG-CC-PVTZ AUX)
    Blend: AUG-CC-PVTZ-RI
    Molecular point group: c1

    Geometry (in Angstrom), charge = 0, multiplicity = 1:

       Center              X                  Y                   Z               Mass
    ------------   -----------------  -----------------  -----------------  -----------------
         N           -0.515700110118    -0.925062798320    -0.024166201887    14.003074004430
         C            0.452066889882    -0.073835798320    -0.018385201887    12.000000000000
         C            1.719041889882    -0.481778798320    -0.731470201887    12.000000000000
         C            0.462330889882     1.304595201680     0.616538798113    12.000000000000
         C            2.784737889882    -0.972292798320     0.253856798113    12.000000000000
         C           -0.168825110118     2.348179201680    -0.313301201887    12.000000000000
         C           -1.737743210118    -0.633638798320     0.611808298113    12.000000000000
         C           -2.902227110118    -0.691159798320    -0.397803201887    12.000000000000
         H            2.108120889882     0.367748201680    -1.308364201887     1.007825032230
         H            1.465589889882    -1.280702798320    -1.433389201887     1.007825032230
         H           -0.056070110118     1.299083201680     1.579993798113     1.007825032230
         H            1.500258889882     1.585232201680     0.825035798113     1.007825032230
         H            3.050984889882    -0.198242798320     0.980033798113     1.007825032230
         H            2.411589889882    -1.841157798320     0.802622798113     1.007825032230
         H            3.698058889882    -1.264612798320    -0.272527201887     1.007825032230
         H            0.342868889882     2.366066201680    -1.280004201887     1.007825032230
         H           -0.104692110118     3.349752201680     0.122234798113     1.007825032230
         H           -1.222332110118     2.121253201680    -0.496268201887     1.007825032230
         H           -1.939323110118    -1.399168798320     1.392996798113     1.007825032230
         H           -1.806990110118     0.346193201680     1.149336798113     1.007825032230
         H           -3.878112110118    -0.551016798320     0.077039798113     1.007825032230
         H           -2.771538110118     0.086920201680    -1.155147201887     1.007825032230
         H           -2.888905110118    -1.660477798320    -0.900770201887     1.007825032230

  Basis Set: AUG-CC-PVTZ
    Blend: AUG-CC-PVTZ
  Basis Set: (AUG-CC-PVTZ AUX)
    Blend: AUG-CC-PVTZ-JKFIT
	 Reference Energy          =    -328.3568024812670956 [Eh]
	 Singles Energy            =      -0.0000000000000000 [Eh]
	 Same-Spin Energy          =      -0.3501655586951079 [Eh]
	 Opposite-Spin Energy      =      -1.2479213356877923 [Eh]
	 Correlation Energy        =      -1.5980868943829001 [Eh]
	 Total Energy              =    -329.9548893756499979 [Eh]

	 ================> DF-SCS-MP2 Energies <==================
	-----------------------------------------------------------
	 SCS Same-Spin Scale       =       0.3333333333333333 [-]
	 SCS Opposite-Spin Scale   =       1.2000000000000000 [-]
	 SCS Same-Spin Energy      =      -0.1167218528983693 [Eh]
	 SCS Opposite-Spin Energy  =      -1.4975056028253506 [Eh]
	 SCS Correlation Energy    =      -1.6142274557237200 [Eh]
	 SCS Total Energy          =    -329.9710299369908171 [Eh]
	-----------------------------------------------------------

  Dipole Moment: [D]
     X:     0.4694      Y:     1.6855      Z:     0.5812     Total:     1.8436

*** Psi4 exiting successfully. Buy a developer a beer!
