                               Psi4 1.3.2 release

  ==> Input File <==

--------------------------------------------------------------------------
#psi4
#
memory 32 gb

molecule  {
0 1
  N       -0.5910722    -0.9681148    -0.1557962
  C        0.4568270    -0.1006020    -0.0211380
  C        1.7238140    -0.5084530    -0.7342290
  C        0.4670650     1.2778240     0.6138280
  C        2.7894260    -0.9991790     0.2510720
  C       -0.1640310     2.3214140    -0.3160410
  C       -1.7763620    -0.6501130     0.6316150
  C       -2.8974570    -0.7179310    -0.4005860
  H        2.1129470     0.3411750    -1.3109330
  H        1.4703830    -1.3072380    -1.4363190
  H       -0.0513810     1.2722970     1.5772600
  H        1.5049820     1.5584610     0.8223980
  H        3.0556910    -0.2252510     0.9773740
  H        2.4162060    -1.8680970     0.7997060
  H        3.7027550    -1.2914870    -0.2753070
  H        0.3474740     2.3390420    -1.2828520
  H       -0.0995980     3.3230440     0.1193210
  H       -1.2176240     2.0946990    -0.4987850
  H       -1.9345560    -1.4260300     1.3901820
  H       -1.8022440     0.3193480     1.1465960
  H       -3.8733410    -0.5778450     0.0742730
  H       -2.7667840     0.0602240    -1.1578580
  H       -2.8841180    -1.6872020    -0.9036440
units angstrom
no_reorient  #important for SAPT in psi4, default
symmetry c1  #important for SAPT in psi4, default
}

set PROPERTIES_ORIGIN ["COM"]
properties('MP2/aug-cc-pvtz', properties = ['dipole'])
--------------------------------------------------------------------------

    Molecular point group: c1
  Charge       = 0
  Multiplicity = 1
  Basis Set: AUG-CC-PVTZ
    Blend: AUG-CC-PVTZ
  Basis Set: (AUG-CC-PVTZ AUX)
    Blend: AUG-CC-PVTZ-JKFIT

    Orbital Energies [Eh]
    ---------------------

    Doubly Occupied:

       1A    -15.550501     2A    -11.286474     3A    -11.240241
       4A    -11.237312     5A    -11.229409     6A    -11.224464
       7A    -11.219756     8A    -11.200651     9A     -1.195964
      10A     -1.071163    11A     -1.028962    12A     -0.982576
      13A     -0.893153    14A     -0.858835    15A     -0.812386
      16A     -0.711671    17A     -0.663321    18A     -0.640475
      19A     -0.599085    20A     -0.593545    21A     -0.589091
      22A     -0.553039    23A     -0.540798    24A     -0.523548
      25A     -0.517774    26A     -0.508998    27A     -0.506168
      28A     -0.487406    29A     -0.482438    30A     -0.461837
      31A     -0.398786    32A     -0.359345

  @DF-RHF Final Energy:  -328.33954159458483

   => Energetics <=

    Nuclear Repulsion Energy =            387.4435371765350169
    One-Electron Energy =               -1211.2278139394813934
    Two-Electron Energy =                 495.4447351683614897
    Total Energy =                       -328.3395415945848299
  Basis Set: (AUG-CC-PVTZ AUX)
    Blend: AUG-CC-PVTZ-RI
    Molecular point group: c1

    Geometry (in Angstrom), charge = 0, multiplicity = 1:

       Center              X                  Y                   Z               Mass
    ------------   -----------------  -----------------  -----------------  -----------------
         N           -0.581305601062    -0.940418358830    -0.139480514584    14.003074004430
         C            0.466593598938    -0.072905558830    -0.004822314584    12.000000000000
         C            1.733580598938    -0.480756558830    -0.717913314584    12.000000000000
         C            0.476831598938     1.305520441170     0.630143685416    12.000000000000
         C            2.799192598938    -0.971482558830     0.267387685416    12.000000000000
         C           -0.154264401062     2.349110441170    -0.299725314584    12.000000000000
         C           -1.766595401062    -0.622416558830     0.647930685416    12.000000000000
         C           -2.887690401062    -0.690234558830    -0.384270314584    12.000000000000
         H            2.122713598938     0.368871441170    -1.294617314584     1.007825032230
         H            1.480149598938    -1.279541558830    -1.420003314584     1.007825032230
         H           -0.041614401062     1.299993441170     1.593575685416     1.007825032230
         H            1.514748598938     1.586157441170     0.838713685416     1.007825032230
         H            3.065457598938    -0.197554558830     0.993689685416     1.007825032230
         H            2.425972598938    -1.840400558830     0.816021685416     1.007825032230
         H            3.712521598938    -1.263790558830    -0.258991314584     1.007825032230
         H            0.357240598938     2.366738441170    -1.266536314584     1.007825032230
         H           -0.089831401062     3.350740441170     0.135636685416     1.007825032230
         H           -1.207857401062     2.122395441170    -0.482469314584     1.007825032230
         H           -1.924789401062    -1.398333558830     1.406497685416     1.007825032230
         H           -1.792477401062     0.347044441170     1.162911685416     1.007825032230
         H           -3.863574401062    -0.550148558830     0.090588685416     1.007825032230
         H           -2.757017401062     0.087920441170    -1.141542314584     1.007825032230
         H           -2.874351401062    -1.659505558830    -0.887328314584     1.007825032230

  Basis Set: AUG-CC-PVTZ
    Blend: AUG-CC-PVTZ
  Basis Set: (AUG-CC-PVTZ AUX)
    Blend: AUG-CC-PVTZ-JKFIT
	 Reference Energy          =    -328.3395415945848299 [Eh]
	 Singles Energy            =      -0.0000000000000000 [Eh]
	 Same-Spin Energy          =      -0.3522771612788846 [Eh]
	 Opposite-Spin Energy      =      -1.2536588105271935 [Eh]
	 Correlation Energy        =      -1.6059359718060782 [Eh]
	 Total Energy              =    -329.9454775663909345 [Eh]

	 ================> DF-SCS-MP2 Energies <==================
	-----------------------------------------------------------
	 SCS Same-Spin Scale       =       0.3333333333333333 [-]
	 SCS Opposite-Spin Scale   =       1.2000000000000000 [-]
	 SCS Same-Spin Energy      =      -0.1174257204262949 [Eh]
	 SCS Opposite-Spin Energy  =      -1.5043905726326321 [Eh]
	 SCS Correlation Energy    =      -1.6218162930589270 [Eh]
	 SCS Total Energy          =    -329.9613578876437714 [Eh]
	-----------------------------------------------------------

  Dipole Moment: [D]
     X:     0.6208      Y:     1.7782      Z:     0.8168     Total:     2.0529

*** Psi4 exiting successfully. Buy a developer a beer!
