                               Psi4 1.3.2 release

  ==> Input File <==

--------------------------------------------------------------------------
#psi4
#
memory 32 gb

molecule  {
0 1
  N       -0.5109270    -0.9518430    -0.0269340
  C        0.5447870     0.0045943     0.0574623
  C        1.7238140    -0.5084530    -0.7342290
  C        0.4670650     1.2778240     0.6138280
  C        2.7894260    -0.9991790     0.2510720
  C       -0.1640310     2.3214140    -0.3160410
  C       -1.7763620    -0.6501130     0.6316150
  C       -2.8974570    -0.7179310    -0.4005860
  H        2.1129470     0.3411750    -1.3109330
  H        1.4703830    -1.3072380    -1.4363190
  H       -0.0513810     1.2722970     1.5772600
  H        1.5049820     1.5584610     0.8223980
  H        3.0556910    -0.2252510     0.9773740
  H        2.4162060    -1.8680970     0.7997060
  H        3.7027550    -1.2914870    -0.2753070
  H        0.3474740     2.3390420    -1.2828520
  H       -0.0995980     3.3230440     0.1193210
  H       -1.2176240     2.0946990    -0.4987850
  H       -1.9345560    -1.4260300     1.3901820
  H       -1.8022440     0.3193480     1.1465960
  H       -3.8733410    -0.5778450     0.0742730
  H       -2.7667840     0.0602240    -1.1578580
  H       -2.8841180    -1.6872020    -0.9036440
units angstrom
no_reorient  #important for SAPT in psi4, default
symmetry c1  #important for SAPT in psi4, default
}

set PROPERTIES_ORIGIN ["COM"]
properties('MP2/aug-cc-pvtz', properties = ['dipole'])
--------------------------------------------------------------------------

    Molecular point group: c1
  Charge       = 0
  Multiplicity = 1
  Basis Set: AUG-CC-PVTZ
    Blend: AUG-CC-PVTZ
  Basis Set: (AUG-CC-PVTZ AUX)
    Blend: AUG-CC-PVTZ-JKFIT

    Orbital Energies [Eh]
    ---------------------

    Doubly Occupied:

       1A    -15.546333     2A    -11.285187     3A    -11.234525
       4A    -11.234153     5A    -11.233780     6A    -11.226578
       7A    -11.217639     8A    -11.203032     9A     -1.184616
      10A     -1.080902    11A     -1.034165    12A     -0.976273
      13A     -0.907339    14A     -0.864090    15A     -0.807413
      16A     -0.711113    17A     -0.669744    18A     -0.643172
      19A     -0.602527    20A     -0.593460    21A     -0.583098
      22A     -0.561004    23A     -0.543870    24A     -0.525064
      25A     -0.522111    26A     -0.511351    27A     -0.506845
      28A     -0.491636    29A     -0.485465    30A     -0.453728
      31A     -0.390093    32A     -0.340893

  @DF-RHF Final Energy:  -328.31507219434889

   => Energetics <=

    Nuclear Repulsion Energy =            388.3090264763127948
    One-Electron Energy =               -1212.9058030153948948
    Two-Electron Energy =                 496.2817043447332708
    Total Energy =                       -328.3150721943488861
  Basis Set: (AUG-CC-PVTZ AUX)
    Blend: AUG-CC-PVTZ-RI
    Molecular point group: c1

    Geometry (in Angstrom), charge = 0, multiplicity = 1:

       Center              X                  Y                   Z               Mass
    ------------   -----------------  -----------------  -----------------  -----------------
         N           -0.520412438838    -0.937320223064    -0.034908091856    14.003074004430
         C            0.535301561162     0.019117076936     0.049488208144    12.000000000000
         C            1.714328561162    -0.493930223064    -0.742203091856    12.000000000000
         C            0.457579561162     1.292346776936     0.605853908144    12.000000000000
         C            2.779940561162    -0.984656223064     0.243097908144    12.000000000000
         C           -0.173516438838     2.335936776936    -0.324015091856    12.000000000000
         C           -1.785847438838    -0.635590223064     0.623640908144    12.000000000000
         C           -2.906942438838    -0.703408223064    -0.408560091856    12.000000000000
         H            2.103461561162     0.355697776936    -1.318907091856     1.007825032230
         H            1.460897561162    -1.292715223064    -1.444293091856     1.007825032230
         H           -0.060866438838     1.286819776936     1.569285908144     1.007825032230
         H            1.495496561162     1.572983776936     0.814423908144     1.007825032230
         H            3.046205561162    -0.210728223064     0.969399908144     1.007825032230
         H            2.406720561162    -1.853574223064     0.791731908144     1.007825032230
         H            3.693269561162    -1.276964223064    -0.283281091856     1.007825032230
         H            0.337988561162     2.353564776936    -1.290826091856     1.007825032230
         H           -0.109083438838     3.337566776936     0.111346908144     1.007825032230
         H           -1.227109438838     2.109221776936    -0.506759091856     1.007825032230
         H           -1.944041438838    -1.411507223064     1.382207908144     1.007825032230
         H           -1.811729438838     0.333870776936     1.138621908144     1.007825032230
         H           -3.882826438838    -0.563322223064     0.066298908144     1.007825032230
         H           -2.776269438838     0.074746776936    -1.165832091856     1.007825032230
         H           -2.893603438838    -1.672679223064    -0.911618091856     1.007825032230

  Basis Set: AUG-CC-PVTZ
    Blend: AUG-CC-PVTZ
  Basis Set: (AUG-CC-PVTZ AUX)
    Blend: AUG-CC-PVTZ-JKFIT
	 Reference Energy          =    -328.3150721943488861 [Eh]
	 Singles Energy            =      -0.0000000000000000 [Eh]
	 Same-Spin Energy          =      -0.3552002223668191 [Eh]
	 Opposite-Spin Energy      =      -1.2579431854237679 [Eh]
	 Correlation Energy        =      -1.6131434077905871 [Eh]
	 Total Energy              =    -329.9282156021394599 [Eh]

	 ================> DF-SCS-MP2 Energies <==================
	-----------------------------------------------------------
	 SCS Same-Spin Scale       =       0.3333333333333333 [-]
	 SCS Opposite-Spin Scale   =       1.2000000000000000 [-]
	 SCS Same-Spin Energy      =      -0.1184000741222730 [Eh]
	 SCS Opposite-Spin Energy  =      -1.5095318225085215 [Eh]
	 SCS Correlation Energy    =      -1.6279318966307945 [Eh]
	 SCS Total Energy          =    -329.9430040909796844 [Eh]
	-----------------------------------------------------------

  Dipole Moment: [D]
     X:     0.4511      Y:     1.9621      Z:     0.6065     Total:     2.1026

*** Psi4 exiting successfully. Buy a developer a beer!
