                               Psi4 1.3.2 release

  ==> Input File <==

--------------------------------------------------------------------------
#psi4
#
memory 32 gb

molecule  {
0 1
  N       -0.5109270    -0.9518430    -0.0269340
  C        0.5038490    -0.1266524     0.0695191
  C        1.7238140    -0.5084530    -0.7342290
  C        0.4670650     1.2778240     0.6138280
  C        2.7894260    -0.9991790     0.2510720
  C       -0.1640310     2.3214140    -0.3160410
  C       -1.7763620    -0.6501130     0.6316150
  C       -2.8974570    -0.7179310    -0.4005860
  H        2.1129470     0.3411750    -1.3109330
  H        1.4703830    -1.3072380    -1.4363190
  H       -0.0513810     1.2722970     1.5772600
  H        1.5049820     1.5584610     0.8223980
  H        3.0556910    -0.2252510     0.9773740
  H        2.4162060    -1.8680970     0.7997060
  H        3.7027550    -1.2914870    -0.2753070
  H        0.3474740     2.3390420    -1.2828520
  H       -0.0995980     3.3230440     0.1193210
  H       -1.2176240     2.0946990    -0.4987850
  H       -1.9345560    -1.4260300     1.3901820
  H       -1.8022440     0.3193480     1.1465960
  H       -3.8733410    -0.5778450     0.0742730
  H       -2.7667840     0.0602240    -1.1578580
  H       -2.8841180    -1.6872020    -0.9036440
units angstrom
no_reorient  #important for SAPT in psi4, default
symmetry c1  #important for SAPT in psi4, default
}

set PROPERTIES_ORIGIN ["COM"]
properties('MP2/aug-cc-pvtz', properties = ['dipole'])
--------------------------------------------------------------------------

    Molecular point group: c1
  Charge       = 0
  Multiplicity = 1
  Basis Set: AUG-CC-PVTZ
    Blend: AUG-CC-PVTZ
  Basis Set: (AUG-CC-PVTZ AUX)
    Blend: AUG-CC-PVTZ-JKFIT

    Orbital Energies [Eh]
    ---------------------

    Doubly Occupied:

       1A    -15.541859     2A    -11.274939     3A    -11.240137
       4A    -11.234651     5A    -11.228557     6A    -11.221847
       7A    -11.216005     8A    -11.206449     9A     -1.209335
      10A     -1.067972    11A     -1.027531    12A     -0.990646
      13A     -0.893091    14A     -0.858981    15A     -0.818497
      16A     -0.705466    17A     -0.662631    18A     -0.641814
      19A     -0.597983    20A     -0.593400    21A     -0.590250
      22A     -0.557277    23A     -0.541593    24A     -0.521464
      25A     -0.519941    26A     -0.511117    27A     -0.508629
      28A     -0.487360    29A     -0.482534    30A     -0.469218
      31A     -0.382075    32A     -0.372124

  @DF-RHF Final Energy:  -328.35139869113334

   => Energetics <=

    Nuclear Repulsion Energy =            388.4933238722445594
    One-Electron Energy =               -1213.3386949272796755
    Two-Electron Energy =                 496.4939723639017757
    Total Energy =                       -328.3513986911333404
  Basis Set: (AUG-CC-PVTZ AUX)
    Blend: AUG-CC-PVTZ-RI
    Molecular point group: c1

    Geometry (in Angstrom), charge = 0, multiplicity = 1:

       Center              X                  Y                   Z               Mass
    ------------   -----------------  -----------------  -----------------  -----------------
         N           -0.516069669672    -0.923397361131    -0.036187096675    14.003074004430
         C            0.498706330328    -0.098206761131     0.060266003325    12.000000000000
         C            1.718671330328    -0.480007361131    -0.743482096675    12.000000000000
         C            0.461922330328     1.306269638869     0.604574903325    12.000000000000
         C            2.784283330328    -0.970733361131     0.241818903325    12.000000000000
         C           -0.169173669672     2.349859638869    -0.325294096675    12.000000000000
         C           -1.781504669672    -0.621667361131     0.622361903325    12.000000000000
         C           -2.902599669672    -0.689485361131    -0.409839096675    12.000000000000
         H            2.107804330328     0.369620638869    -1.320186096675     1.007825032230
         H            1.465240330328    -1.278792361131    -1.445572096675     1.007825032230
         H           -0.056523669672     1.300742638869     1.568006903325     1.007825032230
         H            1.499839330328     1.586906638869     0.813144903325     1.007825032230
         H            3.050548330328    -0.196805361131     0.968120903325     1.007825032230
         H            2.411063330328    -1.839651361131     0.790452903325     1.007825032230
         H            3.697612330328    -1.263041361131    -0.284560096675     1.007825032230
         H            0.342331330328     2.367487638869    -1.292105096675     1.007825032230
         H           -0.104740669672     3.351489638869     0.110067903325     1.007825032230
         H           -1.222766669672     2.123144638869    -0.508038096675     1.007825032230
         H           -1.939698669672    -1.397584361131     1.380928903325     1.007825032230
         H           -1.807386669672     0.347793638869     1.137342903325     1.007825032230
         H           -3.878483669672    -0.549399361131     0.065019903325     1.007825032230
         H           -2.771926669672     0.088669638869    -1.167111096675     1.007825032230
         H           -2.889260669672    -1.658756361131    -0.912897096675     1.007825032230

  Basis Set: AUG-CC-PVTZ
    Blend: AUG-CC-PVTZ
  Basis Set: (AUG-CC-PVTZ AUX)
    Blend: AUG-CC-PVTZ-JKFIT
	 Reference Energy          =    -328.3513986911333404 [Eh]
	 Singles Energy            =      -0.0000000000000000 [Eh]
	 Same-Spin Energy          =      -0.3506510245910299 [Eh]
	 Opposite-Spin Energy      =      -1.2499083017454524 [Eh]
	 Correlation Energy        =      -1.6005593263364823 [Eh]
	 Total Energy              =    -329.9519580174698490 [Eh]

	 ================> DF-SCS-MP2 Energies <==================
	-----------------------------------------------------------
	 SCS Same-Spin Scale       =       0.3333333333333333 [-]
	 SCS Opposite-Spin Scale   =       1.2000000000000000 [-]
	 SCS Same-Spin Energy      =      -0.1168836748636766 [Eh]
	 SCS Opposite-Spin Energy  =      -1.4998899620945430 [Eh]
	 SCS Correlation Energy    =      -1.6167736369582195 [Eh]
	 SCS Total Energy          =    -329.9681723280915548 [Eh]
	-----------------------------------------------------------

  Dipole Moment: [D]
     X:     0.3650      Y:     1.7538      Z:     0.5728     Total:     1.8807

*** Psi4 exiting successfully. Buy a developer a beer!
