                               Psi4 1.3.2 release

  ==> Input File <==

--------------------------------------------------------------------------
#psi4
#
memory 32 gb

molecule  {
0 1
  N       -0.5109270    -0.9518430    -0.0269340
  C        0.4680123    -0.1069331     0.0018695
  C        1.7238140    -0.5084530    -0.7342290
  C        0.4670650     1.2778240     0.6138280
  C        2.7894260    -0.9991790     0.2510720
  C       -0.1640310     2.3214140    -0.3160410
  C       -1.7763620    -0.6501130     0.6316150
  C       -2.8974570    -0.7179310    -0.4005860
  H        2.1129470     0.3411750    -1.3109330
  H        1.4703830    -1.3072380    -1.4363190
  H       -0.0513810     1.2722970     1.5772600
  H        1.5049820     1.5584610     0.8223980
  H        3.0556910    -0.2252510     0.9773740
  H        2.4162060    -1.8680970     0.7997060
  H        3.7027550    -1.2914870    -0.2753070
  H        0.3474740     2.3390420    -1.2828520
  H       -0.0995980     3.3230440     0.1193210
  H       -1.2176240     2.0946990    -0.4987850
  H       -1.9345560    -1.4260300     1.3901820
  H       -1.8022440     0.3193480     1.1465960
  H       -3.8733410    -0.5778450     0.0742730
  H       -2.7667840     0.0602240    -1.1578580
  H       -2.8841180    -1.6872020    -0.9036440
units angstrom
no_reorient  #important for SAPT in psi4, default
symmetry c1  #important for SAPT in psi4, default
}

set PROPERTIES_ORIGIN ["COM"]
properties('MP2/aug-cc-pvtz', properties = ['dipole'])
--------------------------------------------------------------------------

    Molecular point group: c1
  Charge       = 0
  Multiplicity = 1
  Basis Set: AUG-CC-PVTZ
    Blend: AUG-CC-PVTZ
  Basis Set: (AUG-CC-PVTZ AUX)
    Blend: AUG-CC-PVTZ-JKFIT

    Orbital Energies [Eh]
    ---------------------

    Doubly Occupied:

       1A    -15.539247     2A    -11.272779     3A    -11.240645
       4A    -11.234173     5A    -11.227171     6A    -11.221461
       7A    -11.216948     8A    -11.206571     9A     -1.214433
      10A     -1.066981    11A     -1.027090    12A     -0.992368
      13A     -0.891945    14A     -0.858635    15A     -0.820589
      16A     -0.704801    17A     -0.662604    18A     -0.642793
      19A     -0.598955    20A     -0.592055    21A     -0.590009
      22A     -0.557871    23A     -0.540584    24A     -0.522439
      25A     -0.519843    26A     -0.511338    27A     -0.508895
      28A     -0.488066    29A     -0.482380    30A     -0.470405
      31A     -0.380274    32A     -0.377241

  @DF-RHF Final Energy:  -328.35829995785542

   => Energetics <=

    Nuclear Repulsion Energy =            388.7464303581019180
    One-Electron Energy =               -1213.8462849063680551
    Two-Electron Energy =                 496.7415545904107717
    Total Energy =                       -328.3582999578554222
  Basis Set: (AUG-CC-PVTZ AUX)
    Blend: AUG-CC-PVTZ-RI
    Molecular point group: c1

    Geometry (in Angstrom), charge = 0, multiplicity = 1:

       Center              X                  Y                   Z               Mass
    ------------   -----------------  -----------------  -----------------  -----------------
         N           -0.512268054651    -0.925489216327    -0.029010717835    14.003074004430
         C            0.466671245349    -0.080579316327    -0.000207217835    12.000000000000
         C            1.722472945349    -0.482099216327    -0.736305717835    12.000000000000
         C            0.465723945349     1.304177783673     0.611751282165    12.000000000000
         C            2.788084945349    -0.972825216327     0.248995282165    12.000000000000
         C           -0.165372054651     2.347767783673    -0.318117717835    12.000000000000
         C           -1.777703054651    -0.623759216327     0.629538282165    12.000000000000
         C           -2.898798054651    -0.691577216327    -0.402662717835    12.000000000000
         H            2.111605945349     0.367528783673    -1.313009717835     1.007825032230
         H            1.469041945349    -1.280884216327    -1.438395717835     1.007825032230
         H           -0.052722054651     1.298650783673     1.575183282165     1.007825032230
         H            1.503640945349     1.584814783673     0.820321282165     1.007825032230
         H            3.054349945349    -0.198897216327     0.975297282165     1.007825032230
         H            2.414864945349    -1.841743216327     0.797629282165     1.007825032230
         H            3.701413945349    -1.265133216327    -0.277383717835     1.007825032230
         H            0.346132945349     2.365395783673    -1.284928717835     1.007825032230
         H           -0.100939054651     3.349397783673     0.117244282165     1.007825032230
         H           -1.218965054651     2.121052783673    -0.500861717835     1.007825032230
         H           -1.935897054651    -1.399676216327     1.388105282165     1.007825032230
         H           -1.803585054651     0.345701783673     1.144519282165     1.007825032230
         H           -3.874682054651    -0.551491216327     0.072196282165     1.007825032230
         H           -2.768125054651     0.086577783673    -1.159934717835     1.007825032230
         H           -2.885459054651    -1.660848216327    -0.905720717835     1.007825032230

  Basis Set: AUG-CC-PVTZ
    Blend: AUG-CC-PVTZ
  Basis Set: (AUG-CC-PVTZ AUX)
    Blend: AUG-CC-PVTZ-JKFIT
	 Reference Energy          =    -328.3582999578554222 [Eh]
	 Singles Energy            =      -0.0000000000000000 [Eh]
	 Same-Spin Energy          =      -0.3499834604825668 [Eh]
	 Opposite-Spin Energy      =      -1.2482982352912795 [Eh]
	 Correlation Energy        =      -1.5982816957738462 [Eh]
	 Total Energy              =    -329.9565816536292573 [Eh]

	 ================> DF-SCS-MP2 Energies <==================
	-----------------------------------------------------------
	 SCS Same-Spin Scale       =       0.3333333333333333 [-]
	 SCS Opposite-Spin Scale   =       1.2000000000000000 [-]
	 SCS Same-Spin Energy      =      -0.1166611534941889 [Eh]
	 SCS Opposite-Spin Energy  =      -1.4979578823495354 [Eh]
	 SCS Correlation Energy    =      -1.6146190358437242 [Eh]
	 SCS Total Energy          =    -329.9729189936991247 [Eh]
	-----------------------------------------------------------

  Dipole Moment: [D]
     X:     0.3866      Y:     1.7200      Z:     0.6048     Total:     1.8637

*** Psi4 exiting successfully. Buy a developer a beer!
