                               Psi4 1.3.2 release

  ==> Input File <==

--------------------------------------------------------------------------
#psi4
#
memory 32 gb

molecule  {
0 1
  N       -0.5109270    -0.9518430    -0.0269340
  C        0.4568270    -0.1006020    -0.0211380
  C        1.6769696    -0.6000024    -0.7573095
  C        0.4670650     1.2778240     0.6138280
  C        2.7894260    -0.9991790     0.2510720
  C       -0.1640310     2.3214140    -0.3160410
  C       -1.7763620    -0.6501130     0.6316150
  C       -2.8974570    -0.7179310    -0.4005860
  H        2.1129470     0.3411750    -1.3109330
  H        1.4703830    -1.3072380    -1.4363190
  H       -0.0513810     1.2722970     1.5772600
  H        1.5049820     1.5584610     0.8223980
  H        3.0556910    -0.2252510     0.9773740
  H        2.4162060    -1.8680970     0.7997060
  H        3.7027550    -1.2914870    -0.2753070
  H        0.3474740     2.3390420    -1.2828520
  H       -0.0995980     3.3230440     0.1193210
  H       -1.2176240     2.0946990    -0.4987850
  H       -1.9345560    -1.4260300     1.3901820
  H       -1.8022440     0.3193480     1.1465960
  H       -3.8733410    -0.5778450     0.0742730
  H       -2.7667840     0.0602240    -1.1578580
  H       -2.8841180    -1.6872020    -0.9036440
units angstrom
no_reorient  #important for SAPT in psi4, default
symmetry c1  #important for SAPT in psi4, default
}

set PROPERTIES_ORIGIN ["COM"]
properties('MP2/aug-cc-pvtz', properties = ['dipole'])
--------------------------------------------------------------------------

    Molecular point group: c1
  Charge       = 0
  Multiplicity = 1
  Basis Set: AUG-CC-PVTZ
    Blend: AUG-CC-PVTZ
  Basis Set: (AUG-CC-PVTZ AUX)
    Blend: AUG-CC-PVTZ-JKFIT

    Orbital Energies [Eh]
    ---------------------

    Doubly Occupied:

       1A    -15.537262     2A    -11.272369     3A    -11.239548
       4A    -11.236645     5A    -11.226919     6A    -11.222678
       7A    -11.218479     8A    -11.206291     9A     -1.216634
      10A     -1.064280    11A     -1.027834    12A     -0.991057
      13A     -0.890133    14A     -0.862349    15A     -0.820725
      16A     -0.708343    17A     -0.667142    18A     -0.640096
      19A     -0.597932    20A     -0.594394    21A     -0.584295
      22A     -0.559908    23A     -0.539608    24A     -0.526288
      25A     -0.520099    26A     -0.512627    27A     -0.509091
      28A     -0.489550    29A     -0.482166    30A     -0.464094
      31A     -0.379818    32A     -0.376216

  @DF-RHF Final Energy:  -328.34604719513271

   => Energetics <=

    Nuclear Repulsion Energy =            388.6716867622955078
    One-Electron Energy =               -1213.6657255386298857
    Two-Electron Energy =                 496.6479915812016657
    Total Energy =                       -328.3460471951327122
  Basis Set: (AUG-CC-PVTZ AUX)
    Blend: AUG-CC-PVTZ-RI
    Molecular point group: c1

    Geometry (in Angstrom), charge = 0, multiplicity = 1:

       Center              X                  Y                   Z               Mass
    ------------   -----------------  -----------------  -----------------  -----------------
         N           -0.506112170342    -0.916449121414    -0.024121628352    14.003074004430
         C            0.461641829658    -0.065208121414    -0.018325628352    12.000000000000
         C            1.681784429658    -0.564608521414    -0.754497128352    12.000000000000
         C            0.471879829658     1.313217878586     0.616640371648    12.000000000000
         C            2.794240829658    -0.963785121414     0.253884371648    12.000000000000
         C           -0.159216170342     2.356807878586    -0.313228628352    12.000000000000
         C           -1.771547170342    -0.614719121414     0.634427371648    12.000000000000
         C           -2.892642170342    -0.682537121414    -0.397773628352    12.000000000000
         H            2.117761829658     0.376568878586    -1.308120628352     1.007825032230
         H            1.475197829658    -1.271844121414    -1.433506628352     1.007825032230
         H           -0.046566170342     1.307690878586     1.580072371648     1.007825032230
         H            1.509796829658     1.593854878586     0.825210371648     1.007825032230
         H            3.060505829658    -0.189857121414     0.980186371648     1.007825032230
         H            2.421020829658    -1.832703121414     0.802518371648     1.007825032230
         H            3.707569829658    -1.256093121414    -0.272494628352     1.007825032230
         H            0.352288829658     2.374435878586    -1.280039628352     1.007825032230
         H           -0.094783170342     3.358437878586     0.122133371648     1.007825032230
         H           -1.212809170342     2.130092878586    -0.495972628352     1.007825032230
         H           -1.929741170342    -1.390636121414     1.392994371648     1.007825032230
         H           -1.797429170342     0.354741878586     1.149408371648     1.007825032230
         H           -3.868526170342    -0.542451121414     0.077085371648     1.007825032230
         H           -2.761969170342     0.095617878586    -1.155045628352     1.007825032230
         H           -2.879303170342    -1.651808121414    -0.900831628352     1.007825032230

  Basis Set: AUG-CC-PVTZ
    Blend: AUG-CC-PVTZ
  Basis Set: (AUG-CC-PVTZ AUX)
    Blend: AUG-CC-PVTZ-JKFIT
	 Reference Energy          =    -328.3460471951327122 [Eh]
	 Singles Energy            =      -0.0000000000000000 [Eh]
	 Same-Spin Energy          =      -0.3498635798041488 [Eh]
	 Opposite-Spin Energy      =      -1.2484109946552207 [Eh]
	 Correlation Energy        =      -1.5982745744593694 [Eh]
	 Total Energy              =    -329.9443217695920794 [Eh]

	 ================> DF-SCS-MP2 Energies <==================
	-----------------------------------------------------------
	 SCS Same-Spin Scale       =       0.3333333333333333 [-]
	 SCS Opposite-Spin Scale   =       1.2000000000000000 [-]
	 SCS Same-Spin Energy      =      -0.1166211932680496 [Eh]
	 SCS Opposite-Spin Energy  =      -1.4980931935862647 [Eh]
	 SCS Correlation Energy    =      -1.6147143868543143 [Eh]
	 SCS Total Energy          =    -329.9607615819870148 [Eh]
	-----------------------------------------------------------

  Dipole Moment: [D]
     X:     0.3931      Y:     1.6830      Z:     0.6370     Total:     1.8419

*** Psi4 exiting successfully. Buy a developer a beer!
