                               Psi4 1.4a3.dev225

  ==> Input File <==

--------------------------------------------------------------------------
#psi4
#
memory 32 gb

molecule  {
0 1
  N       -0.5109430    -0.9518430    -0.0269260
  C        0.4192809    -0.1336381    -0.0213693
  C        1.7237990    -0.5085590    -0.7342300
  C        0.4670880     1.2778150     0.6137790
  C        2.7894950    -0.9990730     0.2510970
  C       -0.1640680     2.3213990    -0.3160610
  C       -1.7763790    -0.6500710     0.6316310
  C       -2.8974700    -0.7179400    -0.4005630
  H        2.1128780     0.3409680    -1.3111240
  H        1.4703470    -1.3074830    -1.4361490
  H       -0.0513130     1.2723030     1.5772340
  H        1.5050160     1.5584520     0.8222760
  H        3.0557420    -0.2250230     0.9772740
  H        2.4163470    -1.8679380     0.7998630
  H        3.7028160    -1.2913930    -0.2752870
  H        0.3476260     2.3392860    -1.2827640
  H       -0.0999350     3.3229720     0.1194750
  H       -1.2175750     2.0944730    -0.4990280
  H       -1.9345660    -1.4259490     1.3902370
  H       -1.8022330     0.3194130     1.1465770
  H       -3.8733550    -0.5777970     0.0742800
  H       -2.7667810     0.0601400    -1.1579070
  H       -2.8841480    -1.6872580    -0.9035300
units angstrom
no_reorient  #important for SAPT in psi4, default
symmetry c1  #important for SAPT in psi4, default
}

set PROPERTIES_ORIGIN ["COM"]
properties('MP2/aug-cc-pvtz', properties = ['dipole'])
--------------------------------------------------------------------------

    Molecular point group: c1
  Charge       = 0
  Multiplicity = 1
  Basis Set: AUG-CC-PVTZ
    Blend: AUG-CC-PVTZ
  Basis Set: (AUG-CC-PVTZ AUX)
    Blend: AUG-CC-PVTZ-JKFIT

    Orbital Energies [Eh]
    ---------------------

    Doubly Occupied:

       1A    -15.535265     2A    -11.267255     3A    -11.243245
       4A    -11.233168     5A    -11.225175     6A    -11.219883
       7A    -11.216049     8A    -11.208212     9A     -1.233396
      10A     -1.061553    11A     -1.024140    12A     -0.998418
      13A     -0.887223    14A     -0.856037    15A     -0.824219
      16A     -0.703082    17A     -0.659460    18A     -0.644247
      19A     -0.601452    20A     -0.591352    21A     -0.588352
      22A     -0.559940    23A     -0.539085    24A     -0.522190
      25A     -0.520025    26A     -0.511863    27A     -0.508748
      28A     -0.489244    29A     -0.481709    30A     -0.469100
      31A     -0.393838    32A     -0.372847

  @DF-RHF Final Energy:  -328.35960561883189

   => Energetics <=

    Nuclear Repulsion Energy =            389.0753737401491890
    One-Electron Energy =               -1214.4904144669237667
    Two-Electron Energy =                 497.0554351079426851
    Total Energy =                       -328.3596056188318926
  Basis Set: (AUG-CC-PVTZ AUX)
    Blend: AUG-CC-PVTZ-RI
    Molecular point group: c1

    Geometry (in Angstrom), charge = 0, multiplicity = 1:

       Center              X                  Y                   Z               Mass
    ------------   -----------------  -----------------  -----------------  -----------------
         N           -0.507114288506    -0.922657493168    -0.026537995857    14.003074004430
         C            0.423109611494    -0.104452593168    -0.020981295857    12.000000000000
         C            1.727627711494    -0.479373493168    -0.733841995857    12.000000000000
         C            0.470916711494     1.307000506832     0.614167004143    12.000000000000
         C            2.793323711494    -0.969887493168     0.251485004143    12.000000000000
         C           -0.160239288506     2.350584506832    -0.315672995857    12.000000000000
         C           -1.772550288506    -0.620885493168     0.632019004143    12.000000000000
         C           -2.893641288506    -0.688754493168    -0.400174995857    12.000000000000
         H            2.116706711494     0.370153506832    -1.310735995857     1.007825032230
         H            1.474175711494    -1.278297493168    -1.435760995857     1.007825032230
         H           -0.047484288506     1.301488506832     1.577622004143     1.007825032230
         H            1.508844711494     1.587637506832     0.822664004143     1.007825032230
         H            3.059570711494    -0.195837493168     0.977662004143     1.007825032230
         H            2.420175711494    -1.838752493168     0.800251004143     1.007825032230
         H            3.706644711494    -1.262207493168    -0.274898995857     1.007825032230
         H            0.351454711494     2.368471506832    -1.282375995857     1.007825032230
         H           -0.096106288506     3.352157506832     0.119863004143     1.007825032230
         H           -1.213746288506     2.123658506832    -0.498639995857     1.007825032230
         H           -1.930737288506    -1.396763493168     1.390625004143     1.007825032230
         H           -1.798404288506     0.348598506832     1.146965004143     1.007825032230
         H           -3.869526288506    -0.548611493168     0.074668004143     1.007825032230
         H           -2.762952288506     0.089325506832    -1.157518995857     1.007825032230
         H           -2.880319288506    -1.658072493168    -0.903141995857     1.007825032230

  Basis Set: AUG-CC-PVTZ
    Blend: AUG-CC-PVTZ
  Basis Set: (AUG-CC-PVTZ AUX)
    Blend: AUG-CC-PVTZ-JKFIT
	 Reference Energy          =    -328.3596056188318926 [Eh]
	 Singles Energy            =      -0.0000000000000000 [Eh]
	 Same-Spin Energy          =      -0.3486062959535206 [Eh]
	 Opposite-Spin Energy      =      -1.2456108239669714 [Eh]
	 Correlation Energy        =      -1.5942171199204920 [Eh]
	 Total Energy              =    -329.9538227387523648 [Eh]

	 ================> DF-SCS-MP2 Energies <==================
	-----------------------------------------------------------
	 SCS Same-Spin Scale       =       0.3333333333333333 [-]
	 SCS Opposite-Spin Scale   =       1.2000000000000000 [-]
	 SCS Same-Spin Energy      =      -0.1162020986511735 [Eh]
	 SCS Opposite-Spin Energy  =      -1.4947329887603658 [Eh]
	 SCS Correlation Energy    =      -1.6109350874115393 [Eh]
	 SCS Total Energy          =    -329.9705407062434119 [Eh]
	-----------------------------------------------------------

  Dipole Moment: [D]
     X:     0.2663      Y:     1.6162      Z:     0.6244     Total:     1.7530

*** Psi4 exiting successfully. Buy a developer a beer!
