                               Psi4 1.3.2 release

  ==> Input File <==

--------------------------------------------------------------------------
#psi4
#
memory 32 gb

molecule  {
0 1
  N       -0.5109270    -0.9518430    -0.0269340
  C        0.3757653    -0.0196204     0.0500754
  C        1.7238140    -0.5084530    -0.7342290
  C        0.4670650     1.2778240     0.6138280
  C        2.7894260    -0.9991790     0.2510720
  C       -0.1640310     2.3214140    -0.3160410
  C       -1.7763620    -0.6501130     0.6316150
  C       -2.8974570    -0.7179310    -0.4005860
  H        2.1129470     0.3411750    -1.3109330
  H        1.4703830    -1.3072380    -1.4363190
  H       -0.0513810     1.2722970     1.5772600
  H        1.5049820     1.5584610     0.8223980
  H        3.0556910    -0.2252510     0.9773740
  H        2.4162060    -1.8680970     0.7997060
  H        3.7027550    -1.2914870    -0.2753070
  H        0.3474740     2.3390420    -1.2828520
  H       -0.0995980     3.3230440     0.1193210
  H       -1.2176240     2.0946990    -0.4987850
  H       -1.9345560    -1.4260300     1.3901820
  H       -1.8022440     0.3193480     1.1465960
  H       -3.8733410    -0.5778450     0.0742730
  H       -2.7667840     0.0602240    -1.1578580
  H       -2.8841180    -1.6872020    -0.9036440
units angstrom
no_reorient  #important for SAPT in psi4, default
symmetry c1  #important for SAPT in psi4, default
}

set PROPERTIES_ORIGIN ["COM"]
properties('MP2/aug-cc-pvtz', properties = ['dipole'])
--------------------------------------------------------------------------

    Molecular point group: c1
  Charge       = 0
  Multiplicity = 1
  Basis Set: AUG-CC-PVTZ
    Blend: AUG-CC-PVTZ
  Basis Set: (AUG-CC-PVTZ AUX)
    Blend: AUG-CC-PVTZ-JKFIT

    Orbital Energies [Eh]
    ---------------------

    Doubly Occupied:

       1A    -15.542516     2A    -11.273572     3A    -11.238304
       4A    -11.234600     5A    -11.231876     6A    -11.221082
       7A    -11.212524     8A    -11.206484     9A     -1.221845
      10A     -1.074602    11A     -1.022195    12A     -0.990600
      13A     -0.899239    14A     -0.855458    15A     -0.814008
      16A     -0.709568    17A     -0.664869    18A     -0.645278
      19A     -0.605594    20A     -0.590496    21A     -0.582224
      22A     -0.559729    23A     -0.542856    24A     -0.527005
      25A     -0.522485    26A     -0.509956    27A     -0.504521
      28A     -0.491983    29A     -0.480372    30A     -0.451966
      31A     -0.382099    32A     -0.379317

  @DF-RHF Final Energy:  -328.33942611016261

   => Energetics <=

    Nuclear Repulsion Energy =            389.1317069718291464
    One-Electron Energy =               -1214.5638194051302889
    Two-Electron Energy =                 497.0926863231385937
    Total Energy =                       -328.3394261101626057
  Basis Set: (AUG-CC-PVTZ AUX)
    Blend: AUG-CC-PVTZ-RI
    Molecular point group: c1

    Geometry (in Angstrom), charge = 0, multiplicity = 1:

       Center              X                  Y                   Z               Mass
    ------------   -----------------  -----------------  -----------------  -----------------
         N           -0.502482343889    -0.934751488575    -0.034124477572    14.003074004430
         C            0.384209956111    -0.002528888575     0.042884922428    12.000000000000
         C            1.732258656111    -0.491361488575    -0.741419477572    12.000000000000
         C            0.475509656111     1.294915511425     0.606637522428    12.000000000000
         C            2.797870656111    -0.982087488575     0.243881522428    12.000000000000
         C           -0.155586343889     2.338505511425    -0.323231477572    12.000000000000
         C           -1.767917343889    -0.633021488575     0.624424522428    12.000000000000
         C           -2.889012343889    -0.700839488575    -0.407776477572    12.000000000000
         H            2.121391656111     0.358266511425    -1.318123477572     1.007825032230
         H            1.478827656111    -1.290146488575    -1.443509477572     1.007825032230
         H           -0.042936343889     1.289388511425     1.570069522428     1.007825032230
         H            1.513426656111     1.575552511425     0.815207522428     1.007825032230
         H            3.064135656111    -0.208159488575     0.970183522428     1.007825032230
         H            2.424650656111    -1.851005488575     0.792515522428     1.007825032230
         H            3.711199656111    -1.274395488575    -0.282497477572     1.007825032230
         H            0.355918656111     2.356133511425    -1.290042477572     1.007825032230
         H           -0.091153343889     3.340135511425     0.112130522428     1.007825032230
         H           -1.209179343889     2.111790511425    -0.505975477572     1.007825032230
         H           -1.926111343889    -1.408938488575     1.382991522428     1.007825032230
         H           -1.793799343889     0.336439511425     1.139405522428     1.007825032230
         H           -3.864896343889    -0.560753488575     0.067082522428     1.007825032230
         H           -2.758339343889     0.077315511425    -1.165048477572     1.007825032230
         H           -2.875673343889    -1.670110488575    -0.910834477572     1.007825032230

  Basis Set: AUG-CC-PVTZ
    Blend: AUG-CC-PVTZ
  Basis Set: (AUG-CC-PVTZ AUX)
    Blend: AUG-CC-PVTZ-JKFIT
	 Reference Energy          =    -328.3394261101626057 [Eh]
	 Singles Energy            =      -0.0000000000000000 [Eh]
	 Same-Spin Energy          =      -0.3508828320448245 [Eh]
	 Opposite-Spin Energy      =      -1.2501418750640960 [Eh]
	 Correlation Energy        =      -1.6010247071089205 [Eh]
	 Total Energy              =    -329.9404508172715396 [Eh]

	 ================> DF-SCS-MP2 Energies <==================
	-----------------------------------------------------------
	 SCS Same-Spin Scale       =       0.3333333333333333 [-]
	 SCS Opposite-Spin Scale   =       1.2000000000000000 [-]
	 SCS Same-Spin Energy      =      -0.1169609440149415 [Eh]
	 SCS Opposite-Spin Energy  =      -1.5001702500769152 [Eh]
	 SCS Correlation Energy    =      -1.6171311940918567 [Eh]
	 SCS Total Energy          =    -329.9565573042544884 [Eh]
	-----------------------------------------------------------

  Dipole Moment: [D]
     X:     0.1408      Y:     1.9581      Z:     0.7403     Total:     2.0981

*** Psi4 exiting successfully. Buy a developer a beer!
