                               Psi4 1.3.2 release

  ==> Input File <==

--------------------------------------------------------------------------
#psi4
#
memory 32 gb

molecule  {
0 1
  N       -0.5355932    -0.9227744    -0.0030488
  C        0.4568270    -0.1006020    -0.0211380
  C        1.7238140    -0.5084530    -0.7342290
  C        0.4670650     1.2778240     0.6138280
  C        2.7894260    -0.9991790     0.2510720
  C       -0.1640310     2.3214140    -0.3160410
  C       -1.7763620    -0.6501130     0.6316150
  C       -2.8974570    -0.7179310    -0.4005860
  H        2.1129470     0.3411750    -1.3109330
  H        1.4703830    -1.3072380    -1.4363190
  H       -0.0513810     1.2722970     1.5772600
  H        1.5049820     1.5584610     0.8223980
  H        3.0556910    -0.2252510     0.9773740
  H        2.4162060    -1.8680970     0.7997060
  H        3.7027550    -1.2914870    -0.2753070
  H        0.3474740     2.3390420    -1.2828520
  H       -0.0995980     3.3230440     0.1193210
  H       -1.2176240     2.0946990    -0.4987850
  H       -1.9345560    -1.4260300     1.3901820
  H       -1.8022440     0.3193480     1.1465960
  H       -3.8733410    -0.5778450     0.0742730
  H       -2.7667840     0.0602240    -1.1578580
  H       -2.8841180    -1.6872020    -0.9036440
units angstrom
no_reorient  #important for SAPT in psi4, default
symmetry c1  #important for SAPT in psi4, default
}

set PROPERTIES_ORIGIN ["COM"]
properties('MP2/aug-cc-pvtz', properties = ['dipole'])
--------------------------------------------------------------------------

    Molecular point group: c1
  Charge       = 0
  Multiplicity = 1
  Basis Set: AUG-CC-PVTZ
    Blend: AUG-CC-PVTZ
  Basis Set: (AUG-CC-PVTZ AUX)
    Blend: AUG-CC-PVTZ-JKFIT

    Orbital Energies [Eh]
    ---------------------

    Doubly Occupied:

       1A    -15.535185     2A    -11.273218     3A    -11.238998
       4A    -11.232066     5A    -11.225674     6A    -11.223220
       7A    -11.218229     8A    -11.206508     9A     -1.220950
      10A     -1.069740    11A     -1.026240    12A     -0.992762
      13A     -0.893486    14A     -0.857779    15A     -0.824075
      16A     -0.705877    17A     -0.664151    18A     -0.644495
      19A     -0.599665    20A     -0.593365    21A     -0.590671
      22A     -0.560274    23A     -0.539404    24A     -0.522764
      25A     -0.520121    26A     -0.513629    27A     -0.509065
      28A     -0.488180    29A     -0.484227    30A     -0.472373
      31A     -0.376487    32A     -0.373703

  @DF-RHF Final Energy:  -328.35878687274680

   => Energetics <=

    Nuclear Repulsion Energy =            389.3500644889557520
    One-Electron Energy =               -1215.0245384651559561
    Two-Electron Energy =                 497.3156871034534561
    Total Energy =                       -328.3587868727468049
  Basis Set: (AUG-CC-PVTZ AUX)
    Blend: AUG-CC-PVTZ-RI
    Molecular point group: c1

    Geometry (in Angstrom), charge = 0, multiplicity = 1:

       Center              X                  Y                   Z               Mass
    ------------   -----------------  -----------------  -----------------  -----------------
         N           -0.532694294271    -0.900690604284    -0.005641571506    14.003074004430
         C            0.459725905729    -0.078518204284    -0.023730771506    12.000000000000
         C            1.726712905729    -0.486369204284    -0.736821771506    12.000000000000
         C            0.469963905729     1.299907795716     0.611235228494    12.000000000000
         C            2.792324905729    -0.977095204284     0.248479228494    12.000000000000
         C           -0.161132094271     2.343497795716    -0.318633771506    12.000000000000
         C           -1.773463094271    -0.628029204284     0.629022228494    12.000000000000
         C           -2.894558094271    -0.695847204284    -0.403178771506    12.000000000000
         H            2.115845905729     0.363258795716    -1.313525771506     1.007825032230
         H            1.473281905729    -1.285154204284    -1.438911771506     1.007825032230
         H           -0.048482094271     1.294380795716     1.574667228494     1.007825032230
         H            1.507880905729     1.580544795716     0.819805228494     1.007825032230
         H            3.058589905729    -0.203167204284     0.974781228494     1.007825032230
         H            2.419104905729    -1.846013204284     0.797113228494     1.007825032230
         H            3.705653905729    -1.269403204284    -0.277899771506     1.007825032230
         H            0.350372905729     2.361125795716    -1.285444771506     1.007825032230
         H           -0.096699094271     3.345127795716     0.116728228494     1.007825032230
         H           -1.214725094271     2.116782795716    -0.501377771506     1.007825032230
         H           -1.931657094271    -1.403946204284     1.387589228494     1.007825032230
         H           -1.799345094271     0.341431795716     1.144003228494     1.007825032230
         H           -3.870442094271    -0.555761204284     0.071680228494     1.007825032230
         H           -2.763885094271     0.082307795716    -1.160450771506     1.007825032230
         H           -2.881219094271    -1.665118204284    -0.906236771506     1.007825032230

  Basis Set: AUG-CC-PVTZ
    Blend: AUG-CC-PVTZ
  Basis Set: (AUG-CC-PVTZ AUX)
    Blend: AUG-CC-PVTZ-JKFIT
	 Reference Energy          =    -328.3587868727468049 [Eh]
	 Singles Energy            =      -0.0000000000000000 [Eh]
	 Same-Spin Energy          =      -0.3499809344454362 [Eh]
	 Opposite-Spin Energy      =      -1.2474946583935631 [Eh]
	 Correlation Energy        =      -1.5974755928389992 [Eh]
	 Total Energy              =    -329.9562624655857803 [Eh]

	 ================> DF-SCS-MP2 Energies <==================
	-----------------------------------------------------------
	 SCS Same-Spin Scale       =       0.3333333333333333 [-]
	 SCS Opposite-Spin Scale   =       1.2000000000000000 [-]
	 SCS Same-Spin Energy      =      -0.1166603114818121 [Eh]
	 SCS Opposite-Spin Energy  =      -1.4969935900722757 [Eh]
	 SCS Correlation Energy    =      -1.6136539015540878 [Eh]
	 SCS Total Energy          =    -329.9724407743008783 [Eh]
	-----------------------------------------------------------

  Dipole Moment: [D]
     X:     0.4446      Y:     1.6099      Z:     0.5652     Total:     1.7633

*** Psi4 exiting successfully. Buy a developer a beer!
