                               Psi4 1.3.2 release

  ==> Input File <==

--------------------------------------------------------------------------
#psi4
#
memory 32 gb

molecule  {
0 1
  N       -0.5109270    -0.9518430    -0.0269340
  C        0.4568270    -0.1006020    -0.0211380
  C        1.7449346    -0.4619049    -0.7213783
  C        0.4670650     1.2778240     0.6138280
  C        2.7894260    -0.9991790     0.2510720
  C       -0.1640310     2.3214140    -0.3160410
  C       -1.7763620    -0.6501130     0.6316150
  C       -2.8974570    -0.7179310    -0.4005860
  H        2.1129470     0.3411750    -1.3109330
  H        1.4703830    -1.3072380    -1.4363190
  H       -0.0513810     1.2722970     1.5772600
  H        1.5049820     1.5584610     0.8223980
  H        3.0556910    -0.2252510     0.9773740
  H        2.4162060    -1.8680970     0.7997060
  H        3.7027550    -1.2914870    -0.2753070
  H        0.3474740     2.3390420    -1.2828520
  H       -0.0995980     3.3230440     0.1193210
  H       -1.2176240     2.0946990    -0.4987850
  H       -1.9345560    -1.4260300     1.3901820
  H       -1.8022440     0.3193480     1.1465960
  H       -3.8733410    -0.5778450     0.0742730
  H       -2.7667840     0.0602240    -1.1578580
  H       -2.8841180    -1.6872020    -0.9036440
units angstrom
no_reorient  #important for SAPT in psi4, default
symmetry c1  #important for SAPT in psi4, default
}

set PROPERTIES_ORIGIN ["COM"]
properties('MP2/aug-cc-pvtz', properties = ['dipole'])
--------------------------------------------------------------------------

    Molecular point group: c1
  Charge       = 0
  Multiplicity = 1
  Basis Set: AUG-CC-PVTZ
    Blend: AUG-CC-PVTZ
  Basis Set: (AUG-CC-PVTZ AUX)
    Blend: AUG-CC-PVTZ-JKFIT

    Orbital Energies [Eh]
    ---------------------

    Doubly Occupied:

       1A    -15.539755     2A    -11.272888     3A    -11.241630
       4A    -11.232975     5A    -11.226593     6A    -11.221906
       7A    -11.217406     8A    -11.206956     9A     -1.215737
      10A     -1.068062    11A     -1.026592    12A     -0.993760
      13A     -0.892629    14A     -0.856919    15A     -0.822581
      16A     -0.704949    17A     -0.660499    18A     -0.645119
      19A     -0.600585    20A     -0.592618    21A     -0.589396
      22A     -0.557277    23A     -0.540597    24A     -0.522892
      25A     -0.520309    26A     -0.516653    27A     -0.509248
      28A     -0.488653    29A     -0.478176    30A     -0.465649
      31A     -0.380186    32A     -0.378581

  @DF-RHF Final Energy:  -328.35559605130305

   => Energetics <=

    Nuclear Repulsion Energy =            388.8654090017665794
    One-Electron Energy =               -1214.0664595568587174
    Two-Electron Energy =                 496.8454545037890853
    Total Energy =                       -328.3555960513030527
  Basis Set: (AUG-CC-PVTZ AUX)
    Blend: AUG-CC-PVTZ-RI
    Molecular point group: c1

    Geometry (in Angstrom), charge = 0, multiplicity = 1:

       Center              X                  Y                   Z               Mass
    ------------   -----------------  -----------------  -----------------  -----------------
         N           -0.513322007323    -0.931098727276    -0.027933268086    14.003074004430
         C            0.454431992677    -0.079857727276    -0.022137268086    12.000000000000
         C            1.742539592677    -0.441160627276    -0.722377568086    12.000000000000
         C            0.464669992677     1.298568272724     0.612828731914    12.000000000000
         C            2.787030992677    -0.978434727276     0.250072731914    12.000000000000
         C           -0.166426007323     2.342158272724    -0.317040268086    12.000000000000
         C           -1.778757007323    -0.629368727276     0.630615731914    12.000000000000
         C           -2.899852007323    -0.697186727276    -0.401585268086    12.000000000000
         H            2.110551992677     0.361919272724    -1.311932268086     1.007825032230
         H            1.467987992677    -1.286493727276    -1.437318268086     1.007825032230
         H           -0.053776007323     1.293041272724     1.576260731914     1.007825032230
         H            1.502586992677     1.579205272724     0.821398731914     1.007825032230
         H            3.053295992677    -0.204506727276     0.976374731914     1.007825032230
         H            2.413810992677    -1.847352727276     0.798706731914     1.007825032230
         H            3.700359992677    -1.270742727276    -0.276306268086     1.007825032230
         H            0.345078992677     2.359786272724    -1.283851268086     1.007825032230
         H           -0.101993007323     3.343788272724     0.118321731914     1.007825032230
         H           -1.220019007323     2.115443272724    -0.499784268086     1.007825032230
         H           -1.936951007323    -1.405285727276     1.389182731914     1.007825032230
         H           -1.804639007323     0.340092272724     1.145596731914     1.007825032230
         H           -3.875736007323    -0.557100727276     0.073273731914     1.007825032230
         H           -2.769179007323     0.080968272724    -1.158857268086     1.007825032230
         H           -2.886513007323    -1.666457727276    -0.904643268086     1.007825032230

  Basis Set: AUG-CC-PVTZ
    Blend: AUG-CC-PVTZ
  Basis Set: (AUG-CC-PVTZ AUX)
    Blend: AUG-CC-PVTZ-JKFIT
	 Reference Energy          =    -328.3555960513030527 [Eh]
	 Singles Energy            =      -0.0000000000000000 [Eh]
	 Same-Spin Energy          =      -0.3500199282448220 [Eh]
	 Opposite-Spin Energy      =      -1.2483093462958328 [Eh]
	 Correlation Energy        =      -1.5983292745406548 [Eh]
	 Total Energy              =    -329.9539253258437270 [Eh]

	 ================> DF-SCS-MP2 Energies <==================
	-----------------------------------------------------------
	 SCS Same-Spin Scale       =       0.3333333333333333 [-]
	 SCS Opposite-Spin Scale   =       1.2000000000000000 [-]
	 SCS Same-Spin Energy      =      -0.1166733094149407 [Eh]
	 SCS Opposite-Spin Energy  =      -1.4979712155549993 [Eh]
	 SCS Correlation Energy    =      -1.6146445249699399 [Eh]
	 SCS Total Energy          =    -329.9702405762729995 [Eh]
	-----------------------------------------------------------

  Dipole Moment: [D]
     X:     0.3804      Y:     1.7134      Z:     0.6193     Total:     1.8612

*** Psi4 exiting successfully. Buy a developer a beer!
