                               Psi4 1.3.2 release

  ==> Input File <==

--------------------------------------------------------------------------
#psi4
#
memory 32 gb

molecule  {
0 1
  N       -0.5109270    -0.9518430    -0.0269340
  C        0.5139811    -0.0299024     0.0321853
  C        1.7238140    -0.5084530    -0.7342290
  C        0.4670650     1.2778240     0.6138280
  C        2.7894260    -0.9991790     0.2510720
  C       -0.1640310     2.3214140    -0.3160410
  C       -1.7763620    -0.6501130     0.6316150
  C       -2.8974570    -0.7179310    -0.4005860
  H        2.1129470     0.3411750    -1.3109330
  H        1.4703830    -1.3072380    -1.4363190
  H       -0.0513810     1.2722970     1.5772600
  H        1.5049820     1.5584610     0.8223980
  H        3.0556910    -0.2252510     0.9773740
  H        2.4162060    -1.8680970     0.7997060
  H        3.7027550    -1.2914870    -0.2753070
  H        0.3474740     2.3390420    -1.2828520
  H       -0.0995980     3.3230440     0.1193210
  H       -1.2176240     2.0946990    -0.4987850
  H       -1.9345560    -1.4260300     1.3901820
  H       -1.8022440     0.3193480     1.1465960
  H       -3.8733410    -0.5778450     0.0742730
  H       -2.7667840     0.0602240    -1.1578580
  H       -2.8841180    -1.6872020    -0.9036440
units angstrom
no_reorient  #important for SAPT in psi4, default
symmetry c1  #important for SAPT in psi4, default
}

set PROPERTIES_ORIGIN ["COM"]
properties('MP2/aug-cc-pvtz', properties = ['dipole'])
--------------------------------------------------------------------------

    Molecular point group: c1
  Charge       = 0
  Multiplicity = 1
  Basis Set: AUG-CC-PVTZ
    Blend: AUG-CC-PVTZ
  Basis Set: (AUG-CC-PVTZ AUX)
    Blend: AUG-CC-PVTZ-JKFIT

    Orbital Energies [Eh]
    ---------------------

    Doubly Occupied:

       1A    -15.544500     2A    -11.281014     3A    -11.236267
       4A    -11.234649     5A    -11.231406     6A    -11.224603
       7A    -11.217425     8A    -11.204182     9A     -1.192780
      10A     -1.076044    11A     -1.031825    12A     -0.981746
      13A     -0.901382    14A     -0.862726    15A     -0.812120
      16A     -0.708916    17A     -0.667377    18A     -0.642572
      19A     -0.600503    20A     -0.593341    21A     -0.585839
      22A     -0.558331    23A     -0.543083    24A     -0.524530
      25A     -0.521083    26A     -0.510909    27A     -0.507527
      28A     -0.488059    29A     -0.486457    30A     -0.461173
      31A     -0.388656    32A     -0.353131

  @DF-RHF Final Energy:  -328.33631508966801

   => Energetics <=

    Nuclear Repulsion Energy =            388.4494226427177637
    One-Electron Energy =               -1213.2231704123787495
    Two-Electron Energy =                 496.4374326799929804
    Total Energy =                       -328.3363150896680054
  Basis Set: (AUG-CC-PVTZ AUX)
    Blend: AUG-CC-PVTZ-RI
    Molecular point group: c1

    Geometry (in Angstrom), charge = 0, multiplicity = 1:

       Center              X                  Y                   Z               Mass
    ------------   -----------------  -----------------  -----------------  -----------------
         N           -0.517144499206    -0.933660757407    -0.032226666867    14.003074004430
         C            0.507763600794    -0.011720157407     0.026892633133    12.000000000000
         C            1.717596500794    -0.490270757407    -0.739521666867    12.000000000000
         C            0.460847500794     1.296006242593     0.608535333133    12.000000000000
         C            2.783208500794    -0.980996757407     0.245779333133    12.000000000000
         C           -0.170248499206     2.339596242593    -0.321333666867    12.000000000000
         C           -1.782579499206    -0.631930757407     0.626322333133    12.000000000000
         C           -2.903674499206    -0.699748757407    -0.405878666867    12.000000000000
         H            2.106729500794     0.359357242593    -1.316225666867     1.007825032230
         H            1.464165500794    -1.289055757407    -1.441611666867     1.007825032230
         H           -0.057598499206     1.290479242593     1.571967333133     1.007825032230
         H            1.498764500794     1.576643242593     0.817105333133     1.007825032230
         H            3.049473500794    -0.207068757407     0.972081333133     1.007825032230
         H            2.409988500794    -1.849914757407     0.794413333133     1.007825032230
         H            3.696537500794    -1.273304757407    -0.280599666867     1.007825032230
         H            0.341256500794     2.357224242593    -1.288144666867     1.007825032230
         H           -0.105815499206     3.341226242593     0.114028333133     1.007825032230
         H           -1.223841499206     2.112881242593    -0.504077666867     1.007825032230
         H           -1.940773499206    -1.407847757407     1.384889333133     1.007825032230
         H           -1.808461499206     0.337530242593     1.141303333133     1.007825032230
         H           -3.879558499206    -0.559662757407     0.068980333133     1.007825032230
         H           -2.773001499206     0.078406242593    -1.163150666867     1.007825032230
         H           -2.890335499206    -1.669019757407    -0.908936666867     1.007825032230

  Basis Set: AUG-CC-PVTZ
    Blend: AUG-CC-PVTZ
  Basis Set: (AUG-CC-PVTZ AUX)
    Blend: AUG-CC-PVTZ-JKFIT
	 Reference Energy          =    -328.3363150896680054 [Eh]
	 Singles Energy            =      -0.0000000000000000 [Eh]
	 Same-Spin Energy          =      -0.3530770125062341 [Eh]
	 Opposite-Spin Energy      =      -1.2540669309467321 [Eh]
	 Correlation Energy        =      -1.6071439434529662 [Eh]
	 Total Energy              =    -329.9434590331209733 [Eh]

	 ================> DF-SCS-MP2 Energies <==================
	-----------------------------------------------------------
	 SCS Same-Spin Scale       =       0.3333333333333333 [-]
	 SCS Opposite-Spin Scale   =       1.2000000000000000 [-]
	 SCS Same-Spin Energy      =      -0.1176923375020780 [Eh]
	 SCS Opposite-Spin Energy  =      -1.5048803171360785 [Eh]
	 SCS Correlation Energy    =      -1.6225726546381565 [Eh]
	 SCS Total Energy          =    -329.9588877443061392 [Eh]
	-----------------------------------------------------------

  Dipole Moment: [D]
     X:     0.4529      Y:     1.8968      Z:     0.6137     Total:     2.0444

*** Psi4 exiting successfully. Buy a developer a beer!
