                               Psi4 1.3.2 release

  ==> Input File <==

--------------------------------------------------------------------------
#psi4
#
memory 32 gb

molecule  {
0 1
  N       -0.5109270    -0.9518430    -0.0269340
  C        0.4568270    -0.1006020    -0.0211380
  C        1.6399075    -0.4814430    -0.6870044
  C        0.4670650     1.2778240     0.6138280
  C        2.7894260    -0.9991790     0.2510720
  C       -0.1640310     2.3214140    -0.3160410
  C       -1.7763620    -0.6501130     0.6316150
  C       -2.8974570    -0.7179310    -0.4005860
  H        2.1129470     0.3411750    -1.3109330
  H        1.4703830    -1.3072380    -1.4363190
  H       -0.0513810     1.2722970     1.5772600
  H        1.5049820     1.5584610     0.8223980
  H        3.0556910    -0.2252510     0.9773740
  H        2.4162060    -1.8680970     0.7997060
  H        3.7027550    -1.2914870    -0.2753070
  H        0.3474740     2.3390420    -1.2828520
  H       -0.0995980     3.3230440     0.1193210
  H       -1.2176240     2.0946990    -0.4987850
  H       -1.9345560    -1.4260300     1.3901820
  H       -1.8022440     0.3193480     1.1465960
  H       -3.8733410    -0.5778450     0.0742730
  H       -2.7667840     0.0602240    -1.1578580
  H       -2.8841180    -1.6872020    -0.9036440
units angstrom
no_reorient  #important for SAPT in psi4, default
symmetry c1  #important for SAPT in psi4, default
}

set PROPERTIES_ORIGIN ["COM"]
properties('MP2/aug-cc-pvtz', properties = ['dipole'])
--------------------------------------------------------------------------

    Molecular point group: c1
  Charge       = 0
  Multiplicity = 1
  Basis Set: AUG-CC-PVTZ
    Blend: AUG-CC-PVTZ
  Basis Set: (AUG-CC-PVTZ AUX)
    Blend: AUG-CC-PVTZ-JKFIT

    Orbital Energies [Eh]
    ---------------------

    Doubly Occupied:

       1A    -15.539144     2A    -11.267467     3A    -11.240711
       4A    -11.233983     5A    -11.226512     6A    -11.223706
       7A    -11.221069     8A    -11.206754     9A     -1.221372
      10A     -1.071800    11A     -1.026431    12A     -0.990264
      13A     -0.898623    14A     -0.860774    15A     -0.820110
      16A     -0.706398    17A     -0.664920    18A     -0.646440
      19A     -0.598212    20A     -0.594313    21A     -0.584779
      22A     -0.561941    23A     -0.541692    24A     -0.523510
      25A     -0.522044    26A     -0.510932    27A     -0.499385
      28A     -0.489936    29A     -0.478468    30A     -0.468197
      31A     -0.384570    32A     -0.374171

  @DF-RHF Final Energy:  -328.34716054909546

   => Energetics <=

    Nuclear Repulsion Energy =            390.2243937481617309
    One-Electron Energy =               -1216.7458475960565920
    Two-Electron Energy =                 498.1742932987994550
    Total Energy =                       -328.3471605490954630
  Basis Set: (AUG-CC-PVTZ AUX)
    Blend: AUG-CC-PVTZ-RI
    Molecular point group: c1

    Geometry (in Angstrom), charge = 0, multiplicity = 1:

       Center              X                  Y                   Z               Mass
    ------------   -----------------  -----------------  -----------------  -----------------
         N           -0.502180562910    -0.929026094069    -0.031579706920    14.003074004430
         C            0.465573437090    -0.077785094069    -0.025783706920    12.000000000000
         C            1.648653937090    -0.458626094069    -0.691650106920    12.000000000000
         C            0.475811437090     1.300640905931     0.609182293080    12.000000000000
         C            2.798172437090    -0.976362094069     0.246426293080    12.000000000000
         C           -0.155284562910     2.344230905931    -0.320686706920    12.000000000000
         C           -1.767615562910    -0.627296094069     0.626969293080    12.000000000000
         C           -2.888710562910    -0.695114094069    -0.405231706920    12.000000000000
         H            2.121693437090     0.363991905931    -1.315578706920     1.007825032230
         H            1.479129437090    -1.284421094069    -1.440964706920     1.007825032230
         H           -0.042634562910     1.295113905931     1.572614293080     1.007825032230
         H            1.513728437090     1.581277905931     0.817752293080     1.007825032230
         H            3.064437437090    -0.202434094069     0.972728293080     1.007825032230
         H            2.424952437090    -1.845280094069     0.795060293080     1.007825032230
         H            3.711501437090    -1.268670094069    -0.279952706920     1.007825032230
         H            0.356220437090     2.361858905931    -1.287497706920     1.007825032230
         H           -0.090851562910     3.345860905931     0.114675293080     1.007825032230
         H           -1.208877562910     2.117515905931    -0.503430706920     1.007825032230
         H           -1.925809562910    -1.403213094069     1.385536293080     1.007825032230
         H           -1.793497562910     0.342164905931     1.141950293080     1.007825032230
         H           -3.864594562910    -0.555028094069     0.069627293080     1.007825032230
         H           -2.758037562910     0.083040905931    -1.162503706920     1.007825032230
         H           -2.875371562910    -1.664385094069    -0.908289706920     1.007825032230

  Basis Set: AUG-CC-PVTZ
    Blend: AUG-CC-PVTZ
  Basis Set: (AUG-CC-PVTZ AUX)
    Blend: AUG-CC-PVTZ-JKFIT
	 Reference Energy          =    -328.3471605490954630 [Eh]
	 Singles Energy            =      -0.0000000000000000 [Eh]
	 Same-Spin Energy          =      -0.3509200637291349 [Eh]
	 Opposite-Spin Energy      =      -1.2494208434454661 [Eh]
	 Correlation Energy        =      -1.6003409071746009 [Eh]
	 Total Energy              =    -329.9475014562700608 [Eh]

	 ================> DF-SCS-MP2 Energies <==================
	-----------------------------------------------------------
	 SCS Same-Spin Scale       =       0.3333333333333333 [-]
	 SCS Opposite-Spin Scale   =       1.2000000000000000 [-]
	 SCS Same-Spin Energy      =      -0.1169733545763783 [Eh]
	 SCS Opposite-Spin Energy  =      -1.4993050121345592 [Eh]
	 SCS Correlation Energy    =      -1.6162783667109375 [Eh]
	 SCS Total Energy          =    -329.9634389158064209 [Eh]
	-----------------------------------------------------------

  Dipole Moment: [D]
     X:     0.4528      Y:     1.6802      Z:     0.6040     Total:     1.8420

*** Psi4 exiting successfully. Buy a developer a beer!
