                               Psi4 1.3.2 release

  ==> Input File <==

--------------------------------------------------------------------------
#psi4
#
memory 32 gb

molecule  {
0 1
  N       -0.5109270    -0.9518430    -0.0269340
  C        0.3066564    -0.2326928    -0.0220374
  C        1.7238140    -0.5084530    -0.7342290
  C        0.4670650     1.2778240     0.6138280
  C        2.7894260    -0.9991790     0.2510720
  C       -0.1640310     2.3214140    -0.3160410
  C       -1.7763620    -0.6501130     0.6316150
  C       -2.8974570    -0.7179310    -0.4005860
  H        2.1129470     0.3411750    -1.3109330
  H        1.4703830    -1.3072380    -1.4363190
  H       -0.0513810     1.2722970     1.5772600
  H        1.5049820     1.5584610     0.8223980
  H        3.0556910    -0.2252510     0.9773740
  H        2.4162060    -1.8680970     0.7997060
  H        3.7027550    -1.2914870    -0.2753070
  H        0.3474740     2.3390420    -1.2828520
  H       -0.0995980     3.3230440     0.1193210
  H       -1.2176240     2.0946990    -0.4987850
  H       -1.9345560    -1.4260300     1.3901820
  H       -1.8022440     0.3193480     1.1465960
  H       -3.8733410    -0.5778450     0.0742730
  H       -2.7667840     0.0602240    -1.1578580
  H       -2.8841180    -1.6872020    -0.9036440
units angstrom
no_reorient  #important for SAPT in psi4, default
symmetry c1  #important for SAPT in psi4, default
}

set PROPERTIES_ORIGIN ["COM"]
properties('MP2/aug-cc-pvtz', properties = ['dipole'])
--------------------------------------------------------------------------

    Molecular point group: c1
  Charge       = 0
  Multiplicity = 1
  Basis Set: AUG-CC-PVTZ
    Blend: AUG-CC-PVTZ
  Basis Set: (AUG-CC-PVTZ AUX)
    Blend: AUG-CC-PVTZ-JKFIT

    Orbital Energies [Eh]
    ---------------------

    Doubly Occupied:

       1A    -15.522129     2A    -11.252961     3A    -11.251803
       4A    -11.228269     5A    -11.220523     6A    -11.214016
       7A    -11.213562     8A    -11.211823     9A     -1.302146
      10A     -1.047829    11A     -1.023113    12A     -1.005870
      13A     -0.876540    14A     -0.853577    15A     -0.825382
      16A     -0.701505    17A     -0.654640    18A     -0.646248
      19A     -0.607120    20A     -0.597380    21A     -0.581756
      22A     -0.569775    23A     -0.538667    24A     -0.525979
      25A     -0.520822    26A     -0.511409    27A     -0.505504
      28A     -0.489515    29A     -0.482235    30A     -0.468464
      31A     -0.441515    32A     -0.336709

  @DF-RHF Final Energy:  -328.29388649003852

   => Energetics <=

    Nuclear Repulsion Energy =            390.3191139037617177
    One-Electron Energy =               -1216.7684289266831001
    Two-Electron Energy =                 498.1554285328828655
    Total Energy =                       -328.2938864900385170
  Basis Set: (AUG-CC-PVTZ AUX)
    Blend: AUG-CC-PVTZ-RI
    Molecular point group: c1

    Geometry (in Angstrom), charge = 0, multiplicity = 1:

       Center              X                  Y                   Z               Mass
    ------------   -----------------  -----------------  -----------------  -----------------
         N           -0.495151160148    -0.912148424217    -0.026474635268    14.003074004430
         C            0.322432239852    -0.192998224217    -0.021578035268    12.000000000000
         C            1.739589839852    -0.468758424217    -0.733769635268    12.000000000000
         C            0.482840839852     1.317518575783     0.614287364732    12.000000000000
         C            2.805201839852    -0.959484424217     0.251531364732    12.000000000000
         C           -0.148255160148     2.361108575783    -0.315581635268    12.000000000000
         C           -1.760586160148    -0.610418424217     0.632074364732    12.000000000000
         C           -2.881681160148    -0.678236424217    -0.400126635268    12.000000000000
         H            2.128722839852     0.380869575783    -1.310473635268     1.007825032230
         H            1.486158839852    -1.267543424217    -1.435859635268     1.007825032230
         H           -0.035605160148     1.311991575783     1.577719364732     1.007825032230
         H            1.520757839852     1.598155575783     0.822857364732     1.007825032230
         H            3.071466839852    -0.185556424217     0.977833364732     1.007825032230
         H            2.431981839852    -1.828402424217     0.800165364732     1.007825032230
         H            3.718530839852    -1.251792424217    -0.274847635268     1.007825032230
         H            0.363249839852     2.378736575783    -1.282392635268     1.007825032230
         H           -0.083822160148     3.362738575783     0.119780364732     1.007825032230
         H           -1.201848160148     2.134393575783    -0.498325635268     1.007825032230
         H           -1.918780160148    -1.386335424217     1.390641364732     1.007825032230
         H           -1.786468160148     0.359042575783     1.147055364732     1.007825032230
         H           -3.857565160148    -0.538150424217     0.074732364732     1.007825032230
         H           -2.751008160148     0.099918575783    -1.157398635268     1.007825032230
         H           -2.868342160148    -1.647507424217    -0.903184635268     1.007825032230

  Basis Set: AUG-CC-PVTZ
    Blend: AUG-CC-PVTZ
  Basis Set: (AUG-CC-PVTZ AUX)
    Blend: AUG-CC-PVTZ-JKFIT
	 Reference Energy          =    -328.2938864900385170 [Eh]
	 Singles Energy            =      -0.0000000000000000 [Eh]
	 Same-Spin Energy          =      -0.3468608739557313 [Eh]
	 Opposite-Spin Energy      =      -1.2414490745410582 [Eh]
	 Correlation Energy        =      -1.5883099484967895 [Eh]
	 Total Energy              =    -329.8821964385352885 [Eh]

	 ================> DF-SCS-MP2 Energies <==================
	-----------------------------------------------------------
	 SCS Same-Spin Scale       =       0.3333333333333333 [-]
	 SCS Opposite-Spin Scale   =       1.2000000000000000 [-]
	 SCS Same-Spin Energy      =      -0.1156202913185771 [Eh]
	 SCS Opposite-Spin Energy  =      -1.4897388894492698 [Eh]
	 SCS Correlation Energy    =      -1.6053591807678469 [Eh]
	 SCS Total Energy          =    -329.8992456708063514 [Eh]
	-----------------------------------------------------------

  Dipole Moment: [D]
     X:    -0.2846      Y:     1.2416      Z:     0.6605     Total:     1.4349

*** Psi4 exiting successfully. Buy a developer a beer!
