                               Psi4 1.3.2 release

  ==> Input File <==

--------------------------------------------------------------------------
#psi4
#
memory 32 gb

molecule  {
0 1
  N       -0.5205334    -0.9740890    -0.0347090
  C        0.4568270    -0.1006020    -0.0211380
  C        1.7238140    -0.5084530    -0.7342290
  C        0.4670650     1.2778240     0.6138280
  C        2.7894260    -0.9991790     0.2510720
  C       -0.1640310     2.3214140    -0.3160410
  C       -1.7763620    -0.6501130     0.6316150
  C       -2.8974570    -0.7179310    -0.4005860
  H        2.1129470     0.3411750    -1.3109330
  H        1.4703830    -1.3072380    -1.4363190
  H       -0.0513810     1.2722970     1.5772600
  H        1.5049820     1.5584610     0.8223980
  H        3.0556910    -0.2252510     0.9773740
  H        2.4162060    -1.8680970     0.7997060
  H        3.7027550    -1.2914870    -0.2753070
  H        0.3474740     2.3390420    -1.2828520
  H       -0.0995980     3.3230440     0.1193210
  H       -1.2176240     2.0946990    -0.4987850
  H       -1.9345560    -1.4260300     1.3901820
  H       -1.8022440     0.3193480     1.1465960
  H       -3.8733410    -0.5778450     0.0742730
  H       -2.7667840     0.0602240    -1.1578580
  H       -2.8841180    -1.6872020    -0.9036440
units angstrom
no_reorient  #important for SAPT in psi4, default
symmetry c1  #important for SAPT in psi4, default
}

set PROPERTIES_ORIGIN ["COM"]
properties('MP2/aug-cc-pvtz', properties = ['dipole'])
--------------------------------------------------------------------------

    Molecular point group: c1
  Charge       = 0
  Multiplicity = 1
  Basis Set: AUG-CC-PVTZ
    Blend: AUG-CC-PVTZ
  Basis Set: (AUG-CC-PVTZ AUX)
    Blend: AUG-CC-PVTZ-JKFIT

    Orbital Energies [Eh]
    ---------------------

    Doubly Occupied:

       1A    -15.542481     2A    -11.276264     3A    -11.239743
       4A    -11.235922     5A    -11.227469     6A    -11.222190
       7A    -11.217657     8A    -11.205778     9A     -1.209592
      10A     -1.067706    11A     -1.027466    12A     -0.990230
      13A     -0.892367    14A     -0.858433    15A     -0.819094
      16A     -0.706180    17A     -0.662918    18A     -0.641728
      19A     -0.599326    20A     -0.591509    21A     -0.589156
      22A     -0.556743    23A     -0.540676    24A     -0.522903
      25A     -0.519557    26A     -0.511667    27A     -0.508309
      28A     -0.488401    29A     -0.482246    30A     -0.468260
      31A     -0.385020    32A     -0.373323

  @DF-RHF Final Energy:  -328.35592754528346

   => Energetics <=

    Nuclear Repulsion Energy =            388.3024077009491748
    One-Electron Energy =               -1212.9560454686670710
    Two-Electron Energy =                 496.2977102224344321
    Total Energy =                       -328.3559275452834640
  Basis Set: (AUG-CC-PVTZ AUX)
    Blend: AUG-CC-PVTZ-RI
    Molecular point group: c1

    Geometry (in Angstrom), charge = 0, multiplicity = 1:

       Center              X                  Y                   Z               Mass
    ------------   -----------------  -----------------  -----------------  -----------------
         N           -0.519498732743    -0.945653018233    -0.033382585138    14.003074004430
         C            0.457861667257    -0.072166018233    -0.019811585138    12.000000000000
         C            1.724848667257    -0.480017018233    -0.732902585138    12.000000000000
         C            0.468099667257     1.306259981767     0.615154414862    12.000000000000
         C            2.790460667257    -0.970743018233     0.252398414862    12.000000000000
         C           -0.162996332743     2.349849981767    -0.314714585138    12.000000000000
         C           -1.775327332743    -0.621677018233     0.632941414862    12.000000000000
         C           -2.896422332743    -0.689495018233    -0.399259585138    12.000000000000
         H            2.113981667257     0.369610981767    -1.309606585138     1.007825032230
         H            1.471417667257    -1.278802018233    -1.434992585138     1.007825032230
         H           -0.050346332743     1.300732981767     1.578586414862     1.007825032230
         H            1.506016667257     1.586896981767     0.823724414862     1.007825032230
         H            3.056725667257    -0.196815018233     0.978700414862     1.007825032230
         H            2.417240667257    -1.839661018233     0.801032414862     1.007825032230
         H            3.703789667257    -1.263051018233    -0.273980585138     1.007825032230
         H            0.348508667257     2.367477981767    -1.281525585138     1.007825032230
         H           -0.098563332743     3.351479981767     0.120647414862     1.007825032230
         H           -1.216589332743     2.123134981767    -0.497458585138     1.007825032230
         H           -1.933521332743    -1.397594018233     1.391508414862     1.007825032230
         H           -1.801209332743     0.347783981767     1.147922414862     1.007825032230
         H           -3.872306332743    -0.549409018233     0.075599414862     1.007825032230
         H           -2.765749332743     0.088659981767    -1.156531585138     1.007825032230
         H           -2.883083332743    -1.658766018233    -0.902317585138     1.007825032230

  Basis Set: AUG-CC-PVTZ
    Blend: AUG-CC-PVTZ
  Basis Set: (AUG-CC-PVTZ AUX)
    Blend: AUG-CC-PVTZ-JKFIT
	 Reference Energy          =    -328.3559275452834640 [Eh]
	 Singles Energy            =      -0.0000000000000000 [Eh]
	 Same-Spin Energy          =      -0.3504102172595730 [Eh]
	 Opposite-Spin Energy      =      -1.2493810249342761 [Eh]
	 Correlation Energy        =      -1.5997912421938492 [Eh]
	 Total Energy              =    -329.9557187874773376 [Eh]

	 ================> DF-SCS-MP2 Energies <==================
	-----------------------------------------------------------
	 SCS Same-Spin Scale       =       0.3333333333333333 [-]
	 SCS Opposite-Spin Scale   =       1.2000000000000000 [-]
	 SCS Same-Spin Energy      =      -0.1168034057531910 [Eh]
	 SCS Opposite-Spin Energy  =      -1.4992572299211313 [Eh]
	 SCS Correlation Energy    =      -1.6160606356743223 [Eh]
	 SCS Total Energy          =    -329.9719881809577942 [Eh]
	-----------------------------------------------------------

  Dipole Moment: [D]
     X:     0.4275      Y:     1.7570      Z:     0.6265     Total:     1.9137

*** Psi4 exiting successfully. Buy a developer a beer!
