                               Psi4 1.3.2 release

  ==> Input File <==

--------------------------------------------------------------------------
#psi4
#
memory 32 gb

molecule  {
0 1
  N       -0.4919502    -0.8011399    -0.0418319
  C        0.4568270    -0.1006020    -0.0211380
  C        1.7238140    -0.5084530    -0.7342290
  C        0.4670650     1.2778240     0.6138280
  C        2.7894260    -0.9991790     0.2510720
  C       -0.1640310     2.3214140    -0.3160410
  C       -1.7763620    -0.6501130     0.6316150
  C       -2.8974570    -0.7179310    -0.4005860
  H        2.1129470     0.3411750    -1.3109330
  H        1.4703830    -1.3072380    -1.4363190
  H       -0.0513810     1.2722970     1.5772600
  H        1.5049820     1.5584610     0.8223980
  H        3.0556910    -0.2252510     0.9773740
  H        2.4162060    -1.8680970     0.7997060
  H        3.7027550    -1.2914870    -0.2753070
  H        0.3474740     2.3390420    -1.2828520
  H       -0.0995980     3.3230440     0.1193210
  H       -1.2176240     2.0946990    -0.4987850
  H       -1.9345560    -1.4260300     1.3901820
  H       -1.8022440     0.3193480     1.1465960
  H       -3.8733410    -0.5778450     0.0742730
  H       -2.7667840     0.0602240    -1.1578580
  H       -2.8841180    -1.6872020    -0.9036440
units angstrom
no_reorient  #important for SAPT in psi4, default
symmetry c1  #important for SAPT in psi4, default
}

set PROPERTIES_ORIGIN ["COM"]
properties('MP2/aug-cc-pvtz', properties = ['dipole'])
--------------------------------------------------------------------------

    Molecular point group: c1
  Charge       = 0
  Multiplicity = 1
  Basis Set: AUG-CC-PVTZ
    Blend: AUG-CC-PVTZ
  Basis Set: (AUG-CC-PVTZ AUX)
    Blend: AUG-CC-PVTZ-JKFIT

    Orbital Energies [Eh]
    ---------------------

    Doubly Occupied:

       1A    -15.518388     2A    -11.252086     3A    -11.248662
       4A    -11.223066     5A    -11.222091     6A    -11.216655
       7A    -11.215722     8A    -11.209993     9A     -1.252310
      10A     -1.061628    11A     -1.023445    12A     -1.005477
      13A     -0.887384    14A     -0.857690    15A     -0.830676
      16A     -0.698718    17A     -0.660337    18A     -0.651470
      19A     -0.601555    20A     -0.595132    21A     -0.589188
      22A     -0.565903    23A     -0.536707    24A     -0.522439
      25A     -0.520730    26A     -0.512809    27A     -0.508322
      28A     -0.486181    29A     -0.484570    30A     -0.477320
      31A     -0.406790    32A     -0.348992

  @DF-RHF Final Energy:  -328.34918270002692

   => Energetics <=

    Nuclear Repulsion Energy =            391.6508469318629295
    One-Electron Energy =               -1219.6151912625675777
    Two-Electron Energy =                 499.6151616306777328
    Total Energy =                       -328.3491827000269154
  Basis Set: (AUG-CC-PVTZ AUX)
    Blend: AUG-CC-PVTZ-RI
    Molecular point group: c1

    Geometry (in Angstrom), charge = 0, multiplicity = 1:

       Center              X                  Y                   Z               Mass
    ------------   -----------------  -----------------  -----------------  -----------------
         N           -0.494453820176    -0.794113124590    -0.039623748049    14.003074004430
         C            0.454323379824    -0.093575224590    -0.018929848049    12.000000000000
         C            1.721310379824    -0.501426224590    -0.732020848049    12.000000000000
         C            0.464561379824     1.284850775410     0.616036151951    12.000000000000
         C            2.786922379824    -0.992152224590     0.253280151951    12.000000000000
         C           -0.166534620176     2.328440775410    -0.313832848049    12.000000000000
         C           -1.778865620176    -0.643086224590     0.633823151951    12.000000000000
         C           -2.899960620176    -0.710904224590    -0.398377848049    12.000000000000
         H            2.110443379824     0.348201775410    -1.308724848049     1.007825032230
         H            1.467879379824    -1.300211224590    -1.434110848049     1.007825032230
         H           -0.053884620176     1.279323775410     1.579468151951     1.007825032230
         H            1.502478379824     1.565487775410     0.824606151951     1.007825032230
         H            3.053187379824    -0.218224224590     0.979582151951     1.007825032230
         H            2.413702379824    -1.861070224590     0.801914151951     1.007825032230
         H            3.700251379824    -1.284460224590    -0.273098848049     1.007825032230
         H            0.344970379824     2.346068775410    -1.280643848049     1.007825032230
         H           -0.102101620176     3.330070775410     0.121529151951     1.007825032230
         H           -1.220127620176     2.101725775410    -0.496576848049     1.007825032230
         H           -1.937059620176    -1.419003224590     1.392390151951     1.007825032230
         H           -1.804747620176     0.326374775410     1.148804151951     1.007825032230
         H           -3.875844620176    -0.570818224590     0.076481151951     1.007825032230
         H           -2.769287620176     0.067250775410    -1.155649848049     1.007825032230
         H           -2.886621620176    -1.680175224590    -0.901435848049     1.007825032230

  Basis Set: AUG-CC-PVTZ
    Blend: AUG-CC-PVTZ
  Basis Set: (AUG-CC-PVTZ AUX)
    Blend: AUG-CC-PVTZ-JKFIT
	 Reference Energy          =    -328.3491827000269154 [Eh]
	 Singles Energy            =      -0.0000000000000000 [Eh]
	 Same-Spin Energy          =      -0.3480191418044293 [Eh]
	 Opposite-Spin Energy      =      -1.2428406644768557 [Eh]
	 Correlation Energy        =      -1.5908598062812849 [Eh]
	 Total Energy              =    -329.9400425063082025 [Eh]

	 ================> DF-SCS-MP2 Energies <==================
	-----------------------------------------------------------
	 SCS Same-Spin Scale       =       0.3333333333333333 [-]
	 SCS Opposite-Spin Scale   =       1.2000000000000000 [-]
	 SCS Same-Spin Energy      =      -0.1160063806014764 [Eh]
	 SCS Opposite-Spin Energy  =      -1.4914087973722268 [Eh]
	 SCS Correlation Energy    =      -1.6074151779737031 [Eh]
	 SCS Total Energy          =    -329.9565978780005935 [Eh]
	-----------------------------------------------------------

  Dipole Moment: [D]
     X:     0.1723      Y:     1.2913      Z:     0.6443     Total:     1.4534

*** Psi4 exiting successfully. Buy a developer a beer!
