                               Psi4 1.3.2 release

  ==> Input File <==

--------------------------------------------------------------------------
#psi4
#
memory 32 gb

molecule  {
0 1
  N       -0.5109270    -0.9518430    -0.0269340
  C        0.4568270    -0.1006020    -0.0211380
  C        1.7011498    -0.5545042    -0.7462110
  C        0.4670650     1.2778240     0.6138280
  C        2.7894260    -0.9991790     0.2510720
  C       -0.1640310     2.3214140    -0.3160410
  C       -1.7763620    -0.6501130     0.6316150
  C       -2.8974570    -0.7179310    -0.4005860
  H        2.1129470     0.3411750    -1.3109330
  H        1.4703830    -1.3072380    -1.4363190
  H       -0.0513810     1.2722970     1.5772600
  H        1.5049820     1.5584610     0.8223980
  H        3.0556910    -0.2252510     0.9773740
  H        2.4162060    -1.8680970     0.7997060
  H        3.7027550    -1.2914870    -0.2753070
  H        0.3474740     2.3390420    -1.2828520
  H       -0.0995980     3.3230440     0.1193210
  H       -1.2176240     2.0946990    -0.4987850
  H       -1.9345560    -1.4260300     1.3901820
  H       -1.8022440     0.3193480     1.1465960
  H       -3.8733410    -0.5778450     0.0742730
  H       -2.7667840     0.0602240    -1.1578580
  H       -2.8841180    -1.6872020    -0.9036440
units angstrom
no_reorient  #important for SAPT in psi4, default
symmetry c1  #important for SAPT in psi4, default
}

set PROPERTIES_ORIGIN ["COM"]
properties('MP2/aug-cc-pvtz', properties = ['dipole'])
--------------------------------------------------------------------------

    Molecular point group: c1
  Charge       = 0
  Multiplicity = 1
  Basis Set: AUG-CC-PVTZ
    Blend: AUG-CC-PVTZ
  Basis Set: (AUG-CC-PVTZ AUX)
    Blend: AUG-CC-PVTZ-JKFIT

    Orbital Energies [Eh]
    ---------------------

    Doubly Occupied:

       1A    -15.537978     2A    -11.272125     3A    -11.240194
       4A    -11.235278     5A    -11.226757     6A    -11.221620
       7A    -11.217634     8A    -11.206471     9A     -1.216120
      10A     -1.065342    11A     -1.027281    12A     -0.991953
      13A     -0.890759    14A     -0.860088    15A     -0.820610
      16A     -0.705742    17A     -0.664898    18A     -0.641177
      19A     -0.598318    20A     -0.592769    21A     -0.587555
      22A     -0.558994    23A     -0.539780    24A     -0.523683
      25A     -0.519681    26A     -0.510441    27A     -0.508639
      28A     -0.488576    29A     -0.485021    30A     -0.468789
      31A     -0.379986    32A     -0.377410

  @DF-RHF Final Energy:  -328.35604770883890

   => Energetics <=

    Nuclear Repulsion Energy =            388.7306200643600960
    One-Electron Energy =               -1213.8099955699019574
    Two-Electron Energy =                 496.7233277967029608
    Total Energy =                       -328.3560477088389007
  Basis Set: (AUG-CC-PVTZ AUX)
    Blend: AUG-CC-PVTZ-RI
    Molecular point group: c1

    Geometry (in Angstrom), charge = 0, multiplicity = 1:

       Center              X                  Y                   Z               Mass
    ------------   -----------------  -----------------  -----------------  -----------------
         N           -0.508677245016    -0.921275643961    -0.025298975158    14.003074004430
         C            0.459076754984    -0.070034643961    -0.019502975158    12.000000000000
         C            1.703399554984    -0.523936843961    -0.744575975158    12.000000000000
         C            0.469314754984     1.308391356039     0.615463024842    12.000000000000
         C            2.791675754984    -0.968611643961     0.252707024842    12.000000000000
         C           -0.161781245016     2.351981356039    -0.314405975158    12.000000000000
         C           -1.774112245016    -0.619545643961     0.633250024842    12.000000000000
         C           -2.895207245016    -0.687363643961    -0.398950975158    12.000000000000
         H            2.115196754984     0.371742356039    -1.309297975158     1.007825032230
         H            1.472632754984    -1.276670643961    -1.434683975158     1.007825032230
         H           -0.049131245016     1.302864356039     1.578895024842     1.007825032230
         H            1.507231754984     1.589028356039     0.824033024842     1.007825032230
         H            3.057940754984    -0.194683643961     0.979009024842     1.007825032230
         H            2.418455754984    -1.837529643961     0.801341024842     1.007825032230
         H            3.705004754984    -1.260919643961    -0.273671975158     1.007825032230
         H            0.349723754984     2.369609356039    -1.281216975158     1.007825032230
         H           -0.097348245016     3.353611356039     0.120956024842     1.007825032230
         H           -1.215374245016     2.125266356039    -0.497149975158     1.007825032230
         H           -1.932306245016    -1.395462643961     1.391817024842     1.007825032230
         H           -1.799994245016     0.349915356039     1.148231024842     1.007825032230
         H           -3.871091245016    -0.547277643961     0.075908024842     1.007825032230
         H           -2.764534245016     0.090791356039    -1.156222975158     1.007825032230
         H           -2.881868245016    -1.656634643961    -0.902008975158     1.007825032230

  Basis Set: AUG-CC-PVTZ
    Blend: AUG-CC-PVTZ
  Basis Set: (AUG-CC-PVTZ AUX)
    Blend: AUG-CC-PVTZ-JKFIT
	 Reference Energy          =    -328.3560477088389007 [Eh]
	 Singles Energy            =      -0.0000000000000000 [Eh]
	 Same-Spin Energy          =      -0.3497988398240635 [Eh]
	 Opposite-Spin Energy      =      -1.2480337780263813 [Eh]
	 Correlation Energy        =      -1.5978326178504447 [Eh]
	 Total Energy              =    -329.9538803266893296 [Eh]

	 ================> DF-SCS-MP2 Energies <==================
	-----------------------------------------------------------
	 SCS Same-Spin Scale       =       0.3333333333333333 [-]
	 SCS Opposite-Spin Scale   =       1.2000000000000000 [-]
	 SCS Same-Spin Energy      =      -0.1165996132746878 [Eh]
	 SCS Opposite-Spin Energy  =      -1.4976405336316574 [Eh]
	 SCS Correlation Energy    =      -1.6142401469063452 [Eh]
	 SCS Total Energy          =    -329.9702878557452550 [Eh]
	-----------------------------------------------------------

  Dipole Moment: [D]
     X:     0.3928      Y:     1.6932      Z:     0.6205     Total:     1.8456

*** Psi4 exiting successfully. Buy a developer a beer!
