                               Psi4 1.3.2 release

  ==> Input File <==

--------------------------------------------------------------------------
#psi4
#
memory 32 gb

molecule  {
0 1
  N       -0.5017060    -0.9295051    -0.0189584
  C        0.4568270    -0.1006020    -0.0211380
  C        1.7238140    -0.5084530    -0.7342290
  C        0.4670650     1.2778240     0.6138280
  C        2.7894260    -0.9991790     0.2510720
  C       -0.1640310     2.3214140    -0.3160410
  C       -1.7763620    -0.6501130     0.6316150
  C       -2.8974570    -0.7179310    -0.4005860
  H        2.1129470     0.3411750    -1.3109330
  H        1.4703830    -1.3072380    -1.4363190
  H       -0.0513810     1.2722970     1.5772600
  H        1.5049820     1.5584610     0.8223980
  H        3.0556910    -0.2252510     0.9773740
  H        2.4162060    -1.8680970     0.7997060
  H        3.7027550    -1.2914870    -0.2753070
  H        0.3474740     2.3390420    -1.2828520
  H       -0.0995980     3.3230440     0.1193210
  H       -1.2176240     2.0946990    -0.4987850
  H       -1.9345560    -1.4260300     1.3901820
  H       -1.8022440     0.3193480     1.1465960
  H       -3.8733410    -0.5778450     0.0742730
  H       -2.7667840     0.0602240    -1.1578580
  H       -2.8841180    -1.6872020    -0.9036440
units angstrom
no_reorient  #important for SAPT in psi4, default
symmetry c1  #important for SAPT in psi4, default
}

set PROPERTIES_ORIGIN ["COM"]
properties('MP2/aug-cc-pvtz', properties = ['dipole'])
--------------------------------------------------------------------------

    Molecular point group: c1
  Charge       = 0
  Multiplicity = 1
  Basis Set: AUG-CC-PVTZ
    Blend: AUG-CC-PVTZ
  Basis Set: (AUG-CC-PVTZ AUX)
    Blend: AUG-CC-PVTZ-JKFIT

    Orbital Energies [Eh]
    ---------------------

    Doubly Occupied:

       1A    -15.535054     2A    -11.268337     3A    -11.242124
       4A    -11.232110     5A    -11.225810     6A    -11.220515
       7A    -11.216885     8A    -11.207632     9A     -1.222304
      10A     -1.065525    11A     -1.026278    12A     -0.995429
      13A     -0.890850    14A     -0.858162    15A     -0.823385
      16A     -0.703137    17A     -0.662159    18A     -0.644249
      19A     -0.599089    20A     -0.592209    21A     -0.590009
      22A     -0.559587    23A     -0.539593    24A     -0.522558
      25A     -0.520096    26A     -0.512297    27A     -0.508738
      28A     -0.487945    29A     -0.482345    30A     -0.472516
      31A     -0.383928    32A     -0.374153

  @DF-RHF Final Energy:  -328.36083820718255

   => Energetics <=

    Nuclear Repulsion Energy =            389.2945396394586624
    One-Electron Energy =               -1214.9407418994642285
    Two-Electron Energy =                 497.2853640528230130
    Total Energy =                       -328.3608382071825531
  Basis Set: (AUG-CC-PVTZ AUX)
    Blend: AUG-CC-PVTZ-RI
    Molecular point group: c1

    Geometry (in Angstrom), charge = 0, multiplicity = 1:

       Center              X                  Y                   Z               Mass
    ------------   -----------------  -----------------  -----------------  -----------------
         N           -0.503001958874    -0.906588117264    -0.019581737092    14.003074004430
         C            0.455531041126    -0.077685017264    -0.021761337092    12.000000000000
         C            1.722518041126    -0.485536017264    -0.734852337092    12.000000000000
         C            0.465769041126     1.300740982736     0.613204662908    12.000000000000
         C            2.788130041126    -0.976262017264     0.250448662908    12.000000000000
         C           -0.165326958874     2.344330982736    -0.316664337092    12.000000000000
         C           -1.777657958874    -0.627196017264     0.630991662908    12.000000000000
         C           -2.898752958874    -0.695014017264    -0.401209337092    12.000000000000
         H            2.111651041126     0.364091982736    -1.311556337092     1.007825032230
         H            1.469087041126    -1.284321017264    -1.436942337092     1.007825032230
         H           -0.052676958874     1.295213982736     1.576636662908     1.007825032230
         H            1.503686041126     1.581377982736     0.821774662908     1.007825032230
         H            3.054395041126    -0.202334017264     0.976750662908     1.007825032230
         H            2.414910041126    -1.845180017264     0.799082662908     1.007825032230
         H            3.701459041126    -1.268570017264    -0.275930337092     1.007825032230
         H            0.346178041126     2.361958982736    -1.283475337092     1.007825032230
         H           -0.100893958874     3.345960982736     0.118697662908     1.007825032230
         H           -1.218919958874     2.117615982736    -0.499408337092     1.007825032230
         H           -1.935851958874    -1.403113017264     1.389558662908     1.007825032230
         H           -1.803539958874     0.342264982736     1.145972662908     1.007825032230
         H           -3.874636958874    -0.554928017264     0.073649662908     1.007825032230
         H           -2.768079958874     0.083140982736    -1.158481337092     1.007825032230
         H           -2.885413958874    -1.664285017264    -0.904267337092     1.007825032230

  Basis Set: AUG-CC-PVTZ
    Blend: AUG-CC-PVTZ
  Basis Set: (AUG-CC-PVTZ AUX)
    Blend: AUG-CC-PVTZ-JKFIT
	 Reference Energy          =    -328.3608382071825531 [Eh]
	 Singles Energy            =      -0.0000000000000000 [Eh]
	 Same-Spin Energy          =      -0.3493543138650513 [Eh]
	 Opposite-Spin Energy      =      -1.2467381247026825 [Eh]
	 Correlation Energy        =      -1.5960924385677338 [Eh]
	 Total Energy              =    -329.9569306457502762 [Eh]

	 ================> DF-SCS-MP2 Energies <==================
	-----------------------------------------------------------
	 SCS Same-Spin Scale       =       0.3333333333333333 [-]
	 SCS Opposite-Spin Scale   =       1.2000000000000000 [-]
	 SCS Same-Spin Energy      =      -0.1164514379550171 [Eh]
	 SCS Opposite-Spin Energy  =      -1.4960857496432189 [Eh]
	 SCS Correlation Energy    =      -1.6125371875982359 [Eh]
	 SCS Total Energy          =    -329.9733753947808168 [Eh]
	-----------------------------------------------------------

  Dipole Moment: [D]
     X:     0.3444      Y:     1.6446      Z:     0.6022     Total:     1.7849

*** Psi4 exiting successfully. Buy a developer a beer!
