                               Psi4 1.3.2 release

  ==> Input File <==

--------------------------------------------------------------------------
#psi4
#
memory 32 gb

molecule  {
0 1
  N       -0.5109270    -0.9518430    -0.0269340
  C        0.4568270    -0.1006020    -0.0211380
  C        1.7238140    -0.5084530    -0.7342290
  C        0.4670650     1.2778240     0.6138280
  C        2.7894260    -0.9991790     0.2510720
  C       -0.1640310     2.3214140    -0.3160410
  C       -1.9499352    -0.6087262     0.7219448
  C       -2.8974570    -0.7179310    -0.4005860
  H        2.1129470     0.3411750    -1.3109330
  H        1.4703830    -1.3072380    -1.4363190
  H       -0.0513810     1.2722970     1.5772600
  H        1.5049820     1.5584610     0.8223980
  H        3.0556910    -0.2252510     0.9773740
  H        2.4162060    -1.8680970     0.7997060
  H        3.7027550    -1.2914870    -0.2753070
  H        0.3474740     2.3390420    -1.2828520
  H       -0.0995980     3.3230440     0.1193210
  H       -1.2176240     2.0946990    -0.4987850
  H       -1.9345560    -1.4260300     1.3901820
  H       -1.8022440     0.3193480     1.1465960
  H       -3.8733410    -0.5778450     0.0742730
  H       -2.7667840     0.0602240    -1.1578580
  H       -2.8841180    -1.6872020    -0.9036440
units angstrom
no_reorient  #important for SAPT in psi4, default
symmetry c1  #important for SAPT in psi4, default
}

set PROPERTIES_ORIGIN ["COM"]
properties('MP2/aug-cc-pvtz', properties = ['dipole'])
--------------------------------------------------------------------------

    Molecular point group: c1
  Charge       = 0
  Multiplicity = 1
  Basis Set: AUG-CC-PVTZ
    Blend: AUG-CC-PVTZ
  Basis Set: (AUG-CC-PVTZ AUX)
    Blend: AUG-CC-PVTZ-JKFIT

    Orbital Energies [Eh]
    ---------------------

    Doubly Occupied:

       1A    -15.536078     2A    -11.263085     3A    -11.244189
       4A    -11.231701     5A    -11.225397     6A    -11.217634
       7A    -11.214152     8A    -11.209568     9A     -1.187183
      10A     -1.058872    11A     -1.025593    12A     -1.004367
      13A     -0.883547    14A     -0.855812    15A     -0.827562
      16A     -0.694755    17A     -0.660577    18A     -0.633734
      19A     -0.608970    20A     -0.588410    21A     -0.586928
      22A     -0.555803    23A     -0.537516    24A     -0.535094
      25A     -0.518129    26A     -0.514606    27A     -0.503411
      28A     -0.494368    29A     -0.476032    30A     -0.469384
      31A     -0.378960    32A     -0.357481

  @DF-RHF Final Energy:  -328.32884842088612

   => Energetics <=

    Nuclear Repulsion Energy =            386.2808265118231930
    One-Electron Energy =               -1209.0215579597556825
    Two-Electron Energy =                 494.4118830270463718
    Total Energy =                       -328.3288484208861178
  Basis Set: (AUG-CC-PVTZ AUX)
    Blend: AUG-CC-PVTZ-RI
    Molecular point group: c1

    Geometry (in Angstrom), charge = 0, multiplicity = 1:

       Center              X                  Y                   Z               Mass
    ------------   -----------------  -----------------  -----------------  -----------------
         N           -0.492668574539    -0.930551208235    -0.036152376162    14.003074004430
         C            0.475085425461    -0.079310208235    -0.030356376162    12.000000000000
         C            1.742072425461    -0.487161208235    -0.743447376162    12.000000000000
         C            0.485323425461     1.299115791765     0.604609623838    12.000000000000
         C            2.807684425461    -0.977887208235     0.241853623838    12.000000000000
         C           -0.145772574539     2.342705791765    -0.325259376162    12.000000000000
         C           -1.931676774539    -0.587434408235     0.712726423838    12.000000000000
         C           -2.879198574539    -0.696639208235    -0.409804376162    12.000000000000
         H            2.131205425461     0.362466791765    -1.320151376162     1.007825032230
         H            1.488641425461    -1.285946208235    -1.445537376162     1.007825032230
         H           -0.033122574539     1.293588791765     1.568041623838     1.007825032230
         H            1.523240425461     1.579752791765     0.813179623838     1.007825032230
         H            3.073949425461    -0.203959208235     0.968155623838     1.007825032230
         H            2.434464425461    -1.846805208235     0.790487623838     1.007825032230
         H            3.721013425461    -1.270195208235    -0.284525376162     1.007825032230
         H            0.365732425461     2.360333791765    -1.292070376162     1.007825032230
         H           -0.081339574539     3.344335791765     0.110102623838     1.007825032230
         H           -1.199365574539     2.115990791765    -0.508003376162     1.007825032230
         H           -1.916297574539    -1.404738208235     1.380963623838     1.007825032230
         H           -1.783985574539     0.340639791765     1.137377623838     1.007825032230
         H           -3.855082574539    -0.556553208235     0.065054623838     1.007825032230
         H           -2.748525574539     0.081515791765    -1.167076376162     1.007825032230
         H           -2.865859574539    -1.665910208235    -0.912862376162     1.007825032230

  Basis Set: AUG-CC-PVTZ
    Blend: AUG-CC-PVTZ
  Basis Set: (AUG-CC-PVTZ AUX)
    Blend: AUG-CC-PVTZ-JKFIT
	 Reference Energy          =    -328.3288484208861178 [Eh]
	 Singles Energy            =      -0.0000000000000000 [Eh]
	 Same-Spin Energy          =      -0.3508277639361932 [Eh]
	 Opposite-Spin Energy      =      -1.2518003746801201 [Eh]
	 Correlation Energy        =      -1.6026281386163133 [Eh]
	 Total Energy              =    -329.9314765595024141 [Eh]

	 ================> DF-SCS-MP2 Energies <==================
	-----------------------------------------------------------
	 SCS Same-Spin Scale       =       0.3333333333333333 [-]
	 SCS Opposite-Spin Scale   =       1.2000000000000000 [-]
	 SCS Same-Spin Energy      =      -0.1169425879787311 [Eh]
	 SCS Opposite-Spin Energy  =      -1.5021604496161440 [Eh]
	 SCS Correlation Energy    =      -1.6191030375948752 [Eh]
	 SCS Total Energy          =    -329.9479514584809863 [Eh]
	-----------------------------------------------------------

  Dipole Moment: [D]
     X:     0.1626      Y:     1.7405      Z:     0.6718     Total:     1.8727

*** Psi4 exiting successfully. Buy a developer a beer!
