                               Psi4 1.3.2 release

  ==> Input File <==

--------------------------------------------------------------------------
#psi4
#
memory 32 gb

molecule  {
0 1
  N       -0.5154456    -0.9766829    -0.0237440
  C        0.4568270    -0.1006020    -0.0211380
  C        1.7238140    -0.5084530    -0.7342290
  C        0.4670650     1.2778240     0.6138280
  C        2.7894260    -0.9991790     0.2510720
  C       -0.1640310     2.3214140    -0.3160410
  C       -1.7763620    -0.6501130     0.6316150
  C       -2.8974570    -0.7179310    -0.4005860
  H        2.1129470     0.3411750    -1.3109330
  H        1.4703830    -1.3072380    -1.4363190
  H       -0.0513810     1.2722970     1.5772600
  H        1.5049820     1.5584610     0.8223980
  H        3.0556910    -0.2252510     0.9773740
  H        2.4162060    -1.8680970     0.7997060
  H        3.7027550    -1.2914870    -0.2753070
  H        0.3474740     2.3390420    -1.2828520
  H       -0.0995980     3.3230440     0.1193210
  H       -1.2176240     2.0946990    -0.4987850
  H       -1.9345560    -1.4260300     1.3901820
  H       -1.8022440     0.3193480     1.1465960
  H       -3.8733410    -0.5778450     0.0742730
  H       -2.7667840     0.0602240    -1.1578580
  H       -2.8841180    -1.6872020    -0.9036440
units angstrom
no_reorient  #important for SAPT in psi4, default
symmetry c1  #important for SAPT in psi4, default
}

set PROPERTIES_ORIGIN ["COM"]
properties('MP2/aug-cc-pvtz', properties = ['dipole'])
--------------------------------------------------------------------------

    Molecular point group: c1
  Charge       = 0
  Multiplicity = 1
  Basis Set: AUG-CC-PVTZ
    Blend: AUG-CC-PVTZ
  Basis Set: (AUG-CC-PVTZ AUX)
    Blend: AUG-CC-PVTZ-JKFIT

    Orbital Energies [Eh]
    ---------------------

    Doubly Occupied:

       1A    -15.542114     2A    -11.275871     3A    -11.239834
       4A    -11.235730     5A    -11.227374     6A    -11.222119
       7A    -11.217547     8A    -11.206157     9A     -1.210117
      10A     -1.067545    11A     -1.027407    12A     -0.990546
      13A     -0.892417    14A     -0.858412    15A     -0.819474
      16A     -0.705832    17A     -0.662895    18A     -0.641699
      19A     -0.599341    20A     -0.591368    21A     -0.589065
      22A     -0.556972    23A     -0.540751    24A     -0.522922
      25A     -0.519746    26A     -0.511957    27A     -0.508303
      28A     -0.488431    29A     -0.482284    30A     -0.468460
      31A     -0.384607    32A     -0.373568

  @DF-RHF Final Energy:  -328.35628827064835

   => Energetics <=

    Nuclear Repulsion Energy =            388.3210199496489281
    One-Electron Energy =               -1212.9928891623155778
    Two-Electron Energy =                 496.3155809420183573
    Total Energy =                       -328.3562882706483492
  Basis Set: (AUG-CC-PVTZ AUX)
    Blend: AUG-CC-PVTZ-RI
    Molecular point group: c1

    Geometry (in Angstrom), charge = 0, multiplicity = 1:

       Center              X                  Y                   Z               Mass
    ------------   -----------------  -----------------  -----------------  -----------------
         N           -0.515040746718    -0.947925821793    -0.023774932171    14.003074004430
         C            0.457231853282    -0.071844921793    -0.021168932171    12.000000000000
         C            1.724218853282    -0.479695921793    -0.734259932171    12.000000000000
         C            0.467469853282     1.306581078207     0.613797067829    12.000000000000
         C            2.789830853282    -0.970421921793     0.251041067829    12.000000000000
         C           -0.163626146718     2.350171078207    -0.316071932171    12.000000000000
         C           -1.775957146718    -0.621355921793     0.631584067829    12.000000000000
         C           -2.897052146718    -0.689173921793    -0.400616932171    12.000000000000
         H            2.113351853282     0.369932078207    -1.310963932171     1.007825032230
         H            1.470787853282    -1.278480921793    -1.436349932171     1.007825032230
         H           -0.050976146718     1.301054078207     1.577229067829     1.007825032230
         H            1.505386853282     1.587218078207     0.822367067829     1.007825032230
         H            3.056095853282    -0.196493921793     0.977343067829     1.007825032230
         H            2.416610853282    -1.839339921793     0.799675067829     1.007825032230
         H            3.703159853282    -1.262729921793    -0.275337932171     1.007825032230
         H            0.347878853282     2.367799078207    -1.282882932171     1.007825032230
         H           -0.099193146718     3.351801078207     0.119290067829     1.007825032230
         H           -1.217219146718     2.123456078207    -0.498815932171     1.007825032230
         H           -1.934151146718    -1.397272921793     1.390151067829     1.007825032230
         H           -1.801839146718     0.348105078207     1.146565067829     1.007825032230
         H           -3.872936146718    -0.549087921793     0.074242067829     1.007825032230
         H           -2.766379146718     0.088981078207    -1.157888932171     1.007825032230
         H           -2.883713146718    -1.658444921793    -0.903674932171     1.007825032230

  Basis Set: AUG-CC-PVTZ
    Blend: AUG-CC-PVTZ
  Basis Set: (AUG-CC-PVTZ AUX)
    Blend: AUG-CC-PVTZ-JKFIT
	 Reference Energy          =    -328.3562882706483492 [Eh]
	 Singles Energy            =      -0.0000000000000000 [Eh]
	 Same-Spin Energy          =      -0.3503431395029425 [Eh]
	 Opposite-Spin Energy      =      -1.2492294437683658 [Eh]
	 Correlation Energy        =      -1.5995725832713084 [Eh]
	 Total Energy              =    -329.9558608539196598 [Eh]

	 ================> DF-SCS-MP2 Energies <==================
	-----------------------------------------------------------
	 SCS Same-Spin Scale       =       0.3333333333333333 [-]
	 SCS Opposite-Spin Scale   =       1.2000000000000000 [-]
	 SCS Same-Spin Energy      =      -0.1167810465009808 [Eh]
	 SCS Opposite-Spin Energy  =      -1.4990753325220390 [Eh]
	 SCS Correlation Energy    =      -1.6158563790230198 [Eh]
	 SCS Total Energy          =    -329.9721446496713497 [Eh]
	-----------------------------------------------------------

  Dipole Moment: [D]
     X:     0.4140      Y:     1.7590      Z:     0.6082     Total:     1.9067

*** Psi4 exiting successfully. Buy a developer a beer!
