                               Psi4 1.3.2 release

  ==> Input File <==

--------------------------------------------------------------------------
#psi4
#
memory 32 gb

molecule  {
0 1
  N       -0.5109270    -0.9518430    -0.0269340
  C        0.4305484    -0.1367189    -0.0491194
  C        1.7238140    -0.5084530    -0.7342290
  C        0.4670650     1.2778240     0.6138280
  C        2.7894260    -0.9991790     0.2510720
  C       -0.1640310     2.3214140    -0.3160410
  C       -1.7763620    -0.6501130     0.6316150
  C       -2.8974570    -0.7179310    -0.4005860
  H        2.1129470     0.3411750    -1.3109330
  H        1.4703830    -1.3072380    -1.4363190
  H       -0.0513810     1.2722970     1.5772600
  H        1.5049820     1.5584610     0.8223980
  H        3.0556910    -0.2252510     0.9773740
  H        2.4162060    -1.8680970     0.7997060
  H        3.7027550    -1.2914870    -0.2753070
  H        0.3474740     2.3390420    -1.2828520
  H       -0.0995980     3.3230440     0.1193210
  H       -1.2176240     2.0946990    -0.4987850
  H       -1.9345560    -1.4260300     1.3901820
  H       -1.8022440     0.3193480     1.1465960
  H       -3.8733410    -0.5778450     0.0742730
  H       -2.7667840     0.0602240    -1.1578580
  H       -2.8841180    -1.6872020    -0.9036440
units angstrom
no_reorient  #important for SAPT in psi4, default
symmetry c1  #important for SAPT in psi4, default
}

set PROPERTIES_ORIGIN ["COM"]
properties('MP2/aug-cc-pvtz', properties = ['dipole'])
--------------------------------------------------------------------------

    Molecular point group: c1
  Charge       = 0
  Multiplicity = 1
  Basis Set: AUG-CC-PVTZ
    Blend: AUG-CC-PVTZ
  Basis Set: (AUG-CC-PVTZ AUX)
    Blend: AUG-CC-PVTZ-JKFIT

    Orbital Energies [Eh]
    ---------------------

    Doubly Occupied:

       1A    -15.535363     2A    -11.268033     3A    -11.243522
       4A    -11.232809     5A    -11.224234     6A    -11.220182
       7A    -11.217327     8A    -11.208115     9A     -1.230074
      10A     -1.062642    11A     -1.024145    12A     -0.998236
      13A     -0.888408    14A     -0.854981    15A     -0.825534
      16A     -0.702833    17A     -0.659848    18A     -0.643943
      19A     -0.600692    20A     -0.591537    21A     -0.588871
      22A     -0.560086    23A     -0.538316    24A     -0.521822
      25A     -0.519822    26A     -0.513387    27A     -0.508543
      28A     -0.488798    29A     -0.482143    30A     -0.470848
      31A     -0.391694    32A     -0.371968

  @DF-RHF Final Energy:  -328.35960725520158

   => Energetics <=

    Nuclear Repulsion Energy =            389.0014137673562686
    One-Electron Energy =               -1214.3445290005349761
    Two-Electron Energy =                 496.9835079779770695
    Total Energy =                       -328.3596072552015812
  Basis Set: (AUG-CC-PVTZ AUX)
    Blend: AUG-CC-PVTZ-RI
    Molecular point group: c1

    Geometry (in Angstrom), charge = 0, multiplicity = 1:

       Center              X                  Y                   Z               Mass
    ------------   -----------------  -----------------  -----------------  -----------------
         N           -0.508293823625    -0.922329490551    -0.023601732963    14.003074004430
         C            0.433181576375    -0.107205390551    -0.045787132963    12.000000000000
         C            1.726447176375    -0.478939490551    -0.730896732963    12.000000000000
         C            0.469698176375     1.307337509449     0.617160267037    12.000000000000
         C            2.792059176375    -0.969665490551     0.254404267037    12.000000000000
         C           -0.161397823625     2.350927509449    -0.312708732963    12.000000000000
         C           -1.773728823625    -0.620599490551     0.634947267037    12.000000000000
         C           -2.894823823625    -0.688417490551    -0.397253732963    12.000000000000
         H            2.115580176375     0.370688509449    -1.307600732963     1.007825032230
         H            1.473016176375    -1.277724490551    -1.432986732963     1.007825032230
         H           -0.048747823625     1.301810509449     1.580592267037     1.007825032230
         H            1.507615176375     1.587974509449     0.825730267037     1.007825032230
         H            3.058324176375    -0.195737490551     0.980706267037     1.007825032230
         H            2.418839176375    -1.838583490551     0.803038267037     1.007825032230
         H            3.705388176375    -1.261973490551    -0.271974732963     1.007825032230
         H            0.350107176375     2.368555509449    -1.279519732963     1.007825032230
         H           -0.096964823625     3.352557509449     0.122653267037     1.007825032230
         H           -1.214990823625     2.124212509449    -0.495452732963     1.007825032230
         H           -1.931922823625    -1.396516490551     1.393514267037     1.007825032230
         H           -1.799610823625     0.348861509449     1.149928267037     1.007825032230
         H           -3.870707823625    -0.548331490551     0.077605267037     1.007825032230
         H           -2.764150823625     0.089737509449    -1.154525732963     1.007825032230
         H           -2.881484823625    -1.657688490551    -0.900311732963     1.007825032230

  Basis Set: AUG-CC-PVTZ
    Blend: AUG-CC-PVTZ
  Basis Set: (AUG-CC-PVTZ AUX)
    Blend: AUG-CC-PVTZ-JKFIT
	 Reference Energy          =    -328.3596072552015812 [Eh]
	 Singles Energy            =      -0.0000000000000000 [Eh]
	 Same-Spin Energy          =      -0.3487715169565494 [Eh]
	 Opposite-Spin Energy      =      -1.2458553944419621 [Eh]
	 Correlation Energy        =      -1.5946269113985116 [Eh]
	 Total Energy              =    -329.9542341666000880 [Eh]

	 ================> DF-SCS-MP2 Energies <==================
	-----------------------------------------------------------
	 SCS Same-Spin Scale       =       0.3333333333333333 [-]
	 SCS Opposite-Spin Scale   =       1.2000000000000000 [-]
	 SCS Same-Spin Energy      =      -0.1162571723188498 [Eh]
	 SCS Opposite-Spin Energy  =      -1.4950264733303544 [Eh]
	 SCS Correlation Energy    =      -1.6112836456492041 [Eh]
	 SCS Total Energy          =    -329.9708909008508044 [Eh]
	-----------------------------------------------------------

  Dipole Moment: [D]
     X:     0.3257      Y:     1.5713      Z:     0.6059     Total:     1.7153

*** Psi4 exiting successfully. Buy a developer a beer!
