                               Psi4 1.3.2 release

  ==> Input File <==

--------------------------------------------------------------------------
#psi4
#
memory 32 gb

molecule  {
0 1
  N       -0.5109270    -0.9518430    -0.0269340
  C        0.4568270    -0.1006020    -0.0211380
  C        1.7238140    -0.5084530    -0.7342290
  C        0.4670650     1.2778240     0.6138280
  C        2.7894260    -0.9991790     0.2510720
  C       -0.1640310     2.3214140    -0.3160410
  C       -1.6027888    -0.6914998     0.5412852
  C       -2.8974570    -0.7179310    -0.4005860
  H        2.1129470     0.3411750    -1.3109330
  H        1.4703830    -1.3072380    -1.4363190
  H       -0.0513810     1.2722970     1.5772600
  H        1.5049820     1.5584610     0.8223980
  H        3.0556910    -0.2252510     0.9773740
  H        2.4162060    -1.8680970     0.7997060
  H        3.7027550    -1.2914870    -0.2753070
  H        0.3474740     2.3390420    -1.2828520
  H       -0.0995980     3.3230440     0.1193210
  H       -1.2176240     2.0946990    -0.4987850
  H       -1.9345560    -1.4260300     1.3901820
  H       -1.8022440     0.3193480     1.1465960
  H       -3.8733410    -0.5778450     0.0742730
  H       -2.7667840     0.0602240    -1.1578580
  H       -2.8841180    -1.6872020    -0.9036440
units angstrom
no_reorient  #important for SAPT in psi4, default
symmetry c1  #important for SAPT in psi4, default
}

set PROPERTIES_ORIGIN ["COM"]
properties('MP2/aug-cc-pvtz', properties = ['dipole'])
--------------------------------------------------------------------------

    Molecular point group: c1
  Charge       = 0
  Multiplicity = 1
  Basis Set: AUG-CC-PVTZ
    Blend: AUG-CC-PVTZ
  Basis Set: (AUG-CC-PVTZ AUX)
    Blend: AUG-CC-PVTZ-JKFIT

    Orbital Energies [Eh]
    ---------------------

    Doubly Occupied:

       1A    -15.536526     2A    -11.284549     3A    -11.247847
       4A    -11.236901     5A    -11.227947     6A    -11.226158
       7A    -11.221323     8A    -11.207303     9A     -1.271256
      10A     -1.081664    11A     -1.029711    12A     -0.978572
      13A     -0.904604    14A     -0.862308    15A     -0.823142
      16A     -0.713152    17A     -0.672846    18A     -0.651248
      19A     -0.603860    20A     -0.595588    21A     -0.583025
      22A     -0.573637    23A     -0.542462    24A     -0.530592
      25A     -0.524651    26A     -0.515441    27A     -0.499283
      28A     -0.491530    29A     -0.488440    30A     -0.457647
      31A     -0.371023    32A     -0.361181

  @DF-RHF Final Energy:  -328.31209510628321

   => Energetics <=

    Nuclear Repulsion Energy =            391.7090444395956297
    One-Electron Energy =               -1219.4114464550027606
    Two-Electron Energy =                 499.3903069091239786
    Total Energy =                       -328.3120951062832091
  Basis Set: (AUG-CC-PVTZ AUX)
    Blend: AUG-CC-PVTZ-RI
    Molecular point group: c1

    Geometry (in Angstrom), charge = 0, multiplicity = 1:

       Center              X                  Y                   Z               Mass
    ------------   -----------------  -----------------  -----------------  -----------------
         N           -0.529494425381    -0.921770451047    -0.016987713983    14.003074004430
         C            0.438259574619    -0.070529451047    -0.011191713983    12.000000000000
         C            1.705246574619    -0.478380451047    -0.724282713983    12.000000000000
         C            0.448497574619     1.307896548953     0.623774286017    12.000000000000
         C            2.770858574619    -0.969106451047     0.261018286017    12.000000000000
         C           -0.182598425381     2.351486548953    -0.306094713983    12.000000000000
         C           -1.621356225381    -0.661427251047     0.551231486017    12.000000000000
         C           -2.916024425381    -0.687858451047    -0.390639713983    12.000000000000
         H            2.094379574619     0.371247548953    -1.300986713983     1.007825032230
         H            1.451815574619    -1.277165451047    -1.426372713983     1.007825032230
         H           -0.069948425381     1.302369548953     1.587206286017     1.007825032230
         H            1.486414574619     1.588533548953     0.832344286017     1.007825032230
         H            3.037123574619    -0.195178451047     0.987320286017     1.007825032230
         H            2.397638574619    -1.838024451047     0.809652286017     1.007825032230
         H            3.684187574619    -1.261414451047    -0.265360713983     1.007825032230
         H            0.328906574619     2.369114548953    -1.272905713983     1.007825032230
         H           -0.118165425381     3.353116548953     0.129267286017     1.007825032230
         H           -1.236191425381     2.124771548953    -0.488838713983     1.007825032230
         H           -1.953123425381    -1.395957451047     1.400128286017     1.007825032230
         H           -1.820811425381     0.349420548953     1.156542286017     1.007825032230
         H           -3.891908425381    -0.547772451047     0.084219286017     1.007825032230
         H           -2.785351425381     0.090296548953    -1.147911713983     1.007825032230
         H           -2.902685425381    -1.657129451047    -0.893697713983     1.007825032230

  Basis Set: AUG-CC-PVTZ
    Blend: AUG-CC-PVTZ
  Basis Set: (AUG-CC-PVTZ AUX)
    Blend: AUG-CC-PVTZ-JKFIT
	 Reference Energy          =    -328.3120951062832091 [Eh]
	 Singles Energy            =      -0.0000000000000000 [Eh]
	 Same-Spin Energy          =      -0.3527488973678522 [Eh]
	 Opposite-Spin Energy      =      -1.2501186322148479 [Eh]
	 Correlation Energy        =      -1.6028675295827002 [Eh]
	 Total Energy              =    -329.9149626358658907 [Eh]

	 ================> DF-SCS-MP2 Energies <==================
	-----------------------------------------------------------
	 SCS Same-Spin Scale       =       0.3333333333333333 [-]
	 SCS Opposite-Spin Scale   =       1.2000000000000000 [-]
	 SCS Same-Spin Energy      =      -0.1175829657892841 [Eh]
	 SCS Opposite-Spin Energy  =      -1.5001423586578173 [Eh]
	 SCS Correlation Energy    =      -1.6177253244471013 [Eh]
	 SCS Total Energy          =    -329.9298204307303308 [Eh]
	-----------------------------------------------------------

  Dipole Moment: [D]
     X:     0.7708      Y:     1.5923      Z:     0.4185     Total:     1.8179

*** Psi4 exiting successfully. Buy a developer a beer!
