                               Psi4 1.3.2 release

  ==> Input File <==

--------------------------------------------------------------------------
#psi4
#
memory 32 gb

molecule  {
0 1
  N       -0.4614774    -0.8166761     0.0238414
  C        0.4568270    -0.1006020    -0.0211380
  C        1.7238140    -0.5084530    -0.7342290
  C        0.4670650     1.2778240     0.6138280
  C        2.7894260    -0.9991790     0.2510720
  C       -0.1640310     2.3214140    -0.3160410
  C       -1.7763620    -0.6501130     0.6316150
  C       -2.8974570    -0.7179310    -0.4005860
  H        2.1129470     0.3411750    -1.3109330
  H        1.4703830    -1.3072380    -1.4363190
  H       -0.0513810     1.2722970     1.5772600
  H        1.5049820     1.5584610     0.8223980
  H        3.0556910    -0.2252510     0.9773740
  H        2.4162060    -1.8680970     0.7997060
  H        3.7027550    -1.2914870    -0.2753070
  H        0.3474740     2.3390420    -1.2828520
  H       -0.0995980     3.3230440     0.1193210
  H       -1.2176240     2.0946990    -0.4987850
  H       -1.9345560    -1.4260300     1.3901820
  H       -1.8022440     0.3193480     1.1465960
  H       -3.8733410    -0.5778450     0.0742730
  H       -2.7667840     0.0602240    -1.1578580
  H       -2.8841180    -1.6872020    -0.9036440
units angstrom
no_reorient  #important for SAPT in psi4, default
symmetry c1  #important for SAPT in psi4, default
}

set PROPERTIES_ORIGIN ["COM"]
properties('MP2/aug-cc-pvtz', properties = ['dipole'])
--------------------------------------------------------------------------

    Molecular point group: c1
  Charge       = 0
  Multiplicity = 1
  Basis Set: AUG-CC-PVTZ
    Blend: AUG-CC-PVTZ
  Basis Set: (AUG-CC-PVTZ AUX)
    Blend: AUG-CC-PVTZ-JKFIT

    Orbital Energies [Eh]
    ---------------------

    Doubly Occupied:

       1A    -15.515704     2A    -11.249743     3A    -11.249090
       4A    -11.221605     5A    -11.220983     6A    -11.215819
       7A    -11.214901     8A    -11.212713     9A     -1.257311
      10A     -1.060630    11A     -1.023073    12A     -1.006961
      13A     -0.888033    14A     -0.857705    15A     -0.833006
      16A     -0.696061    17A     -0.659977    18A     -0.652030
      19A     -0.600315    20A     -0.595420    21A     -0.589535
      22A     -0.567612    23A     -0.537976    24A     -0.523582
      25A     -0.521745    26A     -0.514087    27A     -0.507975
      28A     -0.485954    29A     -0.484982    30A     -0.477400
      31A     -0.409841    32A     -0.344770

  @DF-RHF Final Energy:  -328.34542592337982

   => Energetics <=

    Nuclear Repulsion Energy =            391.8452539134640915
    One-Electron Energy =               -1219.9882816961132903
    Two-Electron Energy =                 499.7976018592693208
    Total Energy =                       -328.3454259233798211
  Basis Set: (AUG-CC-PVTZ AUX)
    Blend: AUG-CC-PVTZ-RI
    Molecular point group: c1

    Geometry (in Angstrom), charge = 0, multiplicity = 1:

       Center              X                  Y                   Z               Mass
    ------------   -----------------  -----------------  -----------------  -----------------
         N           -0.467753219416    -0.807726113010     0.017919915937    14.003074004430
         C            0.450551180584    -0.091652013010    -0.027059484063    12.000000000000
         C            1.717538180584    -0.499503013010    -0.740150484063    12.000000000000
         C            0.460789180584     1.286773986990     0.607906515937    12.000000000000
         C            2.783150180584    -0.990229013010     0.245150515937    12.000000000000
         C           -0.170306819416     2.330363986990    -0.321962484063    12.000000000000
         C           -1.782637819416    -0.641163013010     0.625693515937    12.000000000000
         C           -2.903732819416    -0.708981013010    -0.406507484063    12.000000000000
         H            2.106671180584     0.350124986990    -1.316854484063     1.007825032230
         H            1.464107180584    -1.298288013010    -1.442240484063     1.007825032230
         H           -0.057656819416     1.281246986990     1.571338515937     1.007825032230
         H            1.498706180584     1.567410986990     0.816476515937     1.007825032230
         H            3.049415180584    -0.216301013010     0.971452515937     1.007825032230
         H            2.409930180584    -1.859147013010     0.793784515937     1.007825032230
         H            3.696479180584    -1.282537013010    -0.281228484063     1.007825032230
         H            0.341198180584     2.347991986990    -1.288773484063     1.007825032230
         H           -0.105873819416     3.331993986990     0.113399515937     1.007825032230
         H           -1.223899819416     2.103648986990    -0.504706484063     1.007825032230
         H           -1.940831819416    -1.417080013010     1.384260515937     1.007825032230
         H           -1.808519819416     0.328297986990     1.140674515937     1.007825032230
         H           -3.879616819416    -0.568895013010     0.068351515937     1.007825032230
         H           -2.773059819416     0.069173986990    -1.163779484063     1.007825032230
         H           -2.890393819416    -1.678252013010    -0.909565484063     1.007825032230

  Basis Set: AUG-CC-PVTZ
    Blend: AUG-CC-PVTZ
  Basis Set: (AUG-CC-PVTZ AUX)
    Blend: AUG-CC-PVTZ-JKFIT
	 Reference Energy          =    -328.3454259233798211 [Eh]
	 Singles Energy            =      -0.0000000000000000 [Eh]
	 Same-Spin Energy          =      -0.3477800582146499 [Eh]
	 Opposite-Spin Energy      =      -1.2421446402882310 [Eh]
	 Correlation Energy        =      -1.5899246985028810 [Eh]
	 Total Energy              =    -329.9353506218827192 [Eh]

	 ================> DF-SCS-MP2 Energies <==================
	-----------------------------------------------------------
	 SCS Same-Spin Scale       =       0.3333333333333333 [-]
	 SCS Opposite-Spin Scale   =       1.2000000000000000 [-]
	 SCS Same-Spin Energy      =      -0.1159266860715500 [Eh]
	 SCS Opposite-Spin Energy  =      -1.4905735683458772 [Eh]
	 SCS Correlation Energy    =      -1.6065002544174272 [Eh]
	 SCS Total Energy          =    -329.9519261777972474 [Eh]
	-----------------------------------------------------------

  Dipole Moment: [D]
     X:     0.0540      Y:     1.2803      Z:     0.5324     Total:     1.3877

*** Psi4 exiting successfully. Buy a developer a beer!
