                               Psi4 1.3.2 release

  ==> Input File <==

--------------------------------------------------------------------------
#psi4
#
memory 32 gb

molecule  {
0 1
  N       -0.5109270    -0.9518430    -0.0269340
  C        0.4159776    -0.0765386    -0.1152692
  C        1.7238140    -0.5084530    -0.7342290
  C        0.4670650     1.2778240     0.6138280
  C        2.7894260    -0.9991790     0.2510720
  C       -0.1640310     2.3214140    -0.3160410
  C       -1.7763620    -0.6501130     0.6316150
  C       -2.8974570    -0.7179310    -0.4005860
  H        2.1129470     0.3411750    -1.3109330
  H        1.4703830    -1.3072380    -1.4363190
  H       -0.0513810     1.2722970     1.5772600
  H        1.5049820     1.5584610     0.8223980
  H        3.0556910    -0.2252510     0.9773740
  H        2.4162060    -1.8680970     0.7997060
  H        3.7027550    -1.2914870    -0.2753070
  H        0.3474740     2.3390420    -1.2828520
  H       -0.0995980     3.3230440     0.1193210
  H       -1.2176240     2.0946990    -0.4987850
  H       -1.9345560    -1.4260300     1.3901820
  H       -1.8022440     0.3193480     1.1465960
  H       -3.8733410    -0.5778450     0.0742730
  H       -2.7667840     0.0602240    -1.1578580
  H       -2.8841180    -1.6872020    -0.9036440
units angstrom
no_reorient  #important for SAPT in psi4, default
symmetry c1  #important for SAPT in psi4, default
}

set PROPERTIES_ORIGIN ["COM"]
properties('MP2/aug-cc-pvtz', properties = ['dipole'])
--------------------------------------------------------------------------

    Molecular point group: c1
  Charge       = 0
  Multiplicity = 1
  Basis Set: AUG-CC-PVTZ
    Blend: AUG-CC-PVTZ
  Basis Set: (AUG-CC-PVTZ AUX)
    Blend: AUG-CC-PVTZ-JKFIT

    Orbital Energies [Eh]
    ---------------------

    Doubly Occupied:

       1A    -15.539310     2A    -11.271749     3A    -11.242186
       4A    -11.233756     5A    -11.224291     6A    -11.221212
       7A    -11.218582     8A    -11.207555     9A     -1.219592
      10A     -1.064906    11A     -1.025702    12A     -0.994380
      13A     -0.890641    14A     -0.855647    15A     -0.823733
      16A     -0.704335    17A     -0.662019    18A     -0.642711
      19A     -0.599734    20A     -0.589649    21A     -0.588992
      22A     -0.559267    23A     -0.537829    24A     -0.523221
      25A     -0.520227    26A     -0.514712    27A     -0.507080
      28A     -0.488293    29A     -0.481449    30A     -0.469653
      31A     -0.384124    32A     -0.375286

  @DF-RHF Final Energy:  -328.35478692470900

   => Energetics <=

    Nuclear Repulsion Energy =            388.8105358174658477
    One-Electron Energy =               -1213.9669923271492280
    Two-Electron Energy =                 496.8016695849743769
    Total Energy =                       -328.3547869247090034
  Basis Set: (AUG-CC-PVTZ AUX)
    Blend: AUG-CC-PVTZ-RI
    Molecular point group: c1

    Geometry (in Angstrom), charge = 0, multiplicity = 1:

       Center              X                  Y                   Z               Mass
    ------------   -----------------  -----------------  -----------------  -----------------
         N           -0.506748129626    -0.928713513982    -0.016584455331    14.003074004430
         C            0.420156470374    -0.053409113982    -0.104919655331    12.000000000000
         C            1.727992870374    -0.485323513982    -0.723879455331    12.000000000000
         C            0.471243870374     1.300953486018     0.624177544669    12.000000000000
         C            2.793604870374    -0.976049513982     0.261421544669    12.000000000000
         C           -0.159852129626     2.344543486018    -0.305691455331    12.000000000000
         C           -1.772183129626    -0.626983513982     0.641964544669    12.000000000000
         C           -2.893278129626    -0.694801513982    -0.390236455331    12.000000000000
         H            2.117125870374     0.364304486018    -1.300583455331     1.007825032230
         H            1.474561870374    -1.284108513982    -1.425969455331     1.007825032230
         H           -0.047202129626     1.295426486018     1.587609544669     1.007825032230
         H            1.509160870374     1.581590486018     0.832747544669     1.007825032230
         H            3.059869870374    -0.202121513982     0.987723544669     1.007825032230
         H            2.420384870374    -1.844967513982     0.810055544669     1.007825032230
         H            3.706933870374    -1.268357513982    -0.264957455331     1.007825032230
         H            0.351652870374     2.362171486018    -1.272502455331     1.007825032230
         H           -0.095419129626     3.346173486018     0.129670544669     1.007825032230
         H           -1.213445129626     2.117828486018    -0.488435455331     1.007825032230
         H           -1.930377129626    -1.402900513982     1.400531544669     1.007825032230
         H           -1.798065129626     0.342477486018     1.156945544669     1.007825032230
         H           -3.869162129626    -0.554715513982     0.084622544669     1.007825032230
         H           -2.762605129626     0.083353486018    -1.147508455331     1.007825032230
         H           -2.879939129626    -1.664072513982    -0.893294455331     1.007825032230

  Basis Set: AUG-CC-PVTZ
    Blend: AUG-CC-PVTZ
  Basis Set: (AUG-CC-PVTZ AUX)
    Blend: AUG-CC-PVTZ-JKFIT
	 Reference Energy          =    -328.3547869247090034 [Eh]
	 Singles Energy            =      -0.0000000000000000 [Eh]
	 Same-Spin Energy          =      -0.3497737293766330 [Eh]
	 Opposite-Spin Energy      =      -1.2480097755393373 [Eh]
	 Correlation Energy        =      -1.5977835049159703 [Eh]
	 Total Energy              =    -329.9525704296249842 [Eh]

	 ================> DF-SCS-MP2 Energies <==================
	-----------------------------------------------------------
	 SCS Same-Spin Scale       =       0.3333333333333333 [-]
	 SCS Opposite-Spin Scale   =       1.2000000000000000 [-]
	 SCS Same-Spin Energy      =      -0.1165912431255443 [Eh]
	 SCS Opposite-Spin Energy  =      -1.4976117306472048 [Eh]
	 SCS Correlation Energy    =      -1.6142029737727490 [Eh]
	 SCS Total Energy          =    -329.9689898984817660 [Eh]
	-----------------------------------------------------------

  Dipole Moment: [D]
     X:     0.3709      Y:     1.6107      Z:     0.6498     Total:     1.7760

*** Psi4 exiting successfully. Buy a developer a beer!
