                               Psi4 1.3.2 release

  ==> Input File <==

--------------------------------------------------------------------------
#psi4
#
memory 32 gb

molecule  {
0 1
  N       -0.5109270    -0.9518430    -0.0269340
  C        0.5319123    -0.0345566    -0.0206883
  C        1.7238140    -0.5084530    -0.7342290
  C        0.4670650     1.2778240     0.6138280
  C        2.7894260    -0.9991790     0.2510720
  C       -0.1640310     2.3214140    -0.3160410
  C       -1.7763620    -0.6501130     0.6316150
  C       -2.8974570    -0.7179310    -0.4005860
  H        2.1129470     0.3411750    -1.3109330
  H        1.4703830    -1.3072380    -1.4363190
  H       -0.0513810     1.2722970     1.5772600
  H        1.5049820     1.5584610     0.8223980
  H        3.0556910    -0.2252510     0.9773740
  H        2.4162060    -1.8680970     0.7997060
  H        3.7027550    -1.2914870    -0.2753070
  H        0.3474740     2.3390420    -1.2828520
  H       -0.0995980     3.3230440     0.1193210
  H       -1.2176240     2.0946990    -0.4987850
  H       -1.9345560    -1.4260300     1.3901820
  H       -1.8022440     0.3193480     1.1465960
  H       -3.8733410    -0.5778450     0.0742730
  H       -2.7667840     0.0602240    -1.1578580
  H       -2.8841180    -1.6872020    -0.9036440
units angstrom
no_reorient  #important for SAPT in psi4, default
symmetry c1  #important for SAPT in psi4, default
}

set PROPERTIES_ORIGIN ["COM"]
properties('MP2/aug-cc-pvtz', properties = ['dipole'])
--------------------------------------------------------------------------

    Molecular point group: c1
  Charge       = 0
  Multiplicity = 1
  Basis Set: AUG-CC-PVTZ
    Blend: AUG-CC-PVTZ
  Basis Set: (AUG-CC-PVTZ AUX)
    Blend: AUG-CC-PVTZ-JKFIT

    Orbital Energies [Eh]
    ---------------------

    Doubly Occupied:

       1A    -15.543610     2A    -11.281979     3A    -11.236736
       4A    -11.235429     5A    -11.229725     6A    -11.224106
       7A    -11.219715     8A    -11.203889     9A     -1.189592
      10A     -1.075943    11A     -1.033741    12A     -0.980878
      13A     -0.900039    14A     -0.864787    15A     -0.813073
      16A     -0.708772    17A     -0.667235    18A     -0.642849
      19A     -0.600518    20A     -0.592748    21A     -0.586375
      22A     -0.557815    23A     -0.542424    24A     -0.524322
      25A     -0.520163    26A     -0.513137    27A     -0.507069
      28A     -0.490086    29A     -0.485198    30A     -0.467391
      31A     -0.384848    32A     -0.350263

  @DF-RHF Final Energy:  -328.33594454058306

   => Energetics <=

    Nuclear Repulsion Energy =            388.3812111492795225
    One-Electron Energy =               -1213.0854013463067531
    Two-Electron Energy =                 496.3682456564441168
    Total Energy =                       -328.3359445405830570
  Basis Set: (AUG-CC-PVTZ AUX)
    Blend: AUG-CC-PVTZ-RI
    Molecular point group: c1

    Geometry (in Angstrom), charge = 0, multiplicity = 1:

       Center              X                  Y                   Z               Mass
    ------------   -----------------  -----------------  -----------------  -----------------
         N           -0.519046669866    -0.933167032353    -0.026617749975    14.003074004430
         C            0.523792630134    -0.015880632353    -0.020372049975    12.000000000000
         C            1.715694330134    -0.489777032353    -0.733912749975    12.000000000000
         C            0.458945330134     1.296499967647     0.614144250025    12.000000000000
         C            2.781306330134    -0.980503032353     0.251388250025    12.000000000000
         C           -0.172150669866     2.340089967647    -0.315724749975    12.000000000000
         C           -1.784481669866    -0.631437032353     0.631931250025    12.000000000000
         C           -2.905576669866    -0.699255032353    -0.400269749975    12.000000000000
         H            2.104827330134     0.359850967647    -1.310616749975     1.007825032230
         H            1.462263330134    -1.288562032353    -1.436002749975     1.007825032230
         H           -0.059500669866     1.290972967647     1.577576250025     1.007825032230
         H            1.496862330134     1.577136967647     0.822714250025     1.007825032230
         H            3.047571330134    -0.206575032353     0.977690250025     1.007825032230
         H            2.408086330134    -1.849421032353     0.800022250025     1.007825032230
         H            3.694635330134    -1.272811032353    -0.274990749975     1.007825032230
         H            0.339354330134     2.357717967647    -1.282535749975     1.007825032230
         H           -0.107717669866     3.341719967647     0.119637250025     1.007825032230
         H           -1.225743669866     2.113374967647    -0.498468749975     1.007825032230
         H           -1.942675669866    -1.407354032353     1.390498250025     1.007825032230
         H           -1.810363669866     0.338023967647     1.146912250025     1.007825032230
         H           -3.881460669866    -0.559169032353     0.074589250025     1.007825032230
         H           -2.774903669866     0.078899967647    -1.157541749975     1.007825032230
         H           -2.892237669866    -1.668526032353    -0.903327749975     1.007825032230

  Basis Set: AUG-CC-PVTZ
    Blend: AUG-CC-PVTZ
  Basis Set: (AUG-CC-PVTZ AUX)
    Blend: AUG-CC-PVTZ-JKFIT
	 Reference Energy          =    -328.3359445405830570 [Eh]
	 Singles Energy            =      -0.0000000000000000 [Eh]
	 Same-Spin Energy          =      -0.3533131216943319 [Eh]
	 Opposite-Spin Energy      =      -1.2543199788015087 [Eh]
	 Correlation Energy        =      -1.6076331004958406 [Eh]
	 Total Energy              =    -329.9435776410788890 [Eh]

	 ================> DF-SCS-MP2 Energies <==================
	-----------------------------------------------------------
	 SCS Same-Spin Scale       =       0.3333333333333333 [-]
	 SCS Opposite-Spin Scale   =       1.2000000000000000 [-]
	 SCS Same-Spin Energy      =      -0.1177710405647773 [Eh]
	 SCS Opposite-Spin Energy  =      -1.5051839745618103 [Eh]
	 SCS Correlation Energy    =      -1.6229550151265877 [Eh]
	 SCS Total Energy          =    -329.9588995557096496 [Eh]
	-----------------------------------------------------------

  Dipole Moment: [D]
     X:     0.5551      Y:     1.8277      Z:     0.5971     Total:     2.0013

*** Psi4 exiting successfully. Buy a developer a beer!
