                               Psi4 1.4a3.dev225

  ==> Input File <==

--------------------------------------------------------------------------
#psi4
#
memory 32 gb

molecule  {
0 1
  N       -0.5109430    -0.9518430    -0.0269260
  C        0.4568240    -0.1006160    -0.0211450
  C        1.7657515    -0.5220669    -0.7578419
  C        0.4670880     1.2778150     0.6137790
  C        2.7894950    -0.9990730     0.2510970
  C       -0.1640680     2.3213990    -0.3160610
  C       -1.7763790    -0.6500710     0.6316310
  C       -2.8974700    -0.7179400    -0.4005630
  H        2.1128780     0.3409680    -1.3111240
  H        1.4703470    -1.3074830    -1.4361490
  H       -0.0513130     1.2723030     1.5772340
  H        1.5050160     1.5584520     0.8222760
  H        3.0557420    -0.2250230     0.9772740
  H        2.4163470    -1.8679380     0.7998630
  H        3.7028160    -1.2913930    -0.2752870
  H        0.3476260     2.3392860    -1.2827640
  H       -0.0999350     3.3229720     0.1194750
  H       -1.2175750     2.0944730    -0.4990280
  H       -1.9345660    -1.4259490     1.3902370
  H       -1.8022330     0.3194130     1.1465770
  H       -3.8733550    -0.5777970     0.0742800
  H       -2.7667810     0.0601400    -1.1579070
  H       -2.8841480    -1.6872580    -0.9035300
units angstrom
no_reorient  #important for SAPT in psi4, default
symmetry c1  #important for SAPT in psi4, default
}

set PROPERTIES_ORIGIN ["COM"]
properties('MP2/aug-cc-pvtz', properties = ['dipole'])
--------------------------------------------------------------------------

    Molecular point group: c1
  Charge       = 0
  Multiplicity = 1
  Basis Set: AUG-CC-PVTZ
    Blend: AUG-CC-PVTZ
  Basis Set: (AUG-CC-PVTZ AUX)
    Blend: AUG-CC-PVTZ-JKFIT

    Orbital Energies [Eh]
    ---------------------

    Doubly Occupied:

       1A    -15.538570     2A    -11.273890     3A    -11.240887
       4A    -11.234050     5A    -11.226649     6A    -11.221003
       7A    -11.216031     8A    -11.206607     9A     -1.213626
      10A     -1.064779    11A     -1.027645    12A     -0.993839
      13A     -0.888907    14A     -0.857087    15A     -0.821940
      16A     -0.703629    17A     -0.661546    18A     -0.641486
      19A     -0.601286    20A     -0.591776    21A     -0.589588
      22A     -0.557118    23A     -0.539453    24A     -0.522524
      25A     -0.519940    26A     -0.517199    27A     -0.508316
      28A     -0.488882    29A     -0.486490    30A     -0.464151
      31A     -0.380005    32A     -0.375987

  @DF-RHF Final Energy:  -328.35719365071441

   => Energetics <=

    Nuclear Repulsion Energy =            388.1183799603167017
    One-Electron Energy =               -1212.6013790652471016
    Two-Electron Energy =                 496.1258054542159925
    Total Energy =                       -328.3571936507144073
  Basis Set: (AUG-CC-PVTZ AUX)
    Blend: AUG-CC-PVTZ-RI
    Molecular point group: c1

    Geometry (in Angstrom), charge = 0, multiplicity = 1:

       Center              X                  Y                   Z               Mass
    ------------   -----------------  -----------------  -----------------  -----------------
         N           -0.515547310159    -0.924727591024    -0.024057001472    14.003074004430
         C            0.452219689841    -0.073500591024    -0.018276001472    12.000000000000
         C            1.761147189841    -0.494951491024    -0.754972901472    12.000000000000
         C            0.462483689841     1.304930408976     0.616647998528    12.000000000000
         C            2.784890689841    -0.971957591024     0.253965998528    12.000000000000
         C           -0.168672310159     2.348514408976    -0.313192001472    12.000000000000
         C           -1.780983310159    -0.622955591024     0.634499998528    12.000000000000
         C           -2.902074310159    -0.690824591024    -0.397694001472    12.000000000000
         H            2.108273689841     0.368083408976    -1.308255001472     1.007825032230
         H            1.465742689841    -1.280367591024    -1.433280001472     1.007825032230
         H           -0.055917310159     1.299418408976     1.580102998528     1.007825032230
         H            1.500411689841     1.585567408976     0.825144998528     1.007825032230
         H            3.051137689841    -0.197907591024     0.980142998528     1.007825032230
         H            2.411742689841    -1.840822591024     0.802731998528     1.007825032230
         H            3.698211689841    -1.264277591024    -0.272418001472     1.007825032230
         H            0.343021689841     2.366401408976    -1.279895001472     1.007825032230
         H           -0.104539310159     3.350087408976     0.122343998528     1.007825032230
         H           -1.222179310159     2.121588408976    -0.496159001472     1.007825032230
         H           -1.939170310159    -1.398833591024     1.393105998528     1.007825032230
         H           -1.806837310159     0.346528408976     1.149445998528     1.007825032230
         H           -3.877959310159    -0.550681591024     0.077148998528     1.007825032230
         H           -2.771385310159     0.087255408976    -1.155038001472     1.007825032230
         H           -2.888752310159    -1.660142591024    -0.900661001472     1.007825032230

  Basis Set: AUG-CC-PVTZ
    Blend: AUG-CC-PVTZ
  Basis Set: (AUG-CC-PVTZ AUX)
    Blend: AUG-CC-PVTZ-JKFIT
	 Reference Energy          =    -328.3571936507144073 [Eh]
	 Singles Energy            =      -0.0000000000000000 [Eh]
	 Same-Spin Energy          =      -0.3496924087760798 [Eh]
	 Opposite-Spin Energy      =      -1.2479228385059682 [Eh]
	 Correlation Energy        =      -1.5976152472820480 [Eh]
	 Total Energy              =    -329.9548088979964291 [Eh]

	 ================> DF-SCS-MP2 Energies <==================
	-----------------------------------------------------------
	 SCS Same-Spin Scale       =       0.3333333333333333 [-]
	 SCS Opposite-Spin Scale   =       1.2000000000000000 [-]
	 SCS Same-Spin Energy      =      -0.1165641362586932 [Eh]
	 SCS Opposite-Spin Energy  =      -1.4975074062071618 [Eh]
	 SCS Correlation Energy    =      -1.6140715424658552 [Eh]
	 SCS Total Energy          =    -329.9712651931802725 [Eh]
	-----------------------------------------------------------

  Dipole Moment: [D]
     X:     0.3630      Y:     1.7119      Z:     0.6236     Total:     1.8578

*** Psi4 exiting successfully. Buy a developer a beer!
