                               Psi4 1.3.2 release

  ==> Input File <==

--------------------------------------------------------------------------
#psi4
#
memory 32 gb

molecule  {
0 1
  N       -0.5109270    -0.9518430    -0.0269340
  C        0.4568270    -0.1006020    -0.0211380
  C        1.7126732    -0.5315442    -0.7403295
  C        0.4670650     1.2778240     0.6138280
  C        2.7894260    -0.9991790     0.2510720
  C       -0.1640310     2.3214140    -0.3160410
  C       -1.7763620    -0.6501130     0.6316150
  C       -2.8974570    -0.7179310    -0.4005860
  H        2.1129470     0.3411750    -1.3109330
  H        1.4703830    -1.3072380    -1.4363190
  H       -0.0513810     1.2722970     1.5772600
  H        1.5049820     1.5584610     0.8223980
  H        3.0556910    -0.2252510     0.9773740
  H        2.4162060    -1.8680970     0.7997060
  H        3.7027550    -1.2914870    -0.2753070
  H        0.3474740     2.3390420    -1.2828520
  H       -0.0995980     3.3230440     0.1193210
  H       -1.2176240     2.0946990    -0.4987850
  H       -1.9345560    -1.4260300     1.3901820
  H       -1.8022440     0.3193480     1.1465960
  H       -3.8733410    -0.5778450     0.0742730
  H       -2.7667840     0.0602240    -1.1578580
  H       -2.8841180    -1.6872020    -0.9036440
units angstrom
no_reorient  #important for SAPT in psi4, default
symmetry c1  #important for SAPT in psi4, default
}

set PROPERTIES_ORIGIN ["COM"]
properties('MP2/aug-cc-pvtz', properties = ['dipole'])
--------------------------------------------------------------------------

    Molecular point group: c1
  Charge       = 0
  Multiplicity = 1
  Basis Set: AUG-CC-PVTZ
    Blend: AUG-CC-PVTZ
  Basis Set: (AUG-CC-PVTZ AUX)
    Blend: AUG-CC-PVTZ-JKFIT

    Orbital Energies [Eh]
    ---------------------

    Doubly Occupied:

       1A    -15.538381     2A    -11.272162     3A    -11.240536
       4A    -11.234646     5A    -11.226695     6A    -11.221392
       7A    -11.217390     8A    -11.206578     9A     -1.215946
      10A     -1.065949    11A     -1.027063    12A     -0.992406
      13A     -0.891150    14A     -0.859133    15A     -0.820842
      16A     -0.705014    17A     -0.663714    18A     -0.641986
      19A     -0.598697    20A     -0.592027    21A     -0.588926
      22A     -0.558552    23A     -0.539932    24A     -0.523047
      25A     -0.519687    26A     -0.510792    27A     -0.508281
      28A     -0.488048    29A     -0.484666    30A     -0.470109
      31A     -0.380059    32A     -0.377836

  @DF-RHF Final Energy:  -328.35840586613620

   => Energetics <=

    Nuclear Repulsion Energy =            388.7625859980452674
    One-Electron Energy =               -1213.8786990141211390
    Two-Electron Energy =                 496.7577071499396197
    Total Energy =                       -328.3584058661361951
  Basis Set: (AUG-CC-PVTZ AUX)
    Blend: AUG-CC-PVTZ-RI
    Molecular point group: c1

    Geometry (in Angstrom), charge = 0, multiplicity = 1:

       Center              X                  Y                   Z               Mass
    ------------   -----------------  -----------------  -----------------  -----------------
         N           -0.509899665901    -0.923711277847    -0.025922894179    14.003074004430
         C            0.457854334099    -0.072470277847    -0.020126894179    12.000000000000
         C            1.713700534099    -0.503412477847    -0.739318394179    12.000000000000
         C            0.468092334099     1.305955722153     0.614839105821    12.000000000000
         C            2.790453334099    -0.971047277847     0.252083105821    12.000000000000
         C           -0.163003665901     2.349545722153    -0.315029894179    12.000000000000
         C           -1.775334665901    -0.621981277847     0.632626105821    12.000000000000
         C           -2.896429665901    -0.689799277847    -0.399574894179    12.000000000000
         H            2.113974334099     0.369306722153    -1.309921894179     1.007825032230
         H            1.471410334099    -1.279106277847    -1.435307894179     1.007825032230
         H           -0.050353665901     1.300428722153     1.578271105821     1.007825032230
         H            1.506009334099     1.586592722153     0.823409105821     1.007825032230
         H            3.056718334099    -0.197119277847     0.978385105821     1.007825032230
         H            2.417233334099    -1.839965277847     0.800717105821     1.007825032230
         H            3.703782334099    -1.263355277847    -0.274295894179     1.007825032230
         H            0.348501334099     2.367173722153    -1.281840894179     1.007825032230
         H           -0.098570665901     3.351175722153     0.120332105821     1.007825032230
         H           -1.216596665901     2.122830722153    -0.497773894179     1.007825032230
         H           -1.933528665901    -1.397898277847     1.391193105821     1.007825032230
         H           -1.801216665901     0.347479722153     1.147607105821     1.007825032230
         H           -3.872313665901    -0.549713277847     0.075284105821     1.007825032230
         H           -2.765756665901     0.088355722153    -1.156846894179     1.007825032230
         H           -2.883090665901    -1.659070277847    -0.902632894179     1.007825032230

  Basis Set: AUG-CC-PVTZ
    Blend: AUG-CC-PVTZ
  Basis Set: (AUG-CC-PVTZ AUX)
    Blend: AUG-CC-PVTZ-JKFIT
	 Reference Energy          =    -328.3584058661361951 [Eh]
	 Singles Energy            =      -0.0000000000000000 [Eh]
	 Same-Spin Energy          =      -0.3498107921174849 [Eh]
	 Opposite-Spin Energy      =      -1.2479753240212070 [Eh]
	 Correlation Energy        =      -1.5977861161386919 [Eh]
	 Total Energy              =    -329.9561919822749019 [Eh]

	 ================> DF-SCS-MP2 Energies <==================
	-----------------------------------------------------------
	 SCS Same-Spin Scale       =       0.3333333333333333 [-]
	 SCS Opposite-Spin Scale   =       1.2000000000000000 [-]
	 SCS Same-Spin Energy      =      -0.1166035973724950 [Eh]
	 SCS Opposite-Spin Energy  =      -1.4975703888254484 [Eh]
	 SCS Correlation Energy    =      -1.6141739861979434 [Eh]
	 SCS Total Energy          =    -329.9725798523341496 [Eh]
	-----------------------------------------------------------

  Dipole Moment: [D]
     X:     0.3911      Y:     1.6982      Z:     0.6163     Total:     1.8484

*** Psi4 exiting successfully. Buy a developer a beer!
