                               Psi4 1.3.2 release

  ==> Input File <==

--------------------------------------------------------------------------
#psi4
#
memory 32 gb

molecule  {
0 1
  N       -0.5516356    -1.0402078    -0.0568070
  C        0.4568270    -0.1006020    -0.0211380
  C        1.7238140    -0.5084530    -0.7342290
  C        0.4670650     1.2778240     0.6138280
  C        2.7894260    -0.9991790     0.2510720
  C       -0.1640310     2.3214140    -0.3160410
  C       -1.7763620    -0.6501130     0.6316150
  C       -2.8974570    -0.7179310    -0.4005860
  H        2.1129470     0.3411750    -1.3109330
  H        1.4703830    -1.3072380    -1.4363190
  H       -0.0513810     1.2722970     1.5772600
  H        1.5049820     1.5584610     0.8223980
  H        3.0556910    -0.2252510     0.9773740
  H        2.4162060    -1.8680970     0.7997060
  H        3.7027550    -1.2914870    -0.2753070
  H        0.3474740     2.3390420    -1.2828520
  H       -0.0995980     3.3230440     0.1193210
  H       -1.2176240     2.0946990    -0.4987850
  H       -1.9345560    -1.4260300     1.3901820
  H       -1.8022440     0.3193480     1.1465960
  H       -3.8733410    -0.5778450     0.0742730
  H       -2.7667840     0.0602240    -1.1578580
  H       -2.8841180    -1.6872020    -0.9036440
units angstrom
no_reorient  #important for SAPT in psi4, default
symmetry c1  #important for SAPT in psi4, default
}

set PROPERTIES_ORIGIN ["COM"]
properties('MP2/aug-cc-pvtz', properties = ['dipole'])
--------------------------------------------------------------------------

    Molecular point group: c1
  Charge       = 0
  Multiplicity = 1
  Basis Set: AUG-CC-PVTZ
    Blend: AUG-CC-PVTZ
  Basis Set: (AUG-CC-PVTZ AUX)
    Blend: AUG-CC-PVTZ-JKFIT

    Orbital Energies [Eh]
    ---------------------

    Doubly Occupied:

       1A    -15.552775     2A    -11.287960     3A    -11.241152
       4A    -11.236778     5A    -11.229868     6A    -11.224583
       7A    -11.218875     8A    -11.203131     9A     -1.192534
      10A     -1.071105    11A     -1.029193    12A     -0.982076
      13A     -0.894833    14A     -0.858988    15A     -0.812558
      16A     -0.710753    17A     -0.663932    18A     -0.638619
      19A     -0.599606    20A     -0.592603    21A     -0.585788
      22A     -0.553246    23A     -0.542441    24A     -0.523786
      25A     -0.519178    26A     -0.510877    27A     -0.507291
      28A     -0.488394    29A     -0.482622    30A     -0.460214
      31A     -0.399580    32A     -0.358004

  @DF-RHF Final Energy:  -328.33920841115145

   => Energetics <=

    Nuclear Repulsion Energy =            386.8571123760395380
    One-Electron Energy =               -1210.0459529689110241
    Two-Electron Energy =                 494.8496321817199828
    Total Energy =                       -328.3392084111514464
  Basis Set: (AUG-CC-PVTZ AUX)
    Blend: AUG-CC-PVTZ-RI
    Molecular point group: c1

    Geometry (in Angstrom), charge = 0, multiplicity = 1:

       Center              X                  Y                   Z               Mass
    ------------   -----------------  -----------------  -----------------  -----------------
         N           -0.546750820670    -1.003587034194    -0.052745094511    14.003074004430
         C            0.461711779330    -0.063981234194    -0.017076094511    12.000000000000
         C            1.728698779330    -0.471832234194    -0.730167094511    12.000000000000
         C            0.471949779330     1.314444765806     0.617889905489    12.000000000000
         C            2.794310779330    -0.962558234194     0.255133905489    12.000000000000
         C           -0.159146220670     2.358034765806    -0.311979094511    12.000000000000
         C           -1.771477220670    -0.613492234194     0.635676905489    12.000000000000
         C           -2.892572220670    -0.681310234194    -0.396524094511    12.000000000000
         H            2.117831779330     0.377795765806    -1.306871094511     1.007825032230
         H            1.475267779330    -1.270617234194    -1.432257094511     1.007825032230
         H           -0.046496220670     1.308917765806     1.581321905489     1.007825032230
         H            1.509866779330     1.595081765806     0.826459905489     1.007825032230
         H            3.060575779330    -0.188630234194     0.981435905489     1.007825032230
         H            2.421090779330    -1.831476234194     0.803767905489     1.007825032230
         H            3.707639779330    -1.254866234194    -0.271245094511     1.007825032230
         H            0.352358779330     2.375662765806    -1.278790094511     1.007825032230
         H           -0.094713220670     3.359664765806     0.123382905489     1.007825032230
         H           -1.212739220670     2.131319765806    -0.494723094511     1.007825032230
         H           -1.929671220670    -1.389409234194     1.394243905489     1.007825032230
         H           -1.797359220670     0.355968765806     1.150657905489     1.007825032230
         H           -3.868456220670    -0.541224234194     0.078334905489     1.007825032230
         H           -2.761899220670     0.096844765806    -1.153796094511     1.007825032230
         H           -2.879233220670    -1.650581234194    -0.899582094511     1.007825032230

  Basis Set: AUG-CC-PVTZ
    Blend: AUG-CC-PVTZ
  Basis Set: (AUG-CC-PVTZ AUX)
    Blend: AUG-CC-PVTZ-JKFIT
	 Reference Energy          =    -328.3392084111514464 [Eh]
	 Singles Energy            =      -0.0000000000000000 [Eh]
	 Same-Spin Energy          =      -0.3524400449431314 [Eh]
	 Opposite-Spin Energy      =      -1.2541757006759529 [Eh]
	 Correlation Energy        =      -1.6066157456190844 [Eh]
	 Total Energy              =    -329.9458241567705272 [Eh]

	 ================> DF-SCS-MP2 Energies <==================
	-----------------------------------------------------------
	 SCS Same-Spin Scale       =       0.3333333333333333 [-]
	 SCS Opposite-Spin Scale   =       1.2000000000000000 [-]
	 SCS Same-Spin Energy      =      -0.1174800149810438 [Eh]
	 SCS Opposite-Spin Energy  =      -1.5050108408111433 [Eh]
	 SCS Correlation Energy    =      -1.6224908557921871 [Eh]
	 SCS Total Energy          =    -329.9616992669436399 [Eh]
	-----------------------------------------------------------

  Dipole Moment: [D]
     X:     0.5134      Y:     1.8871      Z:     0.6587     Total:     2.0636

*** Psi4 exiting successfully. Buy a developer a beer!
