                               Psi4 1.3.2 release

  ==> Input File <==

--------------------------------------------------------------------------
#psi4
#
memory 32 gb

molecule  {
0 1
  N       -0.5812697    -0.8616689     0.0446265
  C        0.4568270    -0.1006020    -0.0211380
  C        1.7238140    -0.5084530    -0.7342290
  C        0.4670650     1.2778240     0.6138280
  C        2.7894260    -0.9991790     0.2510720
  C       -0.1640310     2.3214140    -0.3160410
  C       -1.7763620    -0.6501130     0.6316150
  C       -2.8974570    -0.7179310    -0.4005860
  H        2.1129470     0.3411750    -1.3109330
  H        1.4703830    -1.3072380    -1.4363190
  H       -0.0513810     1.2722970     1.5772600
  H        1.5049820     1.5584610     0.8223980
  H        3.0556910    -0.2252510     0.9773740
  H        2.4162060    -1.8680970     0.7997060
  H        3.7027550    -1.2914870    -0.2753070
  H        0.3474740     2.3390420    -1.2828520
  H       -0.0995980     3.3230440     0.1193210
  H       -1.2176240     2.0946990    -0.4987850
  H       -1.9345560    -1.4260300     1.3901820
  H       -1.8022440     0.3193480     1.1465960
  H       -3.8733410    -0.5778450     0.0742730
  H       -2.7667840     0.0602240    -1.1578580
  H       -2.8841180    -1.6872020    -0.9036440
units angstrom
no_reorient  #important for SAPT in psi4, default
symmetry c1  #important for SAPT in psi4, default
}

set PROPERTIES_ORIGIN ["COM"]
properties('MP2/aug-cc-pvtz', properties = ['dipole'])
--------------------------------------------------------------------------

    Molecular point group: c1
  Charge       = 0
  Multiplicity = 1
  Basis Set: AUG-CC-PVTZ
    Blend: AUG-CC-PVTZ
  Basis Set: (AUG-CC-PVTZ AUX)
    Blend: AUG-CC-PVTZ-JKFIT

    Orbital Energies [Eh]
    ---------------------

    Doubly Occupied:

       1A    -15.528068     2A    -11.275836     3A    -11.235265
       4A    -11.228045     5A    -11.227052     6A    -11.223659
       7A    -11.220213     8A    -11.206235     9A     -1.233383
      10A     -1.076257    11A     -1.025104    12A     -0.992472
      13A     -0.898230    14A     -0.856144    15A     -0.830611
      16A     -0.708183    17A     -0.667078    18A     -0.648306
      19A     -0.602234    20A     -0.596215    21A     -0.591328
      22A     -0.565597    23A     -0.538031    24A     -0.523578
      25A     -0.521093    26A     -0.516779    27A     -0.509800
      28A     -0.489596    29A     -0.487385    30A     -0.475074
      31A     -0.371656    32A     -0.358436

  @DF-RHF Final Energy:  -328.34903751035205

   => Energetics <=

    Nuclear Repulsion Energy =            390.5079591921494284
    One-Electron Energy =               -1217.2601031402236913
    Two-Electron Energy =                 498.4031064377222151
    Total Energy =                       -328.3490375103520478
  Basis Set: (AUG-CC-PVTZ AUX)
    Blend: AUG-CC-PVTZ-RI
    Molecular point group: c1

    Geometry (in Angstrom), charge = 0, multiplicity = 1:

       Center              X                  Y                   Z               Mass
    ------------   -----------------  -----------------  -----------------  -----------------
         N           -0.572716543314    -0.847149296633     0.036132047966    14.003074004430
         C            0.465380156686    -0.086082396633    -0.029632452034    12.000000000000
         C            1.732367156686    -0.493933396633    -0.742723452034    12.000000000000
         C            0.475618156686     1.292343603367     0.605333547966    12.000000000000
         C            2.797979156686    -0.984659396633     0.242577547966    12.000000000000
         C           -0.155477843314     2.335933603367    -0.324535452034    12.000000000000
         C           -1.767808843314    -0.635593396633     0.623120547966    12.000000000000
         C           -2.888903843314    -0.703411396633    -0.409080452034    12.000000000000
         H            2.121500156686     0.355694603367    -1.319427452034     1.007825032230
         H            1.478936156686    -1.292718396633    -1.444813452034     1.007825032230
         H           -0.042827843314     1.286816603367     1.568765547966     1.007825032230
         H            1.513535156686     1.572980603367     0.813903547966     1.007825032230
         H            3.064244156686    -0.210731396633     0.968879547966     1.007825032230
         H            2.424759156686    -1.853577396633     0.791211547966     1.007825032230
         H            3.711308156686    -1.276967396633    -0.283801452034     1.007825032230
         H            0.356027156686     2.353561603367    -1.291346452034     1.007825032230
         H           -0.091044843314     3.337563603367     0.110826547966     1.007825032230
         H           -1.209070843314     2.109218603367    -0.507279452034     1.007825032230
         H           -1.926002843314    -1.411510396633     1.381687547966     1.007825032230
         H           -1.793690843314     0.333867603367     1.138101547966     1.007825032230
         H           -3.864787843314    -0.563325396633     0.065778547966     1.007825032230
         H           -2.758230843314     0.074743603367    -1.166352452034     1.007825032230
         H           -2.875564843314    -1.672682396633    -0.912138452034     1.007825032230

  Basis Set: AUG-CC-PVTZ
    Blend: AUG-CC-PVTZ
  Basis Set: (AUG-CC-PVTZ AUX)
    Blend: AUG-CC-PVTZ-JKFIT
	 Reference Energy          =    -328.3490375103520478 [Eh]
	 Singles Energy            =      -0.0000000000000000 [Eh]
	 Same-Spin Energy          =      -0.3506693444690069 [Eh]
	 Opposite-Spin Energy      =      -1.2472970732904556 [Eh]
	 Correlation Energy        =      -1.5979664177594626 [Eh]
	 Total Energy              =    -329.9470039281114850 [Eh]

	 ================> DF-SCS-MP2 Energies <==================
	-----------------------------------------------------------
	 SCS Same-Spin Scale       =       0.3333333333333333 [-]
	 SCS Opposite-Spin Scale   =       1.2000000000000000 [-]
	 SCS Same-Spin Energy      =      -0.1168897814896690 [Eh]
	 SCS Opposite-Spin Energy  =      -1.4967564879485467 [Eh]
	 SCS Correlation Energy    =      -1.6136462694382157 [Eh]
	 SCS Total Energy          =    -329.9626837797902681 [Eh]
	-----------------------------------------------------------

  Dipole Moment: [D]
     X:     0.5726      Y:     1.3941      Z:     0.4466     Total:     1.5719

*** Psi4 exiting successfully. Buy a developer a beer!
