                               Psi4 1.3.2 release

  ==> Input File <==

--------------------------------------------------------------------------
#psi4
#
memory 32 gb

molecule  {
0 1
  N       -0.5109270    -0.9518430    -0.0269340
  C        0.4568270    -0.1006020    -0.0211380
  C        1.7824438    -0.3675453    -0.6931341
  C        0.4670650     1.2778240     0.6138280
  C        2.7894260    -0.9991790     0.2510720
  C       -0.1640310     2.3214140    -0.3160410
  C       -1.7763620    -0.6501130     0.6316150
  C       -2.8974570    -0.7179310    -0.4005860
  H        2.1129470     0.3411750    -1.3109330
  H        1.4703830    -1.3072380    -1.4363190
  H       -0.0513810     1.2722970     1.5772600
  H        1.5049820     1.5584610     0.8223980
  H        3.0556910    -0.2252510     0.9773740
  H        2.4162060    -1.8680970     0.7997060
  H        3.7027550    -1.2914870    -0.2753070
  H        0.3474740     2.3390420    -1.2828520
  H       -0.0995980     3.3230440     0.1193210
  H       -1.2176240     2.0946990    -0.4987850
  H       -1.9345560    -1.4260300     1.3901820
  H       -1.8022440     0.3193480     1.1465960
  H       -3.8733410    -0.5778450     0.0742730
  H       -2.7667840     0.0602240    -1.1578580
  H       -2.8841180    -1.6872020    -0.9036440
units angstrom
no_reorient  #important for SAPT in psi4, default
symmetry c1  #important for SAPT in psi4, default
}

set PROPERTIES_ORIGIN ["COM"]
properties('MP2/aug-cc-pvtz', properties = ['dipole'])
--------------------------------------------------------------------------

    Molecular point group: c1
  Charge       = 0
  Multiplicity = 1
  Basis Set: AUG-CC-PVTZ
    Blend: AUG-CC-PVTZ
  Basis Set: (AUG-CC-PVTZ AUX)
    Blend: AUG-CC-PVTZ-JKFIT

    Orbital Energies [Eh]
    ---------------------

    Doubly Occupied:

       1A    -15.541915     2A    -11.275189     3A    -11.243220
       4A    -11.231317     5A    -11.226670     6A    -11.225385
       7A    -11.219192     8A    -11.207580     9A     -1.216113
      10A     -1.071508    11A     -1.026258    12A     -0.995507
      13A     -0.895308    14A     -0.855390    15A     -0.826853
      16A     -0.708959    17A     -0.660013    18A     -0.647946
      19A     -0.604004    20A     -0.594844    21A     -0.587712
      22A     -0.555516    23A     -0.542076    24A     -0.532758
      25A     -0.521957    26A     -0.520190    27A     -0.509863
      28A     -0.488893    29A     -0.478601    30A     -0.440493
      31A     -0.379665    32A     -0.378566

  @DF-RHF Final Energy:  -328.33117120670579

   => Energetics <=

    Nuclear Repulsion Energy =            389.0082629679173465
    One-Electron Energy =               -1214.2599434657797701
    Two-Electron Energy =                 496.9205092911566908
    Total Energy =                       -328.3311712067057897
  Basis Set: (AUG-CC-PVTZ AUX)
    Blend: AUG-CC-PVTZ-RI
    Molecular point group: c1

    Geometry (in Angstrom), charge = 0, multiplicity = 1:

       Center              X                  Y                   Z               Mass
    ------------   -----------------  -----------------  -----------------  -----------------
         N           -0.517301043846    -0.941108546059    -0.030929458443    14.003074004430
         C            0.450452956154    -0.089867546059    -0.025133458443    12.000000000000
         C            1.776069756154    -0.356810846059    -0.697129558443    12.000000000000
         C            0.460690956154     1.288558453941     0.609832541557    12.000000000000
         C            2.783051956154    -0.988444546059     0.247076541557    12.000000000000
         C           -0.170405043846     2.332148453941    -0.320036458443    12.000000000000
         C           -1.782736043846    -0.639378546059     0.627619541557    12.000000000000
         C           -2.903831043846    -0.707196546059    -0.404581458443    12.000000000000
         H            2.106572956154     0.351909453941    -1.314928458443     1.007825032230
         H            1.464008956154    -1.296503546059    -1.440314458443     1.007825032230
         H           -0.057755043846     1.283031453941     1.573264541557     1.007825032230
         H            1.498607956154     1.569195453941     0.818402541557     1.007825032230
         H            3.049316956154    -0.214516546059     0.973378541557     1.007825032230
         H            2.409831956154    -1.857362546059     0.795710541557     1.007825032230
         H            3.696380956154    -1.280752546059    -0.279302458443     1.007825032230
         H            0.341099956154     2.349776453941    -1.286847458443     1.007825032230
         H           -0.105972043846     3.333778453941     0.115325541557     1.007825032230
         H           -1.223998043846     2.105433453941    -0.502780458443     1.007825032230
         H           -1.940930043846    -1.415295546059     1.386186541557     1.007825032230
         H           -1.808618043846     0.330082453941     1.142600541557     1.007825032230
         H           -3.879715043846    -0.567110546059     0.070277541557     1.007825032230
         H           -2.773158043846     0.070958453941    -1.161853458443     1.007825032230
         H           -2.890492043846    -1.676467546059    -0.907639458443     1.007825032230

  Basis Set: AUG-CC-PVTZ
    Blend: AUG-CC-PVTZ
  Basis Set: (AUG-CC-PVTZ AUX)
    Blend: AUG-CC-PVTZ-JKFIT
	 Reference Energy          =    -328.3311712067057897 [Eh]
	 Singles Energy            =      -0.0000000000000000 [Eh]
	 Same-Spin Energy          =      -0.3507005815529257 [Eh]
	 Opposite-Spin Energy      =      -1.2499246170668648 [Eh]
	 Correlation Energy        =      -1.6006251986197904 [Eh]
	 Total Energy              =    -329.9317964053255992 [Eh]

	 ================> DF-SCS-MP2 Energies <==================
	-----------------------------------------------------------
	 SCS Same-Spin Scale       =       0.3333333333333333 [-]
	 SCS Opposite-Spin Scale   =       1.2000000000000000 [-]
	 SCS Same-Spin Energy      =      -0.1169001938509752 [Eh]
	 SCS Opposite-Spin Energy  =      -1.4999095404802376 [Eh]
	 SCS Correlation Energy    =      -1.6168097343312129 [Eh]
	 SCS Total Energy          =    -329.9479809410370308 [Eh]
	-----------------------------------------------------------

  Dipole Moment: [D]
     X:     0.3559      Y:     1.7350      Z:     0.6577     Total:     1.8893

*** Psi4 exiting successfully. Buy a developer a beer!
