                               Psi4 1.3.2 release

  ==> Input File <==

--------------------------------------------------------------------------
#psi4
#
memory 32 gb

molecule  {
0 1
  N       -0.5109270    -0.9518430    -0.0269340
  C        0.4309430    -0.0725259     0.0026455
  C        1.7238140    -0.5084530    -0.7342290
  C        0.4670650     1.2778240     0.6138280
  C        2.7894260    -0.9991790     0.2510720
  C       -0.1640310     2.3214140    -0.3160410
  C       -1.7763620    -0.6501130     0.6316150
  C       -2.8974570    -0.7179310    -0.4005860
  H        2.1129470     0.3411750    -1.3109330
  H        1.4703830    -1.3072380    -1.4363190
  H       -0.0513810     1.2722970     1.5772600
  H        1.5049820     1.5584610     0.8223980
  H        3.0556910    -0.2252510     0.9773740
  H        2.4162060    -1.8680970     0.7997060
  H        3.7027550    -1.2914870    -0.2753070
  H        0.3474740     2.3390420    -1.2828520
  H       -0.0995980     3.3230440     0.1193210
  H       -1.2176240     2.0946990    -0.4987850
  H       -1.9345560    -1.4260300     1.3901820
  H       -1.8022440     0.3193480     1.1465960
  H       -3.8733410    -0.5778450     0.0742730
  H       -2.7667840     0.0602240    -1.1578580
  H       -2.8841180    -1.6872020    -0.9036440
units angstrom
no_reorient  #important for SAPT in psi4, default
symmetry c1  #important for SAPT in psi4, default
}

set PROPERTIES_ORIGIN ["COM"]
properties('MP2/aug-cc-pvtz', properties = ['dipole'])
--------------------------------------------------------------------------

    Molecular point group: c1
  Charge       = 0
  Multiplicity = 1
  Basis Set: AUG-CC-PVTZ
    Blend: AUG-CC-PVTZ
  Basis Set: (AUG-CC-PVTZ AUX)
    Blend: AUG-CC-PVTZ-JKFIT

    Orbital Energies [Eh]
    ---------------------

    Doubly Occupied:

       1A    -15.539889     2A    -11.272384     3A    -11.239890
       4A    -11.234266     5A    -11.228349     6A    -11.221544
       7A    -11.215625     8A    -11.206593     9A     -1.217547
      10A     -1.067472    11A     -1.026221    12A     -0.992098
      13A     -0.892598    14A     -0.858527    15A     -0.818841
      16A     -0.705831    17A     -0.663111    18A     -0.643336
      19A     -0.601418    20A     -0.590453    21A     -0.588015
      22A     -0.558057    23A     -0.541218    24A     -0.524107
      25A     -0.520604    26A     -0.510005    27A     -0.508269
      28A     -0.489382    29A     -0.481954    30A     -0.464318
      31A     -0.382847    32A     -0.378769

  @DF-RHF Final Energy:  -328.35661287608946

   => Energetics <=

    Nuclear Repulsion Energy =            388.8939225936231878
    One-Electron Energy =               -1214.1339949873977275
    Two-Electron Energy =                 496.8834595176850826
    Total Energy =                       -328.3566128760894571
  Basis Set: (AUG-CC-PVTZ AUX)
    Blend: AUG-CC-PVTZ-RI
    Molecular point group: c1

    Geometry (in Angstrom), charge = 0, multiplicity = 1:

       Center              X                  Y                   Z               Mass
    ------------   -----------------  -----------------  -----------------  -----------------
         N           -0.508335683431    -0.929139187679    -0.029093037169    14.003074004430
         C            0.433534316569    -0.049822087679     0.000486462831    12.000000000000
         C            1.726405316569    -0.485749187679    -0.736388037169    12.000000000000
         C            0.469656316569     1.300527812321     0.611668962831    12.000000000000
         C            2.792017316569    -0.976475187679     0.248912962831    12.000000000000
         C           -0.161439683431     2.344117812321    -0.318200037169    12.000000000000
         C           -1.773770683431    -0.627409187679     0.629455962831    12.000000000000
         C           -2.894865683431    -0.695227187679    -0.402745037169    12.000000000000
         H            2.115538316569     0.363878812321    -1.313092037169     1.007825032230
         H            1.472974316569    -1.284534187679    -1.438478037169     1.007825032230
         H           -0.048789683431     1.295000812321     1.575100962831     1.007825032230
         H            1.507573316569     1.581164812321     0.820238962831     1.007825032230
         H            3.058282316569    -0.202547187679     0.975214962831     1.007825032230
         H            2.418797316569    -1.845393187679     0.797546962831     1.007825032230
         H            3.705346316569    -1.268783187679    -0.277466037169     1.007825032230
         H            0.350065316569     2.361745812321    -1.285011037169     1.007825032230
         H           -0.097006683431     3.345747812321     0.117161962831     1.007825032230
         H           -1.215032683431     2.117402812321    -0.500944037169     1.007825032230
         H           -1.931964683431    -1.403326187679     1.388022962831     1.007825032230
         H           -1.799652683431     0.342051812321     1.144436962831     1.007825032230
         H           -3.870749683431    -0.555141187679     0.072113962831     1.007825032230
         H           -2.764192683431     0.082927812321    -1.160017037169     1.007825032230
         H           -2.881526683431    -1.664498187679    -0.905803037169     1.007825032230

  Basis Set: AUG-CC-PVTZ
    Blend: AUG-CC-PVTZ
  Basis Set: (AUG-CC-PVTZ AUX)
    Blend: AUG-CC-PVTZ-JKFIT
	 Reference Energy          =    -328.3566128760894571 [Eh]
	 Singles Energy            =      -0.0000000000000000 [Eh]
	 Same-Spin Energy          =      -0.3499990023003965 [Eh]
	 Opposite-Spin Energy      =      -1.2483838229623483 [Eh]
	 Correlation Energy        =      -1.5983828252627448 [Eh]
	 Total Energy              =    -329.9549957013521748 [Eh]

	 ================> DF-SCS-MP2 Energies <==================
	-----------------------------------------------------------
	 SCS Same-Spin Scale       =       0.3333333333333333 [-]
	 SCS Opposite-Spin Scale   =       1.2000000000000000 [-]
	 SCS Same-Spin Energy      =      -0.1166663341001322 [Eh]
	 SCS Opposite-Spin Energy  =      -1.4980605875548179 [Eh]
	 SCS Correlation Energy    =      -1.6147269216549500 [Eh]
	 SCS Total Energy          =    -329.9713397977444060 [Eh]
	-----------------------------------------------------------

  Dipole Moment: [D]
     X:     0.3090      Y:     1.7916      Z:     0.6570     Total:     1.9331

*** Psi4 exiting successfully. Buy a developer a beer!
