                               Psi4 1.3.2 release

  ==> Input File <==

--------------------------------------------------------------------------
#psi4
#
memory 32 gb

molecule  {
0 1
  N       -0.5109270    -0.9518430    -0.0269340
  C        0.4568270    -0.1006020    -0.0211380
  C        1.5560011    -0.4544330    -0.6397798
  C        0.4670650     1.2778240     0.6138280
  C        2.7894260    -0.9991790     0.2510720
  C       -0.1640310     2.3214140    -0.3160410
  C       -1.7763620    -0.6501130     0.6316150
  C       -2.8974570    -0.7179310    -0.4005860
  H        2.1129470     0.3411750    -1.3109330
  H        1.4703830    -1.3072380    -1.4363190
  H       -0.0513810     1.2722970     1.5772600
  H        1.5049820     1.5584610     0.8223980
  H        3.0556910    -0.2252510     0.9773740
  H        2.4162060    -1.8680970     0.7997060
  H        3.7027550    -1.2914870    -0.2753070
  H        0.3474740     2.3390420    -1.2828520
  H       -0.0995980     3.3230440     0.1193210
  H       -1.2176240     2.0946990    -0.4987850
  H       -1.9345560    -1.4260300     1.3901820
  H       -1.8022440     0.3193480     1.1465960
  H       -3.8733410    -0.5778450     0.0742730
  H       -2.7667840     0.0602240    -1.1578580
  H       -2.8841180    -1.6872020    -0.9036440
units angstrom
no_reorient  #important for SAPT in psi4, default
symmetry c1  #important for SAPT in psi4, default
}

set PROPERTIES_ORIGIN ["COM"]
properties('MP2/aug-cc-pvtz', properties = ['dipole'])
--------------------------------------------------------------------------

    Molecular point group: c1
  Charge       = 0
  Multiplicity = 1
  Basis Set: AUG-CC-PVTZ
    Blend: AUG-CC-PVTZ
  Basis Set: (AUG-CC-PVTZ AUX)
    Blend: AUG-CC-PVTZ-JKFIT

    Orbital Energies [Eh]
    ---------------------

    Doubly Occupied:

       1A    -15.539277     2A    -11.260297     3A    -11.240279
       4A    -11.233900     5A    -11.227459     6A    -11.226644
       7A    -11.226202     8A    -11.206652     9A     -1.229239
      10A     -1.079586    11A     -1.027306    12A     -0.987170
      13A     -0.907802    14A     -0.863076    15A     -0.819355
      16A     -0.706932    17A     -0.667375    18A     -0.650528
      19A     -0.600146    20A     -0.594899    21A     -0.581560
      22A     -0.566888    23A     -0.543600    24A     -0.525893
      25A     -0.523129    26A     -0.511859    27A     -0.495585
      28A     -0.488566    29A     -0.480274    30A     -0.449923
      31A     -0.387500    32A     -0.366154

  @DF-RHF Final Energy:  -328.30776523246061

   => Energetics <=

    Nuclear Repulsion Energy =            391.7920801033626503
    One-Electron Energy =               -1219.7695785799760415
    Two-Electron Energy =                 499.6697332441527806
    Total Energy =                       -328.3077652324606106
  Basis Set: (AUG-CC-PVTZ AUX)
    Blend: AUG-CC-PVTZ-RI
    Molecular point group: c1

    Geometry (in Angstrom), charge = 0, multiplicity = 1:

       Center              X                  Y                   Z               Mass
    ------------   -----------------  -----------------  -----------------  -----------------
         N           -0.493279636467    -0.931891358497    -0.036589368768    14.003074004430
         C            0.474474363533    -0.080650358497    -0.030793368768    12.000000000000
         C            1.573648463533    -0.434481358497    -0.649435168768    12.000000000000
         C            0.484712363533     1.297775641503     0.604172631232    12.000000000000
         C            2.807073363533    -0.979227358497     0.241416631232    12.000000000000
         C           -0.146383636467     2.341365641503    -0.325696368768    12.000000000000
         C           -1.758714636467    -0.630161358497     0.621959631232    12.000000000000
         C           -2.879809636467    -0.697979358497    -0.410241368768    12.000000000000
         H            2.130594363533     0.361126641503    -1.320588368768     1.007825032230
         H            1.488030363533    -1.287286358497    -1.445974368768     1.007825032230
         H           -0.033733636467     1.292248641503     1.567604631232     1.007825032230
         H            1.522629363533     1.578412641503     0.812742631232     1.007825032230
         H            3.073338363533    -0.205299358497     0.967718631232     1.007825032230
         H            2.433853363533    -1.848145358497     0.790050631232     1.007825032230
         H            3.720402363533    -1.271535358497    -0.284962368768     1.007825032230
         H            0.365121363533     2.358993641503    -1.292507368768     1.007825032230
         H           -0.081950636467     3.342995641503     0.109665631232     1.007825032230
         H           -1.199976636467     2.114650641503    -0.508440368768     1.007825032230
         H           -1.916908636467    -1.406078358497     1.380526631232     1.007825032230
         H           -1.784596636467     0.339299641503     1.136940631232     1.007825032230
         H           -3.855693636467    -0.557893358497     0.064617631232     1.007825032230
         H           -2.749136636467     0.080175641503    -1.167513368768     1.007825032230
         H           -2.866470636467    -1.667250358497    -0.913299368768     1.007825032230

  Basis Set: AUG-CC-PVTZ
    Blend: AUG-CC-PVTZ
  Basis Set: (AUG-CC-PVTZ AUX)
    Blend: AUG-CC-PVTZ-JKFIT
	 Reference Energy          =    -328.3077652324606106 [Eh]
	 Singles Energy            =      -0.0000000000000000 [Eh]
	 Same-Spin Energy          =      -0.3531467345502440 [Eh]
	 Opposite-Spin Energy      =      -1.2527456750082571 [Eh]
	 Correlation Energy        =      -1.6058924095585010 [Eh]
	 Total Energy              =    -329.9136576420191318 [Eh]

	 ================> DF-SCS-MP2 Energies <==================
	-----------------------------------------------------------
	 SCS Same-Spin Scale       =       0.3333333333333333 [-]
	 SCS Opposite-Spin Scale   =       1.2000000000000000 [-]
	 SCS Same-Spin Energy      =      -0.1177155781834147 [Eh]
	 SCS Opposite-Spin Energy  =      -1.5032948100099084 [Eh]
	 SCS Correlation Energy    =      -1.6210103881933231 [Eh]
	 SCS Total Energy          =    -329.9287756206539370 [Eh]
	-----------------------------------------------------------

  Dipole Moment: [D]
     X:     0.5402      Y:     1.6501      Z:     0.6061     Total:     1.8391

*** Psi4 exiting successfully. Buy a developer a beer!
