                               Psi4 1.3.2 release

  ==> Input File <==

--------------------------------------------------------------------------
#psi4
#
memory 32 gb

molecule  {
0 1
  N       -0.5109270    -0.9518430    -0.0269340
  C        0.5272858    -0.1909100    -0.0924149
  C        1.7238140    -0.5084530    -0.7342290
  C        0.4670650     1.2778240     0.6138280
  C        2.7894260    -0.9991790     0.2510720
  C       -0.1640310     2.3214140    -0.3160410
  C       -1.7763620    -0.6501130     0.6316150
  C       -2.8974570    -0.7179310    -0.4005860
  H        2.1129470     0.3411750    -1.3109330
  H        1.4703830    -1.3072380    -1.4363190
  H       -0.0513810     1.2722970     1.5772600
  H        1.5049820     1.5584610     0.8223980
  H        3.0556910    -0.2252510     0.9773740
  H        2.4162060    -1.8680970     0.7997060
  H        3.7027550    -1.2914870    -0.2753070
  H        0.3474740     2.3390420    -1.2828520
  H       -0.0995980     3.3230440     0.1193210
  H       -1.2176240     2.0946990    -0.4987850
  H       -1.9345560    -1.4260300     1.3901820
  H       -1.8022440     0.3193480     1.1465960
  H       -3.8733410    -0.5778450     0.0742730
  H       -2.7667840     0.0602240    -1.1578580
  H       -2.8841180    -1.6872020    -0.9036440
units angstrom
no_reorient  #important for SAPT in psi4, default
symmetry c1  #important for SAPT in psi4, default
}

set PROPERTIES_ORIGIN ["COM"]
properties('MP2/aug-cc-pvtz', properties = ['dipole'])
--------------------------------------------------------------------------

    Molecular point group: c1
  Charge       = 0
  Multiplicity = 1
  Basis Set: AUG-CC-PVTZ
    Blend: AUG-CC-PVTZ
  Basis Set: (AUG-CC-PVTZ AUX)
    Blend: AUG-CC-PVTZ-JKFIT

    Orbital Energies [Eh]
    ---------------------

    Doubly Occupied:

       1A    -15.536538     2A    -11.273962     3A    -11.244506
       4A    -11.231974     5A    -11.222903     6A    -11.221605
       7A    -11.220069     8A    -11.207103     9A     -1.212542
      10A     -1.076105    11A     -1.022139    12A     -0.995197
      13A     -0.899193    14A     -0.849438    15A     -0.828334
      16A     -0.703833    17A     -0.662534    18A     -0.644844
      19A     -0.603927    20A     -0.589757    21A     -0.588228
      22A     -0.562433    23A     -0.536464    24A     -0.521790
      25A     -0.519065    26A     -0.517738    27A     -0.507779
      28A     -0.491759    29A     -0.482885    30A     -0.472724
      31A     -0.377160    32A     -0.362267

  @DF-RHF Final Energy:  -328.34054045895039

   => Energetics <=

    Nuclear Repulsion Energy =            388.5965059088013618
    One-Electron Energy =               -1213.5005012480278310
    Two-Electron Energy =                 496.5634548802760264
    Total Energy =                       -328.3405404589503860
  Basis Set: (AUG-CC-PVTZ AUX)
    Blend: AUG-CC-PVTZ-RI
    Molecular point group: c1

    Geometry (in Angstrom), charge = 0, multiplicity = 1:

       Center              X                  Y                   Z               Mass
    ------------   -----------------  -----------------  -----------------  -----------------
         N           -0.518555883273    -0.916580811131    -0.019008876390    14.003074004430
         C            0.519656916727    -0.155647811131    -0.084489776390    12.000000000000
         C            1.716185116727    -0.473190811131    -0.726303876390    12.000000000000
         C            0.459436116727     1.313086188869     0.621753123610    12.000000000000
         C            2.781797116727    -0.963916811131     0.258997123610    12.000000000000
         C           -0.171659883273     2.356676188869    -0.308115876390    12.000000000000
         C           -1.783990883273    -0.614850811131     0.639540123610    12.000000000000
         C           -2.905085883273    -0.682668811131    -0.392660876390    12.000000000000
         H            2.105318116727     0.376437188869    -1.303007876390     1.007825032230
         H            1.462754116727    -1.271975811131    -1.428393876390     1.007825032230
         H           -0.059009883273     1.307559188869     1.585185123610     1.007825032230
         H            1.497353116727     1.593723188869     0.830323123610     1.007825032230
         H            3.048062116727    -0.189988811131     0.985299123610     1.007825032230
         H            2.408577116727    -1.832834811131     0.807631123610     1.007825032230
         H            3.695126116727    -1.256224811131    -0.267381876390     1.007825032230
         H            0.339845116727     2.374304188869    -1.274926876390     1.007825032230
         H           -0.107226883273     3.358306188869     0.127246123610     1.007825032230
         H           -1.225252883273     2.129961188869    -0.490859876390     1.007825032230
         H           -1.942184883273    -1.390767811131     1.398107123610     1.007825032230
         H           -1.809872883273     0.354610188869     1.154521123610     1.007825032230
         H           -3.880969883273    -0.542582811131     0.082198123610     1.007825032230
         H           -2.774412883273     0.095486188869    -1.149932876390     1.007825032230
         H           -2.891746883273    -1.651939811131    -0.895718876390     1.007825032230

  Basis Set: AUG-CC-PVTZ
    Blend: AUG-CC-PVTZ
  Basis Set: (AUG-CC-PVTZ AUX)
    Blend: AUG-CC-PVTZ-JKFIT
	 Reference Energy          =    -328.3405404589503860 [Eh]
	 Singles Energy            =      -0.0000000000000000 [Eh]
	 Same-Spin Energy          =      -0.3506326230843270 [Eh]
	 Opposite-Spin Energy      =      -1.2489428025258269 [Eh]
	 Correlation Energy        =      -1.5995754256101540 [Eh]
	 Total Energy              =    -329.9401158845605551 [Eh]

	 ================> DF-SCS-MP2 Energies <==================
	-----------------------------------------------------------
	 SCS Same-Spin Scale       =       0.3333333333333333 [-]
	 SCS Opposite-Spin Scale   =       1.2000000000000000 [-]
	 SCS Same-Spin Energy      =      -0.1168775410281090 [Eh]
	 SCS Opposite-Spin Energy  =      -1.4987313630309922 [Eh]
	 SCS Correlation Energy    =      -1.6156089040591013 [Eh]
	 SCS Total Energy          =    -329.9561493630095015 [Eh]
	-----------------------------------------------------------

  Dipole Moment: [D]
     X:     0.6207      Y:     1.4044      Z:     0.4782     Total:     1.6082

*** Psi4 exiting successfully. Buy a developer a beer!
