                               Psi4 1.3.2 release

  ==> Input File <==

--------------------------------------------------------------------------
#psi4
#
memory 32 gb

molecule  {
0 1
  N       -0.5233436    -0.9547898    -0.0489513
  C        0.4568270    -0.1006020    -0.0211380
  C        1.7238140    -0.5084530    -0.7342290
  C        0.4670650     1.2778240     0.6138280
  C        2.7894260    -0.9991790     0.2510720
  C       -0.1640310     2.3214140    -0.3160410
  C       -1.7763620    -0.6501130     0.6316150
  C       -2.8974570    -0.7179310    -0.4005860
  H        2.1129470     0.3411750    -1.3109330
  H        1.4703830    -1.3072380    -1.4363190
  H       -0.0513810     1.2722970     1.5772600
  H        1.5049820     1.5584610     0.8223980
  H        3.0556910    -0.2252510     0.9773740
  H        2.4162060    -1.8680970     0.7997060
  H        3.7027550    -1.2914870    -0.2753070
  H        0.3474740     2.3390420    -1.2828520
  H       -0.0995980     3.3230440     0.1193210
  H       -1.2176240     2.0946990    -0.4987850
  H       -1.9345560    -1.4260300     1.3901820
  H       -1.8022440     0.3193480     1.1465960
  H       -3.8733410    -0.5778450     0.0742730
  H       -2.7667840     0.0602240    -1.1578580
  H       -2.8841180    -1.6872020    -0.9036440
units angstrom
no_reorient  #important for SAPT in psi4, default
symmetry c1  #important for SAPT in psi4, default
}

set PROPERTIES_ORIGIN ["COM"]
properties('MP2/aug-cc-pvtz', properties = ['dipole'])
--------------------------------------------------------------------------

    Molecular point group: c1
  Charge       = 0
  Multiplicity = 1
  Basis Set: AUG-CC-PVTZ
    Blend: AUG-CC-PVTZ
  Basis Set: (AUG-CC-PVTZ AUX)
    Blend: AUG-CC-PVTZ-JKFIT

    Orbital Energies [Eh]
    ---------------------

    Doubly Occupied:

       1A    -15.540766     2A    -11.274437     3A    -11.240301
       4A    -11.235067     5A    -11.227105     6A    -11.221804
       7A    -11.217616     8A    -11.205686     9A     -1.212609
      10A     -1.067284    11A     -1.027193    12A     -0.991379
      13A     -0.891775    14A     -0.858367    15A     -0.819817
      16A     -0.705816    17A     -0.662719    18A     -0.642539
      19A     -0.599233    20A     -0.591834    21A     -0.589736
      22A     -0.557205    23A     -0.540178    24A     -0.522728
      25A     -0.519367    26A     -0.511328    27A     -0.508476
      28A     -0.488247    29A     -0.482174    30A     -0.469411
      31A     -0.382715    32A     -0.375859

  @DF-RHF Final Energy:  -328.35744792510701

   => Energetics <=

    Nuclear Repulsion Energy =            388.5866603983972709
    One-Electron Energy =               -1213.5266705984652162
    Two-Electron Energy =                 496.5825622749609352
    Total Energy =                       -328.3574479251070102
  Basis Set: (AUG-CC-PVTZ AUX)
    Blend: AUG-CC-PVTZ-RI
    Molecular point group: c1

    Geometry (in Angstrom), charge = 0, multiplicity = 1:

       Center              X                  Y                   Z               Mass
    ------------   -----------------  -----------------  -----------------  -----------------
         N           -0.521961060729    -0.928742848042    -0.045861844222    14.003074004430
         C            0.458209539271    -0.074555048042    -0.018048544222    12.000000000000
         C            1.725196539271    -0.482406048042    -0.731139544222    12.000000000000
         C            0.468447539271     1.303870951958     0.616917455778    12.000000000000
         C            2.790808539271    -0.973132048042     0.254161455778    12.000000000000
         C           -0.162648460729     2.347460951958    -0.312951544222    12.000000000000
         C           -1.774979460729    -0.624066048042     0.634704455778    12.000000000000
         C           -2.896074460729    -0.691884048042    -0.397496544222    12.000000000000
         H            2.114329539271     0.367221951958    -1.307843544222     1.007825032230
         H            1.471765539271    -1.281191048042    -1.433229544222     1.007825032230
         H           -0.049998460729     1.298343951958     1.580349455778     1.007825032230
         H            1.506364539271     1.584507951958     0.825487455778     1.007825032230
         H            3.057073539271    -0.199204048042     0.980463455778     1.007825032230
         H            2.417588539271    -1.842050048042     0.802795455778     1.007825032230
         H            3.704137539271    -1.265440048042    -0.272217544222     1.007825032230
         H            0.348856539271     2.365088951958    -1.279762544222     1.007825032230
         H           -0.098215460729     3.349090951958     0.122410455778     1.007825032230
         H           -1.216241460729     2.120745951958    -0.495695544222     1.007825032230
         H           -1.933173460729    -1.399983048042     1.393271455778     1.007825032230
         H           -1.800861460729     0.345394951958     1.149685455778     1.007825032230
         H           -3.871958460729    -0.551798048042     0.077362455778     1.007825032230
         H           -2.765401460729     0.086270951958    -1.154768544222     1.007825032230
         H           -2.882735460729    -1.661155048042    -0.900554544222     1.007825032230

  Basis Set: AUG-CC-PVTZ
    Blend: AUG-CC-PVTZ
  Basis Set: (AUG-CC-PVTZ AUX)
    Blend: AUG-CC-PVTZ-JKFIT
	 Reference Energy          =    -328.3574479251070102 [Eh]
	 Singles Energy            =      -0.0000000000000000 [Eh]
	 Same-Spin Energy          =      -0.3501622762158068 [Eh]
	 Opposite-Spin Energy      =      -1.2487509188726100 [Eh]
	 Correlation Energy        =      -1.5989131950884168 [Eh]
	 Total Energy              =    -329.9563611201954245 [Eh]

	 ================> DF-SCS-MP2 Energies <==================
	-----------------------------------------------------------
	 SCS Same-Spin Scale       =       0.3333333333333333 [-]
	 SCS Opposite-Spin Scale   =       1.2000000000000000 [-]
	 SCS Same-Spin Energy      =      -0.1167207587386022 [Eh]
	 SCS Opposite-Spin Energy  =      -1.4985011026471320 [Eh]
	 SCS Correlation Energy    =      -1.6152218613857343 [Eh]
	 SCS Total Energy          =    -329.9726697864927587 [Eh]
	-----------------------------------------------------------

  Dipole Moment: [D]
     X:     0.4281      Y:     1.7190      Z:     0.6511     Total:     1.8874

*** Psi4 exiting successfully. Buy a developer a beer!
