                               Psi4 1.3.2 release

  ==> Input File <==

--------------------------------------------------------------------------
#psi4
#
memory 32 gb

molecule  {
0 1
  N       -0.5109270    -0.9518430    -0.0269340
  C        0.5050278    -0.1598301    -0.0686972
  C        1.7238140    -0.5084530    -0.7342290
  C        0.4670650     1.2778240     0.6138280
  C        2.7894260    -0.9991790     0.2510720
  C       -0.1640310     2.3214140    -0.3160410
  C       -1.7763620    -0.6501130     0.6316150
  C       -2.8974570    -0.7179310    -0.4005860
  H        2.1129470     0.3411750    -1.3109330
  H        1.4703830    -1.3072380    -1.4363190
  H       -0.0513810     1.2722970     1.5772600
  H        1.5049820     1.5584610     0.8223980
  H        3.0556910    -0.2252510     0.9773740
  H        2.4162060    -1.8680970     0.7997060
  H        3.7027550    -1.2914870    -0.2753070
  H        0.3474740     2.3390420    -1.2828520
  H       -0.0995980     3.3230440     0.1193210
  H       -1.2176240     2.0946990    -0.4987850
  H       -1.9345560    -1.4260300     1.3901820
  H       -1.8022440     0.3193480     1.1465960
  H       -3.8733410    -0.5778450     0.0742730
  H       -2.7667840     0.0602240    -1.1578580
  H       -2.8841180    -1.6872020    -0.9036440
units angstrom
no_reorient  #important for SAPT in psi4, default
symmetry c1  #important for SAPT in psi4, default
}

set PROPERTIES_ORIGIN ["COM"]
properties('MP2/aug-cc-pvtz', properties = ['dipole'])
--------------------------------------------------------------------------

    Molecular point group: c1
  Charge       = 0
  Multiplicity = 1
  Basis Set: AUG-CC-PVTZ
    Blend: AUG-CC-PVTZ
  Basis Set: (AUG-CC-PVTZ AUX)
    Blend: AUG-CC-PVTZ-JKFIT

    Orbital Energies [Eh]
    ---------------------

    Doubly Occupied:

       1A    -15.537118     2A    -11.273080     3A    -11.243205
       4A    -11.233013     5A    -11.223298     6A    -11.221060
       7A    -11.220369     8A    -11.206949     9A     -1.213288
      10A     -1.071190    11A     -1.024608    12A     -0.994407
      13A     -0.895279    14A     -0.853365    15A     -0.826012
      16A     -0.703657    17A     -0.662226    18A     -0.643663
      19A     -0.600586    20A     -0.591577    21A     -0.589534
      22A     -0.560375    23A     -0.537575    24A     -0.520960
      25A     -0.518794    26A     -0.516630    27A     -0.508303
      28A     -0.489134    29A     -0.482947    30A     -0.475146
      31A     -0.377718    32A     -0.369240

  @DF-RHF Final Energy:  -328.35110450143719

   => Energetics <=

    Nuclear Repulsion Energy =            388.6471761390337747
    One-Electron Energy =               -1213.6279478891631243
    Two-Electron Energy =                 496.6296672486922148
    Total Energy =                       -328.3511045014371916
  Basis Set: (AUG-CC-PVTZ AUX)
    Blend: AUG-CC-PVTZ-RI
    Molecular point group: c1

    Geometry (in Angstrom), charge = 0, multiplicity = 1:

       Center              X                  Y                   Z               Mass
    ------------   -----------------  -----------------  -----------------  -----------------
         N           -0.516194718681    -0.919877817125    -0.021524888316    14.003074004430
         C            0.499760081319    -0.127864917125    -0.063288088316    12.000000000000
         C            1.718546281319    -0.476487817125    -0.728819888316    12.000000000000
         C            0.461797281319     1.309789182875     0.619237111684    12.000000000000
         C            2.784158281319    -0.967213817125     0.256481111684    12.000000000000
         C           -0.169298718681     2.353379182875    -0.310631888316    12.000000000000
         C           -1.781629718681    -0.618147817125     0.637024111684    12.000000000000
         C           -2.902724718681    -0.685965817125    -0.395176888316    12.000000000000
         H            2.107679281319     0.373140182875    -1.305523888316     1.007825032230
         H            1.465115281319    -1.275272817125    -1.430909888316     1.007825032230
         H           -0.056648718681     1.304262182875     1.582669111684     1.007825032230
         H            1.499714281319     1.590426182875     0.827807111684     1.007825032230
         H            3.050423281319    -0.193285817125     0.982783111684     1.007825032230
         H            2.410938281319    -1.836131817125     0.805115111684     1.007825032230
         H            3.697487281319    -1.259521817125    -0.269897888316     1.007825032230
         H            0.342206281319     2.371007182875    -1.277442888316     1.007825032230
         H           -0.104865718681     3.355009182875     0.124730111684     1.007825032230
         H           -1.222891718681     2.126664182875    -0.493375888316     1.007825032230
         H           -1.939823718681    -1.394064817125     1.395591111684     1.007825032230
         H           -1.807511718681     0.351313182875     1.152005111684     1.007825032230
         H           -3.878608718681    -0.545879817125     0.079682111684     1.007825032230
         H           -2.772051718681     0.092189182875    -1.152448888316     1.007825032230
         H           -2.889385718681    -1.655236817125    -0.898234888316     1.007825032230

  Basis Set: AUG-CC-PVTZ
    Blend: AUG-CC-PVTZ
  Basis Set: (AUG-CC-PVTZ AUX)
    Blend: AUG-CC-PVTZ-JKFIT
	 Reference Energy          =    -328.3511045014371916 [Eh]
	 Singles Energy            =      -0.0000000000000000 [Eh]
	 Same-Spin Energy          =      -0.3501657239945867 [Eh]
	 Opposite-Spin Energy      =      -1.2482766389363942 [Eh]
	 Correlation Energy        =      -1.5984423629309810 [Eh]
	 Total Energy              =    -329.9495468643681875 [Eh]

	 ================> DF-SCS-MP2 Energies <==================
	-----------------------------------------------------------
	 SCS Same-Spin Scale       =       0.3333333333333333 [-]
	 SCS Opposite-Spin Scale   =       1.2000000000000000 [-]
	 SCS Same-Spin Energy      =      -0.1167219079981956 [Eh]
	 SCS Opposite-Spin Energy  =      -1.4979319667236730 [Eh]
	 SCS Correlation Energy    =      -1.6146538747218686 [Eh]
	 SCS Total Energy          =    -329.9657583761590445 [Eh]
	-----------------------------------------------------------

  Dipole Moment: [D]
     X:     0.5437      Y:     1.5112      Z:     0.5259     Total:     1.6900

*** Psi4 exiting successfully. Buy a developer a beer!
