                               Psi4 1.3.2 release

  ==> Input File <==

--------------------------------------------------------------------------
#psi4
#
memory 32 gb

molecule  {
0 1
  N       -0.5590503    -0.8927042     0.0208144
  C        0.4568270    -0.1006020    -0.0211380
  C        1.7238140    -0.5084530    -0.7342290
  C        0.4670650     1.2778240     0.6138280
  C        2.7894260    -0.9991790     0.2510720
  C       -0.1640310     2.3214140    -0.3160410
  C       -1.7763620    -0.6501130     0.6316150
  C       -2.8974570    -0.7179310    -0.4005860
  H        2.1129470     0.3411750    -1.3109330
  H        1.4703830    -1.3072380    -1.4363190
  H       -0.0513810     1.2722970     1.5772600
  H        1.5049820     1.5584610     0.8223980
  H        3.0556910    -0.2252510     0.9773740
  H        2.4162060    -1.8680970     0.7997060
  H        3.7027550    -1.2914870    -0.2753070
  H        0.3474740     2.3390420    -1.2828520
  H       -0.0995980     3.3230440     0.1193210
  H       -1.2176240     2.0946990    -0.4987850
  H       -1.9345560    -1.4260300     1.3901820
  H       -1.8022440     0.3193480     1.1465960
  H       -3.8733410    -0.5778450     0.0742730
  H       -2.7667840     0.0602240    -1.1578580
  H       -2.8841180    -1.6872020    -0.9036440
units angstrom
no_reorient  #important for SAPT in psi4, default
symmetry c1  #important for SAPT in psi4, default
}

set PROPERTIES_ORIGIN ["COM"]
properties('MP2/aug-cc-pvtz', properties = ['dipole'])
--------------------------------------------------------------------------

    Molecular point group: c1
  Charge       = 0
  Multiplicity = 1
  Basis Set: AUG-CC-PVTZ
    Blend: AUG-CC-PVTZ
  Basis Set: (AUG-CC-PVTZ AUX)
    Blend: AUG-CC-PVTZ-JKFIT

    Orbital Energies [Eh]
    ---------------------

    Doubly Occupied:

       1A    -15.531590     2A    -11.274393     3A    -11.237107
       4A    -11.230060     5A    -11.225118     6A    -11.224677
       7A    -11.219210     8A    -11.206355     9A     -1.226815
      10A     -1.072976    11A     -1.025631    12A     -0.992636
      13A     -0.895711    14A     -0.857049    15A     -0.827214
      16A     -0.707082    17A     -0.665650    18A     -0.646276
      19A     -0.600534    20A     -0.595190    21A     -0.591024
      22A     -0.562779    23A     -0.538703    24A     -0.523009
      25A     -0.520556    26A     -0.515280    27A     -0.509488
      28A     -0.488165    29A     -0.486466    30A     -0.473918
      31A     -0.374033    32A     -0.366653

  @DF-RHF Final Energy:  -328.35550978459958

   => Energetics <=

    Nuclear Repulsion Energy =            389.9219034135279003
    One-Electron Energy =               -1216.1321348731844409
    Two-Electron Energy =                 497.8547216750570215
    Total Energy =                       -328.3555097845995761
  Basis Set: (AUG-CC-PVTZ AUX)
    Blend: AUG-CC-PVTZ-RI
    Molecular point group: c1

    Geometry (in Angstrom), charge = 0, multiplicity = 1:

       Center              X                  Y                   Z               Mass
    ------------   -----------------  -----------------  -----------------  -----------------
         N           -0.553247661933    -0.874342766048     0.015267625419    14.003074004430
         C            0.462629638067    -0.082240566048    -0.026684774581    12.000000000000
         C            1.729616638067    -0.490091566048    -0.739775774581    12.000000000000
         C            0.472867638067     1.296185433952     0.608281225419    12.000000000000
         C            2.795228638067    -0.980817566048     0.245525225419    12.000000000000
         C           -0.158228361933     2.339775433952    -0.321587774581    12.000000000000
         C           -1.770559361933    -0.631751566048     0.626068225419    12.000000000000
         C           -2.891654361933    -0.699569566048    -0.406132774581    12.000000000000
         H            2.118749638067     0.359536433952    -1.316479774581     1.007825032230
         H            1.476185638067    -1.288876566048    -1.441865774581     1.007825032230
         H           -0.045578361933     1.290658433952     1.571713225419     1.007825032230
         H            1.510784638067     1.576822433952     0.816851225419     1.007825032230
         H            3.061493638067    -0.206889566048     0.971827225419     1.007825032230
         H            2.422008638067    -1.849735566048     0.794159225419     1.007825032230
         H            3.708557638067    -1.273125566048    -0.280853774581     1.007825032230
         H            0.353276638067     2.357403433952    -1.288398774581     1.007825032230
         H           -0.093795361933     3.341405433952     0.113774225419     1.007825032230
         H           -1.211821361933     2.113060433952    -0.504331774581     1.007825032230
         H           -1.928753361933    -1.407668566048     1.384635225419     1.007825032230
         H           -1.796441361933     0.337709433952     1.141049225419     1.007825032230
         H           -3.867538361933    -0.559483566048     0.068726225419     1.007825032230
         H           -2.760981361933     0.078585433952    -1.163404774581     1.007825032230
         H           -2.878315361933    -1.668840566048    -0.909190774581     1.007825032230

  Basis Set: AUG-CC-PVTZ
    Blend: AUG-CC-PVTZ
  Basis Set: (AUG-CC-PVTZ AUX)
    Blend: AUG-CC-PVTZ-JKFIT
	 Reference Energy          =    -328.3555097845995761 [Eh]
	 Singles Energy            =      -0.0000000000000000 [Eh]
	 Same-Spin Energy          =      -0.3502539500528989 [Eh]
	 Opposite-Spin Energy      =      -1.2472583832535442 [Eh]
	 Correlation Energy        =      -1.5975123333064432 [Eh]
	 Total Energy              =    -329.9530221179060163 [Eh]

	 ================> DF-SCS-MP2 Energies <==================
	-----------------------------------------------------------
	 SCS Same-Spin Scale       =       0.3333333333333333 [-]
	 SCS Opposite-Spin Scale   =       1.2000000000000000 [-]
	 SCS Same-Spin Energy      =      -0.1167513166842996 [Eh]
	 SCS Opposite-Spin Energy  =      -1.4967100599042531 [Eh]
	 SCS Correlation Energy    =      -1.6134613765885528 [Eh]
	 SCS Total Energy          =    -329.9689711611881080 [Eh]
	-----------------------------------------------------------

  Dipole Moment: [D]
     X:     0.5059      Y:     1.5070      Z:     0.5094     Total:     1.6692

*** Psi4 exiting successfully. Buy a developer a beer!
