                               Psi4 1.3.2 release

  ==> Input File <==

--------------------------------------------------------------------------
#psi4
#
memory 32 gb

molecule  {
0 1
  N       -0.5030475    -0.9018950    -0.0327114
  C        0.4568270    -0.1006020    -0.0211380
  C        1.7238140    -0.5084530    -0.7342290
  C        0.4670650     1.2778240     0.6138280
  C        2.7894260    -0.9991790     0.2510720
  C       -0.1640310     2.3214140    -0.3160410
  C       -1.7763620    -0.6501130     0.6316150
  C       -2.8974570    -0.7179310    -0.4005860
  H        2.1129470     0.3411750    -1.3109330
  H        1.4703830    -1.3072380    -1.4363190
  H       -0.0513810     1.2722970     1.5772600
  H        1.5049820     1.5584610     0.8223980
  H        3.0556910    -0.2252510     0.9773740
  H        2.4162060    -1.8680970     0.7997060
  H        3.7027550    -1.2914870    -0.2753070
  H        0.3474740     2.3390420    -1.2828520
  H       -0.0995980     3.3230440     0.1193210
  H       -1.2176240     2.0946990    -0.4987850
  H       -1.9345560    -1.4260300     1.3901820
  H       -1.8022440     0.3193480     1.1465960
  H       -3.8733410    -0.5778450     0.0742730
  H       -2.7667840     0.0602240    -1.1578580
  H       -2.8841180    -1.6872020    -0.9036440
units angstrom
no_reorient  #important for SAPT in psi4, default
symmetry c1  #important for SAPT in psi4, default
}

set PROPERTIES_ORIGIN ["COM"]
properties('MP2/aug-cc-pvtz', properties = ['dipole'])
--------------------------------------------------------------------------

    Molecular point group: c1
  Charge       = 0
  Multiplicity = 1
  Basis Set: AUG-CC-PVTZ
    Blend: AUG-CC-PVTZ
  Basis Set: (AUG-CC-PVTZ AUX)
    Blend: AUG-CC-PVTZ-JKFIT

    Orbital Energies [Eh]
    ---------------------

    Doubly Occupied:

       1A    -15.532049     2A    -11.265267     3A    -11.243200
       4A    -11.230554     5A    -11.225177     6A    -11.219829
       7A    -11.216745     8A    -11.207774     9A     -1.227680
      10A     -1.064804    11A     -1.025791    12A     -0.997339
      13A     -0.890026    14A     -0.858078    15A     -0.824656
      16A     -0.702417    17A     -0.661832    18A     -0.645618
      19A     -0.599097    20A     -0.593459    21A     -0.589810
      22A     -0.560590    23A     -0.538898    24A     -0.522356
      25A     -0.520014    26A     -0.512112    27A     -0.508854
      28A     -0.487621    29A     -0.482465    30A     -0.473959
      31A     -0.388167    32A     -0.369906

  @DF-RHF Final Energy:  -328.36104387222281

   => Energetics <=

    Nuclear Repulsion Energy =            389.7494264636260368
    One-Electron Energy =               -1215.8486500190267634
    Two-Electron Energy =                 497.7381796831779184
    Total Energy =                       -328.3610438722228082
  Basis Set: (AUG-CC-PVTZ AUX)
    Blend: AUG-CC-PVTZ-RI
    Molecular point group: c1

    Geometry (in Angstrom), charge = 0, multiplicity = 1:

       Center              X                  Y                   Z               Mass
    ------------   -----------------  -----------------  -----------------  -----------------
         N           -0.504177395851    -0.882395845564    -0.031632266163    14.003074004430
         C            0.455697104149    -0.081102845564    -0.020058866163    12.000000000000
         C            1.722684104149    -0.488953845564    -0.733149866163    12.000000000000
         C            0.465935104149     1.297323154436     0.614907133837    12.000000000000
         C            2.788296104149    -0.979679845564     0.252151133837    12.000000000000
         C           -0.165160895851     2.340913154436    -0.314961866163    12.000000000000
         C           -1.777491895851    -0.630613845564     0.632694133837    12.000000000000
         C           -2.898586895851    -0.698431845564    -0.399506866163    12.000000000000
         H            2.111817104149     0.360674154436    -1.309853866163     1.007825032230
         H            1.469253104149    -1.287738845564    -1.435239866163     1.007825032230
         H           -0.052510895851     1.291796154436     1.578339133837     1.007825032230
         H            1.503852104149     1.577960154436     0.823477133837     1.007825032230
         H            3.054561104149    -0.205751845564     0.978453133837     1.007825032230
         H            2.415076104149    -1.848597845564     0.800785133837     1.007825032230
         H            3.701625104149    -1.271987845564    -0.274227866163     1.007825032230
         H            0.346344104149     2.358541154436    -1.281772866163     1.007825032230
         H           -0.100727895851     3.342543154436     0.120400133837     1.007825032230
         H           -1.218753895851     2.114198154436    -0.497705866163     1.007825032230
         H           -1.935685895851    -1.406530845564     1.391261133837     1.007825032230
         H           -1.803373895851     0.338847154436     1.147675133837     1.007825032230
         H           -3.874470895851    -0.558345845564     0.075352133837     1.007825032230
         H           -2.767913895851     0.079723154436    -1.156778866163     1.007825032230
         H           -2.885247895851    -1.667702845564    -0.902564866163     1.007825032230

  Basis Set: AUG-CC-PVTZ
    Blend: AUG-CC-PVTZ
  Basis Set: (AUG-CC-PVTZ AUX)
    Blend: AUG-CC-PVTZ-JKFIT
	 Reference Energy          =    -328.3610438722228082 [Eh]
	 Singles Energy            =      -0.0000000000000000 [Eh]
	 Same-Spin Energy          =      -0.3490300160566536 [Eh]
	 Opposite-Spin Energy      =      -1.2458623195174081 [Eh]
	 Correlation Energy        =      -1.5948923355740616 [Eh]
	 Total Energy              =    -329.9559362077968672 [Eh]

	 ================> DF-SCS-MP2 Energies <==================
	-----------------------------------------------------------
	 SCS Same-Spin Scale       =       0.3333333333333333 [-]
	 SCS Opposite-Spin Scale   =       1.2000000000000000 [-]
	 SCS Same-Spin Energy      =      -0.1163433386855512 [Eh]
	 SCS Opposite-Spin Energy  =      -1.4950347834208897 [Eh]
	 SCS Correlation Energy    =      -1.6113781221064409 [Eh]
	 SCS Total Energy          =    -329.9724219943292383 [Eh]
	-----------------------------------------------------------

  Dipole Moment: [D]
     X:     0.3278      Y:     1.5799      Z:     0.6266     Total:     1.7309

*** Psi4 exiting successfully. Buy a developer a beer!
