                               Psi4 1.3.2 release

  ==> Input File <==

--------------------------------------------------------------------------
#psi4
#
memory 32 gb

molecule  {
0 1
  N       -0.5109270    -0.9518430    -0.0269340
  C        0.4568270    -0.1006020    -0.0211380
  C        1.7238140    -0.5084530    -0.7342290
  C        0.4670650     1.2778240     0.6138280
  C        2.7894260    -0.9991790     0.2510720
  C       -0.1640310     2.3214140    -0.3160410
  C       -1.6895754    -0.6708064     0.5864501
  C       -2.8974570    -0.7179310    -0.4005860
  H        2.1129470     0.3411750    -1.3109330
  H        1.4703830    -1.3072380    -1.4363190
  H       -0.0513810     1.2722970     1.5772600
  H        1.5049820     1.5584610     0.8223980
  H        3.0556910    -0.2252510     0.9773740
  H        2.4162060    -1.8680970     0.7997060
  H        3.7027550    -1.2914870    -0.2753070
  H        0.3474740     2.3390420    -1.2828520
  H       -0.0995980     3.3230440     0.1193210
  H       -1.2176240     2.0946990    -0.4987850
  H       -1.9345560    -1.4260300     1.3901820
  H       -1.8022440     0.3193480     1.1465960
  H       -3.8733410    -0.5778450     0.0742730
  H       -2.7667840     0.0602240    -1.1578580
  H       -2.8841180    -1.6872020    -0.9036440
units angstrom
no_reorient  #important for SAPT in psi4, default
symmetry c1  #important for SAPT in psi4, default
}

set PROPERTIES_ORIGIN ["COM"]
properties('MP2/aug-cc-pvtz', properties = ['dipole'])
--------------------------------------------------------------------------

    Molecular point group: c1
  Charge       = 0
  Multiplicity = 1
  Basis Set: AUG-CC-PVTZ
    Blend: AUG-CC-PVTZ
  Basis Set: (AUG-CC-PVTZ AUX)
    Blend: AUG-CC-PVTZ-JKFIT

    Orbital Energies [Eh]
    ---------------------

    Doubly Occupied:

       1A    -15.538068     2A    -11.277779     3A    -11.243399
       4A    -11.235329     5A    -11.227257     6A    -11.223483
       7A    -11.219079     8A    -11.206728     9A     -1.238931
      10A     -1.073312    11A     -1.028075    12A     -0.985630
      13A     -0.897454    14A     -0.860111    15A     -0.820505
      16A     -0.710130    17A     -0.667461    18A     -0.646665
      19A     -0.600538    20A     -0.592846    21A     -0.585934
      22A     -0.565265    23A     -0.541315    24A     -0.526703
      25A     -0.521900    26A     -0.513255    27A     -0.501400
      28A     -0.489146    29A     -0.485481    30A     -0.463025
      31A     -0.380525    32A     -0.372797

  @DF-RHF Final Energy:  -328.34893910344215

   => Energetics <=

    Nuclear Repulsion Energy =            390.1765455383028893
    One-Electron Energy =               -1216.5719178098192970
    Two-Electron Energy =                 498.0464331680742589
    Total Energy =                       -328.3489391034421487
  Basis Set: (AUG-CC-PVTZ AUX)
    Blend: AUG-CC-PVTZ-RI
    Molecular point group: c1

    Geometry (in Angstrom), charge = 0, multiplicity = 1:

       Center              X                  Y                   Z               Mass
    ------------   -----------------  -----------------  -----------------  -----------------
         N           -0.520287962670    -0.923965640344    -0.021778879528    14.003074004430
         C            0.447466037330    -0.072724640344    -0.015982879528    12.000000000000
         C            1.714453037330    -0.480575640344    -0.729073879528    12.000000000000
         C            0.457704037330     1.305701359656     0.618983120472    12.000000000000
         C            2.780065037330    -0.971301640344     0.256227120472    12.000000000000
         C           -0.173391962670     2.349291359656    -0.310885879528    12.000000000000
         C           -1.698936362670    -0.642929040344     0.591605220472    12.000000000000
         C           -2.906817962670    -0.690053640344    -0.395430879528    12.000000000000
         H            2.103586037330     0.369052359656    -1.305777879528     1.007825032230
         H            1.461022037330    -1.279360640344    -1.431163879528     1.007825032230
         H           -0.060741962670     1.300174359656     1.582415120472     1.007825032230
         H            1.495621037330     1.586338359656     0.827553120472     1.007825032230
         H            3.046330037330    -0.197373640344     0.982529120472     1.007825032230
         H            2.406845037330    -1.840219640344     0.804861120472     1.007825032230
         H            3.693394037330    -1.263609640344    -0.270151879528     1.007825032230
         H            0.338113037330     2.366919359656    -1.277696879528     1.007825032230
         H           -0.108958962670     3.350921359656     0.124476120472     1.007825032230
         H           -1.226984962670     2.122576359656    -0.493629879528     1.007825032230
         H           -1.943916962670    -1.398152640344     1.395337120472     1.007825032230
         H           -1.811604962670     0.347225359656     1.151751120472     1.007825032230
         H           -3.882701962670    -0.549967640344     0.079428120472     1.007825032230
         H           -2.776144962670     0.088101359656    -1.152702879528     1.007825032230
         H           -2.893478962670    -1.659324640344    -0.898488879528     1.007825032230

  Basis Set: AUG-CC-PVTZ
    Blend: AUG-CC-PVTZ
  Basis Set: (AUG-CC-PVTZ AUX)
    Blend: AUG-CC-PVTZ-JKFIT
	 Reference Energy          =    -328.3489391034421487 [Eh]
	 Singles Energy            =      -0.0000000000000000 [Eh]
	 Same-Spin Energy          =      -0.3507420367983547 [Eh]
	 Opposite-Spin Energy      =      -1.2482338437614620 [Eh]
	 Correlation Energy        =      -1.5989758805598167 [Eh]
	 Total Energy              =    -329.9479149840019545 [Eh]

	 ================> DF-SCS-MP2 Energies <==================
	-----------------------------------------------------------
	 SCS Same-Spin Scale       =       0.3333333333333333 [-]
	 SCS Opposite-Spin Scale   =       1.2000000000000000 [-]
	 SCS Same-Spin Energy      =      -0.1169140122661182 [Eh]
	 SCS Opposite-Spin Energy  =      -1.4978806125137543 [Eh]
	 SCS Correlation Energy    =      -1.6147946247798726 [Eh]
	 SCS Total Energy          =    -329.9637337282219960 [Eh]
	-----------------------------------------------------------

  Dipole Moment: [D]
     X:     0.5598      Y:     1.6622      Z:     0.5384     Total:     1.8347

*** Psi4 exiting successfully. Buy a developer a beer!
