                               Psi4 1.3.2 release

  ==> Input File <==

--------------------------------------------------------------------------
#psi4
#
memory 32 gb

molecule  {
0 1
  N       -0.4988959    -0.9488043    -0.0047161
  C        0.4568270    -0.1006020    -0.0211380
  C        1.7238140    -0.5084530    -0.7342290
  C        0.4670650     1.2778240     0.6138280
  C        2.7894260    -0.9991790     0.2510720
  C       -0.1640310     2.3214140    -0.3160410
  C       -1.7763620    -0.6501130     0.6316150
  C       -2.8974570    -0.7179310    -0.4005860
  H        2.1129470     0.3411750    -1.3109330
  H        1.4703830    -1.3072380    -1.4363190
  H       -0.0513810     1.2722970     1.5772600
  H        1.5049820     1.5584610     0.8223980
  H        3.0556910    -0.2252510     0.9773740
  H        2.4162060    -1.8680970     0.7997060
  H        3.7027550    -1.2914870    -0.2753070
  H        0.3474740     2.3390420    -1.2828520
  H       -0.0995980     3.3230440     0.1193210
  H       -1.2176240     2.0946990    -0.4987850
  H       -1.9345560    -1.4260300     1.3901820
  H       -1.8022440     0.3193480     1.1465960
  H       -3.8733410    -0.5778450     0.0742730
  H       -2.7667840     0.0602240    -1.1578580
  H       -2.8841180    -1.6872020    -0.9036440
units angstrom
no_reorient  #important for SAPT in psi4, default
symmetry c1  #important for SAPT in psi4, default
}

set PROPERTIES_ORIGIN ["COM"]
properties('MP2/aug-cc-pvtz', properties = ['dipole'])
--------------------------------------------------------------------------

    Molecular point group: c1
  Charge       = 0
  Multiplicity = 1
  Basis Set: AUG-CC-PVTZ
    Blend: AUG-CC-PVTZ
  Basis Set: (AUG-CC-PVTZ AUX)
    Blend: AUG-CC-PVTZ-JKFIT

    Orbital Energies [Eh]
    ---------------------

    Doubly Occupied:

       1A    -15.536879     2A    -11.270288     3A    -11.241473
       4A    -11.233048     5A    -11.226190     6A    -11.220958
       7A    -11.216950     8A    -11.207697     9A     -1.218955
      10A     -1.065961    11A     -1.026573    12A     -0.994248
      13A     -0.891446    14A     -0.858207    15A     -0.822665
      16A     -0.703499    17A     -0.662359    18A     -0.643336
      19A     -0.599162    20A     -0.591318    21A     -0.590025
      22A     -0.559039    23A     -0.540099    24A     -0.522749
      25A     -0.520236    26A     -0.512547    27A     -0.508594
      28A     -0.488142    29A     -0.482358    30A     -0.471500
      31A     -0.382173    32A     -0.375705

  @DF-RHF Final Energy:  -328.36007821501022

   => Energetics <=

    Nuclear Repulsion Energy =            388.9966833504300894
    One-Electron Energy =               -1214.3447665059140945
    Two-Electron Energy =                 496.9880049404737861
    Total Energy =                       -328.3600782150102191
  Basis Set: (AUG-CC-PVTZ AUX)
    Blend: AUG-CC-PVTZ-RI
    Molecular point group: c1

    Geometry (in Angstrom), charge = 0, multiplicity = 1:

       Center              X                  Y                   Z               Mass
    ------------   -----------------  -----------------  -----------------  -----------------
         N           -0.500539718509    -0.923498287455    -0.007102478008    14.003074004430
         C            0.455183181491    -0.075295987455    -0.023524378008    12.000000000000
         C            1.722170181491    -0.483146987455    -0.736615378008    12.000000000000
         C            0.465421181491     1.303130012545     0.611441621992    12.000000000000
         C            2.787782181491    -0.973872987455     0.248685621992    12.000000000000
         C           -0.165674818509     2.346720012545    -0.318427378008    12.000000000000
         C           -1.778005818509    -0.624806987455     0.629228621992    12.000000000000
         C           -2.899100818509    -0.692624987455    -0.402972378008    12.000000000000
         H            2.111303181491     0.366481012545    -1.313319378008     1.007825032230
         H            1.468739181491    -1.281931987455    -1.438705378008     1.007825032230
         H           -0.053024818509     1.297603012545     1.574873621992     1.007825032230
         H            1.503338181491     1.583767012545     0.820011621992     1.007825032230
         H            3.054047181491    -0.199944987455     0.974987621992     1.007825032230
         H            2.414562181491    -1.842790987455     0.797319621992     1.007825032230
         H            3.701111181491    -1.266180987455    -0.277693378008     1.007825032230
         H            0.345830181491     2.364348012545    -1.285238378008     1.007825032230
         H           -0.101241818509     3.348350012545     0.116934621992     1.007825032230
         H           -1.219267818509     2.120005012545    -0.501171378008     1.007825032230
         H           -1.936199818509    -1.400723987455     1.387795621992     1.007825032230
         H           -1.803887818509     0.344654012545     1.144209621992     1.007825032230
         H           -3.874984818509    -0.552538987455     0.071886621992     1.007825032230
         H           -2.768427818509     0.085530012545    -1.160244378008     1.007825032230
         H           -2.885761818509    -1.661895987455    -0.906030378008     1.007825032230

  Basis Set: AUG-CC-PVTZ
    Blend: AUG-CC-PVTZ
  Basis Set: (AUG-CC-PVTZ AUX)
    Blend: AUG-CC-PVTZ-JKFIT
	 Reference Energy          =    -328.3600782150102191 [Eh]
	 Singles Energy            =      -0.0000000000000000 [Eh]
	 Same-Spin Energy          =      -0.3495773337235156 [Eh]
	 Opposite-Spin Energy      =      -1.2473311075009348 [Eh]
	 Correlation Energy        =      -1.5969084412244503 [Eh]
	 Total Energy              =    -329.9569866562346760 [Eh]

	 ================> DF-SCS-MP2 Energies <==================
	-----------------------------------------------------------
	 SCS Same-Spin Scale       =       0.3333333333333333 [-]
	 SCS Opposite-Spin Scale   =       1.2000000000000000 [-]
	 SCS Same-Spin Energy      =      -0.1165257779078385 [Eh]
	 SCS Opposite-Spin Energy  =      -1.4967973290011216 [Eh]
	 SCS Correlation Energy    =      -1.6133231069089602 [Eh]
	 SCS Total Energy          =    -329.9734013219191979 [Eh]
	-----------------------------------------------------------

  Dipole Moment: [D]
     X:     0.3491      Y:     1.6865      Z:     0.5773     Total:     1.8164

*** Psi4 exiting successfully. Buy a developer a beer!
