                               Psi4 1.3.2 release

  ==> Input File <==

--------------------------------------------------------------------------
#psi4
#
memory 32 gb

molecule  {
0 1
  N       -0.5361419    -0.9576438    -0.0707613
  C        0.4568270    -0.1006020    -0.0211380
  C        1.7238140    -0.5084530    -0.7342290
  C        0.4670650     1.2778240     0.6138280
  C        2.7894260    -0.9991790     0.2510720
  C       -0.1640310     2.3214140    -0.3160410
  C       -1.7763620    -0.6501130     0.6316150
  C       -2.8974570    -0.7179310    -0.4005860
  H        2.1129470     0.3411750    -1.3109330
  H        1.4703830    -1.3072380    -1.4363190
  H       -0.0513810     1.2722970     1.5772600
  H        1.5049820     1.5584610     0.8223980
  H        3.0556910    -0.2252510     0.9773740
  H        2.4162060    -1.8680970     0.7997060
  H        3.7027550    -1.2914870    -0.2753070
  H        0.3474740     2.3390420    -1.2828520
  H       -0.0995980     3.3230440     0.1193210
  H       -1.2176240     2.0946990    -0.4987850
  H       -1.9345560    -1.4260300     1.3901820
  H       -1.8022440     0.3193480     1.1465960
  H       -3.8733410    -0.5778450     0.0742730
  H       -2.7667840     0.0602240    -1.1578580
  H       -2.8841180    -1.6872020    -0.9036440
units angstrom
no_reorient  #important for SAPT in psi4, default
symmetry c1  #important for SAPT in psi4, default
}

set PROPERTIES_ORIGIN ["COM"]
properties('MP2/aug-cc-pvtz', properties = ['dipole'])
--------------------------------------------------------------------------

    Molecular point group: c1
  Charge       = 0
  Multiplicity = 1
  Basis Set: AUG-CC-PVTZ
    Blend: AUG-CC-PVTZ
  Basis Set: (AUG-CC-PVTZ AUX)
    Blend: AUG-CC-PVTZ-JKFIT

    Orbital Energies [Eh]
    ---------------------

    Doubly Occupied:

       1A    -15.542730     2A    -11.276678     3A    -11.239709
       4A    -11.236094     5A    -11.227565     6A    -11.222278
       7A    -11.217990     8A    -11.204676     9A     -1.209326
      10A     -1.067996    11A     -1.027520    12A     -0.989804
      13A     -0.891995    14A     -0.858446    15A     -0.818353
      16A     -0.706986    17A     -0.662874    18A     -0.642127
      19A     -0.599244    20A     -0.592139    21A     -0.589592
      22A     -0.556305    23A     -0.540266    24A     -0.522829
      25A     -0.518954    26A     -0.510671    27A     -0.508305
      28A     -0.488217    29A     -0.482148    30A     -0.468175
      31A     -0.385980    32A     -0.372757

  @DF-RHF Final Energy:  -328.35517623014971

   => Energetics <=

    Nuclear Repulsion Energy =            388.3698588909636555
    One-Electron Energy =               -1213.0926133305827079
    Two-Electron Energy =                 496.3675782094693432
    Total Energy =                       -328.3551762301497092
  Basis Set: (AUG-CC-PVTZ AUX)
    Blend: AUG-CC-PVTZ-RI
    Molecular point group: c1

    Geometry (in Angstrom), charge = 0, multiplicity = 1:

       Center              X                  Y                   Z               Mass
    ------------   -----------------  -----------------  -----------------  -----------------
         N           -0.533175071214    -0.931243554067    -0.064972004844    14.003074004430
         C            0.459793828786    -0.074201754067    -0.015348704844    12.000000000000
         C            1.726780828786    -0.482052754067    -0.728439704844    12.000000000000
         C            0.470031828786     1.304224245933     0.619617295156    12.000000000000
         C            2.792392828786    -0.972778754067     0.256861295156    12.000000000000
         C           -0.161064171214     2.347814245933    -0.310251704844    12.000000000000
         C           -1.773395171214    -0.623712754067     0.637404295156    12.000000000000
         C           -2.894490171214    -0.691530754067    -0.394796704844    12.000000000000
         H            2.115913828786     0.367575245933    -1.305143704844     1.007825032230
         H            1.473349828786    -1.280837754067    -1.430529704844     1.007825032230
         H           -0.048414171214     1.298697245933     1.583049295156     1.007825032230
         H            1.507948828786     1.584861245933     0.828187295156     1.007825032230
         H            3.058657828786    -0.198850754067     0.983163295156     1.007825032230
         H            2.419172828786    -1.841696754067     0.805495295156     1.007825032230
         H            3.705721828786    -1.265086754067    -0.269517704844     1.007825032230
         H            0.350440828786     2.365442245933    -1.277062704844     1.007825032230
         H           -0.096631171214     3.349444245933     0.125110295156     1.007825032230
         H           -1.214657171214     2.121099245933    -0.492995704844     1.007825032230
         H           -1.931589171214    -1.399629754067     1.395971295156     1.007825032230
         H           -1.799277171214     0.345748245933     1.152385295156     1.007825032230
         H           -3.870374171214    -0.551444754067     0.080062295156     1.007825032230
         H           -2.763817171214     0.086624245933    -1.152068704844     1.007825032230
         H           -2.881151171214    -1.660801754067    -0.897854704844     1.007825032230

  Basis Set: AUG-CC-PVTZ
    Blend: AUG-CC-PVTZ
  Basis Set: (AUG-CC-PVTZ AUX)
    Blend: AUG-CC-PVTZ-JKFIT
	 Reference Energy          =    -328.3551762301497092 [Eh]
	 Singles Energy            =      -0.0000000000000000 [Eh]
	 Same-Spin Energy          =      -0.3505095716480249 [Eh]
	 Opposite-Spin Energy      =      -1.2495775026804385 [Eh]
	 Correlation Energy        =      -1.6000870743284634 [Eh]
	 Total Energy              =    -329.9552633044781942 [Eh]

	 ================> DF-SCS-MP2 Energies <==================
	-----------------------------------------------------------
	 SCS Same-Spin Scale       =       0.3333333333333333 [-]
	 SCS Opposite-Spin Scale   =       1.2000000000000000 [-]
	 SCS Same-Spin Energy      =      -0.1168365238826750 [Eh]
	 SCS Opposite-Spin Energy  =      -1.4994930032165261 [Eh]
	 SCS Correlation Energy    =      -1.6163295270992011 [Eh]
	 SCS Total Energy          =    -329.9715057572489059 [Eh]
	-----------------------------------------------------------

  Dipole Moment: [D]
     X:     0.4679      Y:     1.7337      Z:     0.6866     Total:     1.9225

*** Psi4 exiting successfully. Buy a developer a beer!
