                               Psi4 1.3.2 release

  ==> Input File <==

--------------------------------------------------------------------------
#psi4
#
memory 32 gb

molecule  {
0 1
  N       -0.5109270    -0.9518430    -0.0269340
  C        0.4440304    -0.0864321    -0.0092436
  C        1.7238140    -0.5084530    -0.7342290
  C        0.4670650     1.2778240     0.6138280
  C        2.7894260    -0.9991790     0.2510720
  C       -0.1640310     2.3214140    -0.3160410
  C       -1.7763620    -0.6501130     0.6316150
  C       -2.8974570    -0.7179310    -0.4005860
  H        2.1129470     0.3411750    -1.3109330
  H        1.4703830    -1.3072380    -1.4363190
  H       -0.0513810     1.2722970     1.5772600
  H        1.5049820     1.5584610     0.8223980
  H        3.0556910    -0.2252510     0.9773740
  H        2.4162060    -1.8680970     0.7997060
  H        3.7027550    -1.2914870    -0.2753070
  H        0.3474740     2.3390420    -1.2828520
  H       -0.0995980     3.3230440     0.1193210
  H       -1.2176240     2.0946990    -0.4987850
  H       -1.9345560    -1.4260300     1.3901820
  H       -1.8022440     0.3193480     1.1465960
  H       -3.8733410    -0.5778450     0.0742730
  H       -2.7667840     0.0602240    -1.1578580
  H       -2.8841180    -1.6872020    -0.9036440
units angstrom
no_reorient  #important for SAPT in psi4, default
symmetry c1  #important for SAPT in psi4, default
}

set PROPERTIES_ORIGIN ["COM"]
properties('MP2/aug-cc-pvtz', properties = ['dipole'])
--------------------------------------------------------------------------

    Molecular point group: c1
  Charge       = 0
  Multiplicity = 1
  Basis Set: AUG-CC-PVTZ
    Blend: AUG-CC-PVTZ
  Basis Set: (AUG-CC-PVTZ AUX)
    Blend: AUG-CC-PVTZ-JKFIT

    Orbital Energies [Eh]
    ---------------------

    Doubly Occupied:

       1A    -15.539332     2A    -11.272304     3A    -11.240375
       4A    -11.234173     5A    -11.227494     6A    -11.221480
       7A    -11.216437     8A    -11.206641     9A     -1.216651
      10A     -1.066775    11A     -1.026698    12A     -0.992478
      13A     -0.891849    14A     -0.858603    15A     -0.820050
      16A     -0.705185    17A     -0.662799    18A     -0.643083
      19A     -0.600285    20A     -0.590644    21A     -0.589350
      22A     -0.557999    23A     -0.540695    24A     -0.523382
      25A     -0.520188    26A     -0.510863    27A     -0.508518
      28A     -0.488751    29A     -0.482144    30A     -0.467542
      31A     -0.381644    32A     -0.378538

  @DF-RHF Final Energy:  -328.35837183444573

   => Energetics <=

    Nuclear Repulsion Energy =            388.8430004223705510
    One-Electron Energy =               -1214.0368448509630070
    Two-Electron Energy =                 496.8354725941467223
    Total Energy =                       -328.3583718344457338
  Basis Set: (AUG-CC-PVTZ AUX)
    Blend: AUG-CC-PVTZ-RI
    Molecular point group: c1

    Geometry (in Angstrom), charge = 0, multiplicity = 1:

       Center              X                  Y                   Z               Mass
    ------------   -----------------  -----------------  -----------------  -----------------
         N           -0.509724015962    -0.927663995521    -0.027831822237    14.003074004430
         C            0.445233384038    -0.062253095521    -0.010141422237    12.000000000000
         C            1.725016984038    -0.484273995521    -0.735126822237    12.000000000000
         C            0.468267984038     1.302003004479     0.612930177763    12.000000000000
         C            2.790628984038    -0.974999995521     0.250174177763    12.000000000000
         C           -0.162828015962     2.345593004479    -0.316938822237    12.000000000000
         C           -1.775159015962    -0.625933995521     0.630717177763    12.000000000000
         C           -2.896254015962    -0.693751995521    -0.401483822237    12.000000000000
         H            2.114149984038     0.365354004479    -1.311830822237     1.007825032230
         H            1.471585984038    -1.283058995521    -1.437216822237     1.007825032230
         H           -0.050178015962     1.296476004479     1.576362177763     1.007825032230
         H            1.506184984038     1.582640004479     0.821500177763     1.007825032230
         H            3.056893984038    -0.201071995521     0.976476177763     1.007825032230
         H            2.417408984038    -1.843917995521     0.798808177763     1.007825032230
         H            3.703957984038    -1.267307995521    -0.276204822237     1.007825032230
         H            0.348676984038     2.363221004479    -1.283749822237     1.007825032230
         H           -0.098395015962     3.347223004479     0.118423177763     1.007825032230
         H           -1.216421015962     2.118878004479    -0.499682822237     1.007825032230
         H           -1.933353015962    -1.401850995521     1.389284177763     1.007825032230
         H           -1.801041015962     0.343527004479     1.145698177763     1.007825032230
         H           -3.872138015962    -0.553665995521     0.073375177763     1.007825032230
         H           -2.765581015962     0.084403004479    -1.158755822237     1.007825032230
         H           -2.882915015962    -1.663022995521    -0.904541822237     1.007825032230

  Basis Set: AUG-CC-PVTZ
    Blend: AUG-CC-PVTZ
  Basis Set: (AUG-CC-PVTZ AUX)
    Blend: AUG-CC-PVTZ-JKFIT
	 Reference Energy          =    -328.3583718344457338 [Eh]
	 Singles Energy            =      -0.0000000000000000 [Eh]
	 Same-Spin Energy          =      -0.3499004037039415 [Eh]
	 Opposite-Spin Energy      =      -1.2481505569473996 [Eh]
	 Correlation Energy        =      -1.5980509606513411 [Eh]
	 Total Energy              =    -329.9564227950970690 [Eh]

	 ================> DF-SCS-MP2 Energies <==================
	-----------------------------------------------------------
	 SCS Same-Spin Scale       =       0.3333333333333333 [-]
	 SCS Opposite-Spin Scale   =       1.2000000000000000 [-]
	 SCS Same-Spin Energy      =      -0.1166334679013138 [Eh]
	 SCS Opposite-Spin Energy  =      -1.4977806683368795 [Eh]
	 SCS Correlation Energy    =      -1.6144141362381934 [Eh]
	 SCS Total Energy          =    -329.9727859706839013 [Eh]
	-----------------------------------------------------------

  Dipole Moment: [D]
     X:     0.3489      Y:     1.7479      Z:     0.6359     Total:     1.8924

*** Psi4 exiting successfully. Buy a developer a beer!
