                               Psi4 1.3.2 release

  ==> Input File <==

--------------------------------------------------------------------------
#psi4
#
memory 32 gb

molecule  {
0 1
  N       -0.5109270    -0.9518430    -0.0269340
  C        0.4568270    -0.1006020    -0.0211380
  C        1.7345689    -0.4852375    -0.7279113
  C        0.4670650     1.2778240     0.6138280
  C        2.7894260    -0.9991790     0.2510720
  C       -0.1640310     2.3214140    -0.3160410
  C       -1.7763620    -0.6501130     0.6316150
  C       -2.8974570    -0.7179310    -0.4005860
  H        2.1129470     0.3411750    -1.3109330
  H        1.4703830    -1.3072380    -1.4363190
  H       -0.0513810     1.2722970     1.5772600
  H        1.5049820     1.5584610     0.8223980
  H        3.0556910    -0.2252510     0.9773740
  H        2.4162060    -1.8680970     0.7997060
  H        3.7027550    -1.2914870    -0.2753070
  H        0.3474740     2.3390420    -1.2828520
  H       -0.0995980     3.3230440     0.1193210
  H       -1.2176240     2.0946990    -0.4987850
  H       -1.9345560    -1.4260300     1.3901820
  H       -1.8022440     0.3193480     1.1465960
  H       -3.8733410    -0.5778450     0.0742730
  H       -2.7667840     0.0602240    -1.1578580
  H       -2.8841180    -1.6872020    -0.9036440
units angstrom
no_reorient  #important for SAPT in psi4, default
symmetry c1  #important for SAPT in psi4, default
}

set PROPERTIES_ORIGIN ["COM"]
properties('MP2/aug-cc-pvtz', properties = ['dipole'])
--------------------------------------------------------------------------

    Molecular point group: c1
  Charge       = 0
  Multiplicity = 1
  Basis Set: AUG-CC-PVTZ
    Blend: AUG-CC-PVTZ
  Basis Set: (AUG-CC-PVTZ AUX)
    Blend: AUG-CC-PVTZ-JKFIT

    Orbital Energies [Eh]
    ---------------------

    Doubly Occupied:

       1A    -15.539271     2A    -11.272546     3A    -11.241255
       4A    -11.233493     5A    -11.226613     6A    -11.221535
       7A    -11.217274     8A    -11.206821     9A     -1.215757
      10A     -1.067310    11A     -1.026722    12A     -0.993312
      13A     -0.892084    14A     -0.857552    15A     -0.821839
      16A     -0.704639    17A     -0.661452    18A     -0.644009
      19A     -0.599840    20A     -0.591891    21A     -0.589898
      22A     -0.557696    23A     -0.540341    24A     -0.522591
      25A     -0.520014    26A     -0.514081    27A     -0.508964
      28A     -0.488477    29A     -0.479559    30A     -0.469297
      31A     -0.380169    32A     -0.378410

  @DF-RHF Final Energy:  -328.35811976150683

   => Energetics <=

    Nuclear Repulsion Energy =            388.8302507151896634
    One-Electron Energy =               -1214.0073193424454985
    Two-Electron Energy =                 496.8189488657490074
    Total Energy =                       -328.3581197615068277
  Basis Set: (AUG-CC-PVTZ AUX)
    Blend: AUG-CC-PVTZ-RI
    Molecular point group: c1

    Geometry (in Angstrom), charge = 0, multiplicity = 1:

       Center              X                  Y                   Z               Mass
    ------------   -----------------  -----------------  -----------------  -----------------
         N           -0.512222397124    -0.928623567380    -0.027240236893    14.003074004430
         C            0.455531602876    -0.077382567380    -0.021444236893    12.000000000000
         C            1.733273502876    -0.462018067380    -0.728217536893    12.000000000000
         C            0.465769602876     1.301043432620     0.613521763107    12.000000000000
         C            2.788130602876    -0.975959567380     0.250765763107    12.000000000000
         C           -0.165326397124     2.344633432620    -0.316347236893    12.000000000000
         C           -1.777657397124    -0.626893567380     0.631308763107    12.000000000000
         C           -2.898752397124    -0.694711567380    -0.400892236893    12.000000000000
         H            2.111651602876     0.364394432620    -1.311239236893     1.007825032230
         H            1.469087602876    -1.284018567380    -1.436625236893     1.007825032230
         H           -0.052676397124     1.295516432620     1.576953763107     1.007825032230
         H            1.503686602876     1.581680432620     0.822091763107     1.007825032230
         H            3.054395602876    -0.202031567380     0.977067763107     1.007825032230
         H            2.414910602876    -1.844877567380     0.799399763107     1.007825032230
         H            3.701459602876    -1.268267567380    -0.275613236893     1.007825032230
         H            0.346178602876     2.362261432620    -1.283158236893     1.007825032230
         H           -0.100893397124     3.346263432620     0.119014763107     1.007825032230
         H           -1.218919397124     2.117918432620    -0.499091236893     1.007825032230
         H           -1.935851397124    -1.402810567380     1.389875763107     1.007825032230
         H           -1.803539397124     0.342567432620     1.146289763107     1.007825032230
         H           -3.874636397124    -0.554625567380     0.073966763107     1.007825032230
         H           -2.768079397124     0.083443432620    -1.158164236893     1.007825032230
         H           -2.885413397124    -1.663982567380    -0.903950236893     1.007825032230

  Basis Set: AUG-CC-PVTZ
    Blend: AUG-CC-PVTZ
  Basis Set: (AUG-CC-PVTZ AUX)
    Blend: AUG-CC-PVTZ-JKFIT
	 Reference Energy          =    -328.3581197615068277 [Eh]
	 Singles Energy            =      -0.0000000000000000 [Eh]
	 Same-Spin Energy          =      -0.3499215464652726 [Eh]
	 Opposite-Spin Energy      =      -1.2481137662682964 [Eh]
	 Correlation Energy        =      -1.5980353127335691 [Eh]
	 Total Energy              =    -329.9561550742403711 [Eh]

	 ================> DF-SCS-MP2 Energies <==================
	-----------------------------------------------------------
	 SCS Same-Spin Scale       =       0.3333333333333333 [-]
	 SCS Opposite-Spin Scale   =       1.2000000000000000 [-]
	 SCS Same-Spin Energy      =      -0.1166405154884242 [Eh]
	 SCS Opposite-Spin Energy  =      -1.4977365195219556 [Eh]
	 SCS Correlation Energy    =      -1.6143770350103799 [Eh]
	 SCS Total Energy          =    -329.9724967965171913 [Eh]
	-----------------------------------------------------------

  Dipole Moment: [D]
     X:     0.3848      Y:     1.7083      Z:     0.6157     Total:     1.8562

*** Psi4 exiting successfully. Buy a developer a beer!
