                               Psi4 1.3.2 release

  ==> Input File <==

--------------------------------------------------------------------------
#psi4
#
memory 32 gb

molecule  {
0 1
  N       -0.5109270    -0.9518430    -0.0269340
  C        0.4568270    -0.1006020    -0.0211380
  C        1.8077205    -0.5354630    -0.7814536
  C        0.4670650     1.2778240     0.6138280
  C        2.7894260    -0.9991790     0.2510720
  C       -0.1640310     2.3214140    -0.3160410
  C       -1.7763620    -0.6501130     0.6316150
  C       -2.8974570    -0.7179310    -0.4005860
  H        2.1129470     0.3411750    -1.3109330
  H        1.4703830    -1.3072380    -1.4363190
  H       -0.0513810     1.2722970     1.5772600
  H        1.5049820     1.5584610     0.8223980
  H        3.0556910    -0.2252510     0.9773740
  H        2.4162060    -1.8680970     0.7997060
  H        3.7027550    -1.2914870    -0.2753070
  H        0.3474740     2.3390420    -1.2828520
  H       -0.0995980     3.3230440     0.1193210
  H       -1.2176240     2.0946990    -0.4987850
  H       -1.9345560    -1.4260300     1.3901820
  H       -1.8022440     0.3193480     1.1465960
  H       -3.8733410    -0.5778450     0.0742730
  H       -2.7667840     0.0602240    -1.1578580
  H       -2.8841180    -1.6872020    -0.9036440
units angstrom
no_reorient  #important for SAPT in psi4, default
symmetry c1  #important for SAPT in psi4, default
}

set PROPERTIES_ORIGIN ["COM"]
properties('MP2/aug-cc-pvtz', properties = ['dipole'])
--------------------------------------------------------------------------

    Molecular point group: c1
  Charge       = 0
  Multiplicity = 1
  Basis Set: AUG-CC-PVTZ
    Blend: AUG-CC-PVTZ
  Basis Set: (AUG-CC-PVTZ AUX)
    Blend: AUG-CC-PVTZ-JKFIT

    Orbital Energies [Eh]
    ---------------------

    Doubly Occupied:

       1A    -15.538282     2A    -11.274975     3A    -11.240828
       4A    -11.234026     5A    -11.226612     6A    -11.221296
       7A    -11.215220     8A    -11.206486     9A     -1.211705
      10A     -1.063376    11A     -1.028737    12A     -0.994579
      13A     -0.886688    14A     -0.855961    15A     -0.822668
      16A     -0.702609    17A     -0.660735    18A     -0.640254
      19A     -0.604252    20A     -0.592716    21A     -0.587645
      22A     -0.556855    23A     -0.538867    24A     -0.525716
      25A     -0.522224    26A     -0.517551    27A     -0.507703
      28A     -0.493003    29A     -0.486537    30A     -0.456930
      31A     -0.380629    32A     -0.371633

  @DF-RHF Final Energy:  -328.35118544066165

   => Energetics <=

    Nuclear Repulsion Energy =            387.4593618788529170
    One-Electron Energy =               -1211.2865009296124299
    Two-Electron Energy =                 495.4759536100979176
    Total Energy =                       -328.3511854406616521
  Basis Set: (AUG-CC-PVTZ AUX)
    Blend: AUG-CC-PVTZ-RI
    Molecular point group: c1

    Geometry (in Angstrom), charge = 0, multiplicity = 1:

       Center              X                  Y                   Z               Mass
    ------------   -----------------  -----------------  -----------------  -----------------
         N           -0.519982437010    -0.923295565213    -0.021560383225    14.003074004430
         C            0.447771562990    -0.072054565213    -0.015764383225    12.000000000000
         C            1.798665062990    -0.506915565213    -0.776079983225    12.000000000000
         C            0.458009562990     1.306371434787     0.619201616775    12.000000000000
         C            2.780370562990    -0.970631565213     0.256445616775    12.000000000000
         C           -0.173086437010     2.349961434787    -0.310667383225    12.000000000000
         C           -1.785417437010    -0.621565565213     0.636988616775    12.000000000000
         C           -2.906512437010    -0.689383565213    -0.395212383225    12.000000000000
         H            2.103891562990     0.369722434787    -1.305559383225     1.007825032230
         H            1.461327562990    -1.278690565213    -1.430945383225     1.007825032230
         H           -0.060436437010     1.300844434787     1.582633616775     1.007825032230
         H            1.495926562990     1.587008434787     0.827771616775     1.007825032230
         H            3.046635562990    -0.196703565213     0.982747616775     1.007825032230
         H            2.407150562990    -1.839549565213     0.805079616775     1.007825032230
         H            3.693699562990    -1.262939565213    -0.269933383225     1.007825032230
         H            0.338418562990     2.367589434787    -1.277478383225     1.007825032230
         H           -0.108653437010     3.351591434787     0.124694616775     1.007825032230
         H           -1.226679437010     2.123246434787    -0.493411383225     1.007825032230
         H           -1.943611437010    -1.397482565213     1.395555616775     1.007825032230
         H           -1.811299437010     0.347895434787     1.151969616775     1.007825032230
         H           -3.882396437010    -0.549297565213     0.079646616775     1.007825032230
         H           -2.775839437010     0.088771434787    -1.152484383225     1.007825032230
         H           -2.893173437010    -1.658654565213    -0.898270383225     1.007825032230

  Basis Set: AUG-CC-PVTZ
    Blend: AUG-CC-PVTZ
  Basis Set: (AUG-CC-PVTZ AUX)
    Blend: AUG-CC-PVTZ-JKFIT
	 Reference Energy          =    -328.3511854406616521 [Eh]
	 Singles Energy            =      -0.0000000000000000 [Eh]
	 Same-Spin Energy          =      -0.3497559222784749 [Eh]
	 Opposite-Spin Energy      =      -1.2482271610120816 [Eh]
	 Correlation Energy        =      -1.5979830832905564 [Eh]
	 Total Energy              =    -329.9491685239522099 [Eh]

	 ================> DF-SCS-MP2 Energies <==================
	-----------------------------------------------------------
	 SCS Same-Spin Scale       =       0.3333333333333333 [-]
	 SCS Opposite-Spin Scale   =       1.2000000000000000 [-]
	 SCS Same-Spin Energy      =      -0.1165853074261583 [Eh]
	 SCS Opposite-Spin Energy  =      -1.4978725932144978 [Eh]
	 SCS Correlation Energy    =      -1.6144579006406561 [Eh]
	 SCS Total Energy          =    -329.9656433413023251 [Eh]
	-----------------------------------------------------------

  Dipole Moment: [D]
     X:     0.3399      Y:     1.7191      Z:     0.6352     Total:     1.8639

*** Psi4 exiting successfully. Buy a developer a beer!
