                               Psi4 1.4a3.dev225

  ==> Input File <==

--------------------------------------------------------------------------
#psi4
#
memory 32 gb

molecule  {
0 1
  N       -0.5109430    -0.9518430    -0.0269260
  C        0.4568240    -0.1006160    -0.0211450
  C        1.7237990    -0.5085590    -0.7342300
  C        0.4670880     1.2778150     0.6137790
  C        2.7894950    -0.9990730     0.2510970
  C       -0.1640680     2.3213990    -0.3160610
  C       -1.7937362    -0.6459318     0.6406640
  C       -2.8974700    -0.7179400    -0.4005630
  H        2.1128780     0.3409680    -1.3111240
  H        1.4703470    -1.3074830    -1.4361490
  H       -0.0513130     1.2723030     1.5772340
  H        1.5050160     1.5584520     0.8222760
  H        3.0557420    -0.2250230     0.9772740
  H        2.4163470    -1.8679380     0.7998630
  H        3.7028160    -1.2913930    -0.2752870
  H        0.3476260     2.3392860    -1.2827640
  H       -0.0999350     3.3229720     0.1194750
  H       -1.2175750     2.0944730    -0.4990280
  H       -1.9345660    -1.4259490     1.3902370
  H       -1.8022330     0.3194130     1.1465770
  H       -3.8733550    -0.5777970     0.0742800
  H       -2.7667810     0.0601400    -1.1579070
  H       -2.8841480    -1.6872580    -0.9035300
units angstrom
no_reorient  #important for SAPT in psi4, default
symmetry c1  #important for SAPT in psi4, default
}

set PROPERTIES_ORIGIN ["COM"]
properties('MP2/aug-cc-pvtz', properties = ['dipole'])
--------------------------------------------------------------------------

    Molecular point group: c1
  Charge       = 0
  Multiplicity = 1
  Basis Set: AUG-CC-PVTZ
    Blend: AUG-CC-PVTZ
  Basis Set: (AUG-CC-PVTZ AUX)
    Blend: AUG-CC-PVTZ-JKFIT

    Orbital Energies [Eh]
    ---------------------

    Doubly Occupied:

       1A    -15.538805     2A    -11.271306     3A    -11.240689
       4A    -11.233812     5A    -11.226527     6A    -11.220976
       7A    -11.216938     8A    -11.206787     9A     -1.212076
      10A     -1.065479    11A     -1.026682    12A     -0.994242
      13A     -0.890586    14A     -0.857970    15A     -0.821696
      16A     -0.703504    17A     -0.661771    18A     -0.642171
      19A     -0.599605    20A     -0.591496    21A     -0.590007
      22A     -0.557012    23A     -0.539872    24A     -0.521992
      25A     -0.519710    26A     -0.512955    27A     -0.508959
      28A     -0.488396    29A     -0.481513    30A     -0.471633
      31A     -0.379747    32A     -0.377967

  @DF-RHF Final Energy:  -328.35862628120185

   => Energetics <=

    Nuclear Repulsion Energy =            388.5325625906824030
    One-Electron Energy =               -1213.4366189888246481
    Two-Electron Energy =                 496.5454301169404516
    Total Energy =                       -328.3586262812018504
  Basis Set: (AUG-CC-PVTZ AUX)
    Blend: AUG-CC-PVTZ-RI
    Molecular point group: c1

    Geometry (in Angstrom), charge = 0, multiplicity = 1:

       Center              X                  Y                   Z               Mass
    ------------   -----------------  -----------------  -----------------  -----------------
         N           -0.509255641383    -0.926599623897    -0.027520025194    14.003074004430
         C            0.458511358617    -0.075372623897    -0.021739025194    12.000000000000
         C            1.725486358617    -0.483315623897    -0.734824025194    12.000000000000
         C            0.468775358617     1.303058376103     0.613184974806    12.000000000000
         C            2.791182358617    -0.973829623897     0.250502974806    12.000000000000
         C           -0.162380641383     2.346642376103    -0.316655025194    12.000000000000
         C           -1.792048841383    -0.620688423897     0.640069974806    12.000000000000
         C           -2.895782641383    -0.692696623897    -0.401157025194    12.000000000000
         H            2.114565358617     0.366211376103    -1.311718025194     1.007825032230
         H            1.472034358617    -1.282239623897    -1.436743025194     1.007825032230
         H           -0.049625641383     1.297546376103     1.576639974806     1.007825032230
         H            1.506703358617     1.583695376103     0.821681974806     1.007825032230
         H            3.057429358617    -0.199779623897     0.976679974806     1.007825032230
         H            2.418034358617    -1.842694623897     0.799268974806     1.007825032230
         H            3.704503358617    -1.266149623897    -0.275881025194     1.007825032230
         H            0.349313358617     2.364529376103    -1.283358025194     1.007825032230
         H           -0.098247641383     3.348215376103     0.118880974806     1.007825032230
         H           -1.215887641383     2.119716376103    -0.499622025194     1.007825032230
         H           -1.932878641383    -1.400705623897     1.389642974806     1.007825032230
         H           -1.800545641383     0.344656376103     1.145982974806     1.007825032230
         H           -3.871667641383    -0.552553623897     0.073685974806     1.007825032230
         H           -2.765093641383     0.085383376103    -1.158501025194     1.007825032230
         H           -2.882460641383    -1.662014623897    -0.904124025194     1.007825032230

  Basis Set: AUG-CC-PVTZ
    Blend: AUG-CC-PVTZ
  Basis Set: (AUG-CC-PVTZ AUX)
    Blend: AUG-CC-PVTZ-JKFIT
	 Reference Energy          =    -328.3586262812018504 [Eh]
	 Singles Energy            =      -0.0000000000000000 [Eh]
	 Same-Spin Energy          =      -0.3497954106221334 [Eh]
	 Opposite-Spin Energy      =      -1.2481398345202690 [Eh]
	 Correlation Energy        =      -1.5979352451424025 [Eh]
	 Total Energy              =    -329.9565615263442737 [Eh]

	 ================> DF-SCS-MP2 Energies <==================
	-----------------------------------------------------------
	 SCS Same-Spin Scale       =       0.3333333333333333 [-]
	 SCS Opposite-Spin Scale   =       1.2000000000000000 [-]
	 SCS Same-Spin Energy      =      -0.1165984702073778 [Eh]
	 SCS Opposite-Spin Energy  =      -1.4977678014243228 [Eh]
	 SCS Correlation Energy    =      -1.6143662716317004 [Eh]
	 SCS Total Energy          =    -329.9729925528335457 [Eh]
	-----------------------------------------------------------

  Dipole Moment: [D]
     X:     0.3584      Y:     1.7091      Z:     0.6257     Total:     1.8550

*** Psi4 exiting successfully. Buy a developer a beer!
