                               Psi4 1.3.2 release

  ==> Input File <==

--------------------------------------------------------------------------
#psi4
#
memory 32 gb

molecule  {
0 1
  N       -0.5234094    -0.9374362    -0.0149905
  C        0.4568270    -0.1006020    -0.0211380
  C        1.7238140    -0.5084530    -0.7342290
  C        0.4670650     1.2778240     0.6138280
  C        2.7894260    -0.9991790     0.2510720
  C       -0.1640310     2.3214140    -0.3160410
  C       -1.7763620    -0.6501130     0.6316150
  C       -2.8974570    -0.7179310    -0.4005860
  H        2.1129470     0.3411750    -1.3109330
  H        1.4703830    -1.3072380    -1.4363190
  H       -0.0513810     1.2722970     1.5772600
  H        1.5049820     1.5584610     0.8223980
  H        3.0556910    -0.2252510     0.9773740
  H        2.4162060    -1.8680970     0.7997060
  H        3.7027550    -1.2914870    -0.2753070
  H        0.3474740     2.3390420    -1.2828520
  H       -0.0995980     3.3230440     0.1193210
  H       -1.2176240     2.0946990    -0.4987850
  H       -1.9345560    -1.4260300     1.3901820
  H       -1.8022440     0.3193480     1.1465960
  H       -3.8733410    -0.5778450     0.0742730
  H       -2.7667840     0.0602240    -1.1578580
  H       -2.8841180    -1.6872020    -0.9036440
units angstrom
no_reorient  #important for SAPT in psi4, default
symmetry c1  #important for SAPT in psi4, default
}

set PROPERTIES_ORIGIN ["COM"]
properties('MP2/aug-cc-pvtz', properties = ['dipole'])
--------------------------------------------------------------------------

    Molecular point group: c1
  Charge       = 0
  Multiplicity = 1
  Basis Set: AUG-CC-PVTZ
    Blend: AUG-CC-PVTZ
  Basis Set: (AUG-CC-PVTZ AUX)
    Blend: AUG-CC-PVTZ-JKFIT

    Orbital Energies [Eh]
    ---------------------

    Doubly Occupied:

       1A    -15.536997     2A    -11.272729     3A    -11.239946
       4A    -11.233062     5A    -11.226164     6A    -11.222286
       7A    -11.217746     8A    -11.206598     9A     -1.218294
      10A     -1.068156    11A     -1.026559    12A     -0.992814
      13A     -0.892496    14A     -0.858064    15A     -0.822623
      16A     -0.705262    17A     -0.663363    18A     -0.643692
      19A     -0.599409    20A     -0.592371    21A     -0.590393
      22A     -0.559152    23A     -0.539761    24A     -0.522712
      25A     -0.519949    26A     -0.512792    27A     -0.508822
      28A     -0.488209    29A     -0.483187    30A     -0.471471
      31A     -0.377988    32A     -0.376448

  @DF-RHF Final Energy:  -328.35929062904381

   => Energetics <=

    Nuclear Repulsion Energy =            389.0705714709601466
    One-Electron Energy =               -1214.4806944981630750
    Two-Electron Energy =                 497.0508323981590593
    Total Energy =                       -328.3592906290438123
  Basis Set: (AUG-CC-PVTZ AUX)
    Blend: AUG-CC-PVTZ-RI
    Molecular point group: c1

    Geometry (in Angstrom), charge = 0, multiplicity = 1:

       Center              X                  Y                   Z               Mass
    ------------   -----------------  -----------------  -----------------  -----------------
         N           -0.522018715409    -0.913537433857    -0.016105019700    14.003074004430
         C            0.458217684591    -0.076703233857    -0.022252519700    12.000000000000
         C            1.725204684591    -0.484554233857    -0.735343519700    12.000000000000
         C            0.468455684591     1.301722766143     0.612713480300    12.000000000000
         C            2.790816684591    -0.975280233857     0.249957480300    12.000000000000
         C           -0.162640315409     2.345312766143    -0.317155519700    12.000000000000
         C           -1.774971315409    -0.626214233857     0.630500480300    12.000000000000
         C           -2.896066315409    -0.694032233857    -0.401700519700    12.000000000000
         H            2.114337684591     0.365073766143    -1.312047519700     1.007825032230
         H            1.471773684591    -1.283339233857    -1.437433519700     1.007825032230
         H           -0.049990315409     1.296195766143     1.576145480300     1.007825032230
         H            1.506372684591     1.582359766143     0.821283480300     1.007825032230
         H            3.057081684591    -0.201352233857     0.976259480300     1.007825032230
         H            2.417596684591    -1.844198233857     0.798591480300     1.007825032230
         H            3.704145684591    -1.267588233857    -0.276421519700     1.007825032230
         H            0.348864684591     2.362940766143    -1.283966519700     1.007825032230
         H           -0.098207315409     3.346942766143     0.118206480300     1.007825032230
         H           -1.216233315409     2.118597766143    -0.499899519700     1.007825032230
         H           -1.933165315409    -1.402131233857     1.389067480300     1.007825032230
         H           -1.800853315409     0.343246766143     1.145481480300     1.007825032230
         H           -3.871950315409    -0.553946233857     0.073158480300     1.007825032230
         H           -2.765393315409     0.084122766143    -1.158972519700     1.007825032230
         H           -2.882727315409    -1.663303233857    -0.904758519700     1.007825032230

  Basis Set: AUG-CC-PVTZ
    Blend: AUG-CC-PVTZ
  Basis Set: (AUG-CC-PVTZ AUX)
    Blend: AUG-CC-PVTZ-JKFIT
	 Reference Energy          =    -328.3592906290438123 [Eh]
	 Singles Energy            =      -0.0000000000000000 [Eh]
	 Same-Spin Energy          =      -0.3498983842085742 [Eh]
	 Opposite-Spin Energy      =      -1.2477148794994177 [Eh]
	 Correlation Energy        =      -1.5976132637079918 [Eh]
	 Total Energy              =    -329.9569038927518250 [Eh]

	 ================> DF-SCS-MP2 Energies <==================
	-----------------------------------------------------------
	 SCS Same-Spin Scale       =       0.3333333333333333 [-]
	 SCS Opposite-Spin Scale   =       1.2000000000000000 [-]
	 SCS Same-Spin Energy      =      -0.1166327947361914 [Eh]
	 SCS Opposite-Spin Energy  =      -1.4972578553993012 [Eh]
	 SCS Correlation Energy    =      -1.6138906501354926 [Eh]
	 SCS Total Energy          =    -329.9731812791793004 [Eh]
	-----------------------------------------------------------

  Dipole Moment: [D]
     X:     0.4159      Y:     1.6578      Z:     0.5907     Total:     1.8084

*** Psi4 exiting successfully. Buy a developer a beer!
