                               Psi4 1.4a3.dev225

  ==> Input File <==

--------------------------------------------------------------------------
#psi4
#
memory 32 gb

molecule  {
0 1
  N       -0.5109430    -0.9518430    -0.0269260
  C        0.4943671    -0.0675939    -0.0209207
  C        1.7237990    -0.5085590    -0.7342300
  C        0.4670880     1.2778150     0.6137790
  C        2.7894950    -0.9990730     0.2510970
  C       -0.1640680     2.3213990    -0.3160610
  C       -1.7763790    -0.6500710     0.6316310
  C       -2.8974700    -0.7179400    -0.4005630
  H        2.1128780     0.3409680    -1.3111240
  H        1.4703470    -1.3074830    -1.4361490
  H       -0.0513130     1.2723030     1.5772340
  H        1.5050160     1.5584520     0.8222760
  H        3.0557420    -0.2250230     0.9772740
  H        2.4163470    -1.8679380     0.7998630
  H        3.7028160    -1.2913930    -0.2752870
  H        0.3476260     2.3392860    -1.2827640
  H       -0.0999350     3.3229720     0.1194750
  H       -1.2175750     2.0944730    -0.4990280
  H       -1.9345660    -1.4259490     1.3902370
  H       -1.8022330     0.3194130     1.1465770
  H       -3.8733550    -0.5777970     0.0742800
  H       -2.7667810     0.0601400    -1.1579070
  H       -2.8841480    -1.6872580    -0.9035300
units angstrom
no_reorient  #important for SAPT in psi4, default
symmetry c1  #important for SAPT in psi4, default
}

set PROPERTIES_ORIGIN ["COM"]
properties('MP2/aug-cc-pvtz', properties = ['dipole'])
--------------------------------------------------------------------------

    Molecular point group: c1
  Charge       = 0
  Multiplicity = 1
  Basis Set: AUG-CC-PVTZ
    Blend: AUG-CC-PVTZ
  Basis Set: (AUG-CC-PVTZ AUX)
    Blend: AUG-CC-PVTZ-JKFIT

    Orbital Energies [Eh]
    ---------------------

    Doubly Occupied:

       1A    -15.541631     2A    -11.277210     3A    -11.238755
       4A    -11.234766     5A    -11.228151     6A    -11.222734
       7A    -11.218477     8A    -11.205271     9A     -1.201221
      10A     -1.071474    11A     -1.030114    12A     -0.986907
      13A     -0.895893    14A     -0.861270    15A     -0.817438
      16A     -0.706571    17A     -0.665113    18A     -0.642485
      19A     -0.598367    20A     -0.593231    21A     -0.588543
      22A     -0.557404    23A     -0.541268    24A     -0.523451
      25A     -0.519857    26A     -0.512473    27A     -0.507849
      28A     -0.487075    29A     -0.484764    30A     -0.470221
      31A     -0.383638    32A     -0.364033

  @DF-RHF Final Energy:  -328.35073632711629

   => Energetics <=

    Nuclear Repulsion Energy =            388.5666729137903985
    One-Electron Energy =               -1213.4795091270482317
    Two-Electron Energy =                 496.5620998861415387
    Total Energy =                       -328.3507363271162944
  Basis Set: (AUG-CC-PVTZ AUX)
    Blend: AUG-CC-PVTZ-RI
    Molecular point group: c1

    Geometry (in Angstrom), charge = 0, multiplicity = 1:

       Center              X                  Y                   Z               Mass
    ------------   -----------------  -----------------  -----------------  -----------------
         N           -0.515079553885    -0.929663568582    -0.026585584070    14.003074004430
         C            0.490230546115    -0.045414468582    -0.020580284070    12.000000000000
         C            1.719662446115    -0.486379568582    -0.733889584070    12.000000000000
         C            0.462951446115     1.299994431418     0.614119415930    12.000000000000
         C            2.785358446115    -0.976893568582     0.251437415930    12.000000000000
         C           -0.168204553885     2.343578431418    -0.315720584070    12.000000000000
         C           -1.780515553885    -0.627891568582     0.631971415930    12.000000000000
         C           -2.901606553885    -0.695760568582    -0.400222584070    12.000000000000
         H            2.108741446115     0.363147431418    -1.310783584070     1.007825032230
         H            1.466210446115    -1.285303568582    -1.435808584070     1.007825032230
         H           -0.055449553885     1.294482431418     1.577574415930     1.007825032230
         H            1.500879446115     1.580631431418     0.822616415930     1.007825032230
         H            3.051605446115    -0.202843568582     0.977614415930     1.007825032230
         H            2.412210446115    -1.845758568582     0.800203415930     1.007825032230
         H            3.698679446115    -1.269213568582    -0.274946584070     1.007825032230
         H            0.343489446115     2.361465431418    -1.282423584070     1.007825032230
         H           -0.104071553885     3.345151431418     0.119815415930     1.007825032230
         H           -1.221711553885     2.116652431418    -0.498687584070     1.007825032230
         H           -1.938702553885    -1.403769568582     1.390577415930     1.007825032230
         H           -1.806369553885     0.341592431418     1.146917415930     1.007825032230
         H           -3.877491553885    -0.555617568582     0.074620415930     1.007825032230
         H           -2.770917553885     0.082319431418    -1.157566584070     1.007825032230
         H           -2.888284553885    -1.665078568582    -0.903189584070     1.007825032230

  Basis Set: AUG-CC-PVTZ
    Blend: AUG-CC-PVTZ
  Basis Set: (AUG-CC-PVTZ AUX)
    Blend: AUG-CC-PVTZ-JKFIT
	 Reference Energy          =    -328.3507363271162944 [Eh]
	 Singles Energy            =      -0.0000000000000000 [Eh]
	 Same-Spin Energy          =      -0.3514244052656160 [Eh]
	 Opposite-Spin Energy      =      -1.2509098893620820 [Eh]
	 Correlation Energy        =      -1.6023342946276982 [Eh]
	 Total Energy              =    -329.9530706217440184 [Eh]

	 ================> DF-SCS-MP2 Energies <==================
	-----------------------------------------------------------
	 SCS Same-Spin Scale       =       0.3333333333333333 [-]
	 SCS Opposite-Spin Scale   =       1.2000000000000000 [-]
	 SCS Same-Spin Energy      =      -0.1171414684218720 [Eh]
	 SCS Opposite-Spin Energy  =      -1.5010918672344984 [Eh]
	 SCS Correlation Energy    =      -1.6182333356563703 [Eh]
	 SCS Total Energy          =    -329.9689696627726789 [Eh]
	-----------------------------------------------------------

  Dipole Moment: [D]
     X:     0.4843      Y:     1.7737      Z:     0.6056     Total:     1.9357

*** Psi4 exiting successfully. Buy a developer a beer!
