                               Psi4 1.4a3.dev225

  ==> Input File <==

--------------------------------------------------------------------------
#psi4
#
memory 32 gb

molecule  {
0 1
  N       -0.5109430    -0.9518430    -0.0269260
  C        0.4568240    -0.1006160    -0.0211450
  C        1.7405800    -0.5139622    -0.7436748
  C        0.4670880     1.2778150     0.6137790
  C        2.7894950    -0.9990730     0.2510970
  C       -0.1640680     2.3213990    -0.3160610
  C       -1.7763790    -0.6500710     0.6316310
  C       -2.8974700    -0.7179400    -0.4005630
  H        2.1128780     0.3409680    -1.3111240
  H        1.4703470    -1.3074830    -1.4361490
  H       -0.0513130     1.2723030     1.5772340
  H        1.5050160     1.5584520     0.8222760
  H        3.0557420    -0.2250230     0.9772740
  H        2.4163470    -1.8679380     0.7998630
  H        3.7028160    -1.2913930    -0.2752870
  H        0.3476260     2.3392860    -1.2827640
  H       -0.0999350     3.3229720     0.1194750
  H       -1.2175750     2.0944730    -0.4990280
  H       -1.9345660    -1.4259490     1.3902370
  H       -1.8022330     0.3194130     1.1465770
  H       -3.8733550    -0.5777970     0.0742800
  H       -2.7667810     0.0601400    -1.1579070
  H       -2.8841480    -1.6872580    -0.9035300
units angstrom
no_reorient  #important for SAPT in psi4, default
symmetry c1  #important for SAPT in psi4, default
}

set PROPERTIES_ORIGIN ["COM"]
properties('MP2/aug-cc-pvtz', properties = ['dipole'])
--------------------------------------------------------------------------

    Molecular point group: c1
  Charge       = 0
  Multiplicity = 1
  Basis Set: AUG-CC-PVTZ
    Blend: AUG-CC-PVTZ
  Basis Set: (AUG-CC-PVTZ AUX)
    Blend: AUG-CC-PVTZ-JKFIT

    Orbital Energies [Eh]
    ---------------------

    Doubly Occupied:

       1A    -15.538721     2A    -11.273001     3A    -11.240896
       4A    -11.234053     5A    -11.226652     6A    -11.221145
       7A    -11.216722     8A    -11.206664     9A     -1.214907
      10A     -1.065819    11A     -1.027142    12A     -0.993280
      13A     -0.890456    14A     -0.857802    15A     -0.821522
      16A     -0.704246    17A     -0.662126    18A     -0.642335
      19A     -0.599903    20A     -0.591061    21A     -0.590475
      22A     -0.557639    23A     -0.539844    24A     -0.522608
      25A     -0.519519    26A     -0.514205    27A     -0.508607
      28A     -0.488080    29A     -0.484435    30A     -0.468118
      31A     -0.379691    32A     -0.377848

  @DF-RHF Final Energy:  -328.35886831879083

   => Energetics <=

    Nuclear Repulsion Energy =            388.5221596003112836
    One-Electron Energy =               -1213.4030062009644553
    Two-Electron Energy =                 496.5219782818623457
    Total Energy =                       -328.3588683187908259
  Basis Set: (AUG-CC-PVTZ AUX)
    Blend: AUG-CC-PVTZ-RI
    Molecular point group: c1

    Geometry (in Angstrom), charge = 0, multiplicity = 1:

       Center              X                  Y                   Z               Mass
    ------------   -----------------  -----------------  -----------------  -----------------
         N           -0.512877076781    -0.925587350692    -0.025559870324    14.003074004430
         C            0.454889923219    -0.074360350692    -0.019778870324    12.000000000000
         C            1.738645923219    -0.487706550692    -0.742308670324    12.000000000000
         C            0.465153923219     1.304070649308     0.615145129676    12.000000000000
         C            2.787560923219    -0.972817350692     0.252463129676    12.000000000000
         C           -0.166002076781     2.347654649308    -0.314694870324    12.000000000000
         C           -1.778313076781    -0.623815350692     0.632997129676    12.000000000000
         C           -2.899404076781    -0.691684350692    -0.399196870324    12.000000000000
         H            2.110943923219     0.367223649308    -1.309757870324     1.007825032230
         H            1.468412923219    -1.281227350692    -1.434782870324     1.007825032230
         H           -0.053247076781     1.298558649308     1.578600129676     1.007825032230
         H            1.503081923219     1.584707649308     0.823642129676     1.007825032230
         H            3.053807923219    -0.198767350692     0.978640129676     1.007825032230
         H            2.414412923219    -1.841682350692     0.801229129676     1.007825032230
         H            3.700881923219    -1.265137350692    -0.273920870324     1.007825032230
         H            0.345691923219     2.365541649308    -1.281397870324     1.007825032230
         H           -0.101869076781     3.349227649308     0.120841129676     1.007825032230
         H           -1.219509076781     2.120728649308    -0.497661870324     1.007825032230
         H           -1.936500076781    -1.399693350692     1.391603129676     1.007825032230
         H           -1.804167076781     0.345668649308     1.147943129676     1.007825032230
         H           -3.875289076781    -0.551541350692     0.075646129676     1.007825032230
         H           -2.768715076781     0.086395649308    -1.156540870324     1.007825032230
         H           -2.886082076781    -1.661002350692    -0.902163870324     1.007825032230

  Basis Set: AUG-CC-PVTZ
    Blend: AUG-CC-PVTZ
  Basis Set: (AUG-CC-PVTZ AUX)
    Blend: AUG-CC-PVTZ-JKFIT
	 Reference Energy          =    -328.3588683187908259 [Eh]
	 Singles Energy            =      -0.0000000000000000 [Eh]
	 Same-Spin Energy          =      -0.3497600521376421 [Eh]
	 Opposite-Spin Energy      =      -1.2479229441125854 [Eh]
	 Correlation Energy        =      -1.5976829962502275 [Eh]
	 Total Energy              =    -329.9565513150410538 [Eh]

	 ================> DF-SCS-MP2 Energies <==================
	-----------------------------------------------------------
	 SCS Same-Spin Scale       =       0.3333333333333333 [-]
	 SCS Opposite-Spin Scale   =       1.2000000000000000 [-]
	 SCS Same-Spin Energy      =      -0.1165866840458807 [Eh]
	 SCS Opposite-Spin Energy  =      -1.4975075329351024 [Eh]
	 SCS Correlation Energy    =      -1.6140942169809831 [Eh]
	 SCS Total Energy          =    -329.9729625357717850 [Eh]
	-----------------------------------------------------------

  Dipole Moment: [D]
     X:     0.3778      Y:     1.7069      Z:     0.6180     Total:     1.8542

*** Psi4 exiting successfully. Buy a developer a beer!
