                               Psi4 1.3.2 release

  ==> Input File <==

--------------------------------------------------------------------------
#psi4
#
memory 32 gb

molecule  {
0 1
  O        1.8230110    -0.1562000     0.0000460
  N        0.5872960    -0.8583550    -0.0000260
  C       -0.3975370    -0.0230490    -0.0000170
  C       -1.7709560    -0.6228440     0.0000070
  C       -0.2172711     1.4669500    -0.1500150
  H       -1.7049950    -1.7124010    -0.0004820
  H       -2.3322460    -0.2988480     0.8830240
  H       -2.3326640    -0.2980280    -0.8824330
  H       -1.1822450     1.9774040    -0.0005330
  H        0.3560010     1.7784360     0.8780530
  H        0.3569220     1.7783250    -0.8775160
  H        2.4586410    -0.8931450    -0.0001530
units angstrom
no_reorient  #important for SAPT in psi4, default
symmetry c1  #important for SAPT in psi4, default
}

set PROPERTIES_ORIGIN ["COM"]
properties('MP2/aug-cc-pvtz', properties = ['dipole'])
--------------------------------------------------------------------------

    Molecular point group: c1
  Charge       = 0
  Multiplicity = 1
  Basis Set: AUG-CC-PVTZ
    Blend: AUG-CC-PVTZ
  Basis Set: (AUG-CC-PVTZ AUX)
    Blend: AUG-CC-PVTZ-JKFIT

    Orbital Energies [Eh]
    ---------------------

    Doubly Occupied:

       1A    -20.587336     2A    -15.609242     3A    -11.284156
       4A    -11.233565     5A    -11.232549     6A     -1.403879
       7A     -1.161509     8A     -0.993482     9A     -0.960813
      10A     -0.732366    11A     -0.687569    12A     -0.658253
      13A     -0.616195    14A     -0.574353    15A     -0.560079
      16A     -0.553176    17A     -0.545089    18A     -0.499250
      19A     -0.432703    20A     -0.373106

  @DF-RHF Final Energy:  -246.99820213163508

   => Energetics <=

    Nuclear Repulsion Energy =            177.9233838121869269
    One-Electron Energy =                -688.4458293027522586
    Two-Electron Energy =                 263.5242433589302777
    Total Energy =                       -246.9982021316350824
  Basis Set: (AUG-CC-PVTZ AUX)
    Blend: AUG-CC-PVTZ-RI
    Molecular point group: c1

    Geometry (in Angstrom), charge = 0, multiplicity = 1:

       Center              X                  Y                   Z               Mass
    ------------   -----------------  -----------------  -----------------  -----------------
         O            1.763618021682    -0.124505904328     0.024685295381    15.994914619570
         N            0.527903021682    -0.826660904328     0.024613295381    14.003074004430
         C           -0.456929978318     0.008645095672     0.024622295381    12.000000000000
         C           -1.830348978318    -0.591149904328     0.024646295381    12.000000000000
         C           -0.276664078318     1.498644095672    -0.125375704619    12.000000000000
         H           -1.764387978318    -1.680706904328     0.024157295381     1.007825032230
         H           -2.391638978318    -0.267153904328     0.907663295381     1.007825032230
         H           -2.392056978318    -0.266333904328    -0.857793704619     1.007825032230
         H           -1.241637978318     2.009098095672     0.024106295381     1.007825032230
         H            0.296608021682     1.810130095672     0.902692295381     1.007825032230
         H            0.297529021682     1.810019095672    -0.852876704619     1.007825032230
         H            2.399248021682    -0.861450904328     0.024486295381     1.007825032230

  Basis Set: AUG-CC-PVTZ
    Blend: AUG-CC-PVTZ
  Basis Set: (AUG-CC-PVTZ AUX)
    Blend: AUG-CC-PVTZ-JKFIT
	 Reference Energy          =    -246.9982021316350824 [Eh]
	 Singles Energy            =      -0.0000000000000000 [Eh]
	 Same-Spin Energy          =      -0.2476589747982757 [Eh]
	 Opposite-Spin Energy      =      -0.8212729429202743 [Eh]
	 Correlation Energy        =      -1.0689319177185499 [Eh]
	 Total Energy              =    -248.0671340493536263 [Eh]

	 ================> DF-SCS-MP2 Energies <==================
	-----------------------------------------------------------
	 SCS Same-Spin Scale       =       0.3333333333333333 [-]
	 SCS Opposite-Spin Scale   =       1.2000000000000000 [-]
	 SCS Same-Spin Energy      =      -0.0825529915994252 [Eh]
	 SCS Opposite-Spin Energy  =      -0.9855275315043291 [Eh]
	 SCS Correlation Energy    =      -1.0680805231037545 [Eh]
	 SCS Total Energy          =    -248.0662826547388420 [Eh]
	-----------------------------------------------------------

  Dipole Moment: [D]
     X:    -0.7525      Y:     0.5488      Z:    -0.0653     Total:     0.9337

*** Psi4 exiting successfully. Buy a developer a beer!
