                               Psi4 1.3.2 release

  ==> Input File <==

--------------------------------------------------------------------------
#psi4
#
memory 32 gb

molecule  {
0 1
  O        1.8230110    -0.1562000     0.0000460
  N        0.5872960    -0.8583550    -0.0000260
  C       -0.3975370    -0.0230490    -0.0000170
  C       -1.7709560    -0.6228440     0.0000070
  C       -0.2172704     1.4669500    -0.1000150
  H       -1.7049950    -1.7124010    -0.0004820
  H       -2.3322460    -0.2988480     0.8830240
  H       -2.3326640    -0.2980280    -0.8824330
  H       -1.1822450     1.9774040    -0.0005330
  H        0.3560010     1.7784360     0.8780530
  H        0.3569220     1.7783250    -0.8775160
  H        2.4586410    -0.8931450    -0.0001530
units angstrom
no_reorient  #important for SAPT in psi4, default
symmetry c1  #important for SAPT in psi4, default
}

set PROPERTIES_ORIGIN ["COM"]
properties('MP2/aug-cc-pvtz', properties = ['dipole'])
--------------------------------------------------------------------------

    Molecular point group: c1
  Charge       = 0
  Multiplicity = 1
  Basis Set: AUG-CC-PVTZ
    Blend: AUG-CC-PVTZ
  Basis Set: (AUG-CC-PVTZ AUX)
    Blend: AUG-CC-PVTZ-JKFIT

    Orbital Energies [Eh]
    ---------------------

    Doubly Occupied:

       1A    -20.587211     2A    -15.609202     3A    -11.283162
       4A    -11.232289     5A    -11.231773     6A     -1.403808
       7A     -1.161463     8A     -0.993123     9A     -0.959835
      10A     -0.730718    11A     -0.687418    12A     -0.652111
      13A     -0.617005    14A     -0.572622    15A     -0.560500
      16A     -0.550763    17A     -0.545261    18A     -0.509083
      19A     -0.432570    20A     -0.374020

  @DF-RHF Final Energy:  -247.01102284427395

   => Energetics <=

    Nuclear Repulsion Energy =            177.9723387820199605
    One-Electron Energy =                -688.5788475139654565
    Two-Electron Energy =                 263.5954858876715434
    Total Energy =                       -247.0110228442739526
  Basis Set: (AUG-CC-PVTZ AUX)
    Blend: AUG-CC-PVTZ-RI
    Molecular point group: c1

    Geometry (in Angstrom), charge = 0, multiplicity = 1:

       Center              X                  Y                   Z               Mass
    ------------   -----------------  -----------------  -----------------  -----------------
         O            1.763617906696    -0.124505904328     0.016472053767    15.994914619570
         N            0.527902906696    -0.826660904328     0.016400053767    14.003074004430
         C           -0.456930093304     0.008645095672     0.016409053767    12.000000000000
         C           -1.830349093304    -0.591149904328     0.016433053767    12.000000000000
         C           -0.276663493304     1.498644095672    -0.083588946233    12.000000000000
         H           -1.764388093304    -1.680706904328     0.015944053767     1.007825032230
         H           -2.391639093304    -0.267153904328     0.899450053767     1.007825032230
         H           -2.392057093304    -0.266333904328    -0.866006946233     1.007825032230
         H           -1.241638093304     2.009098095672     0.015893053767     1.007825032230
         H            0.296607906696     1.810130095672     0.894479053767     1.007825032230
         H            0.297528906696     1.810019095672    -0.861089946233     1.007825032230
         H            2.399247906696    -0.861450904328     0.016273053767     1.007825032230

  Basis Set: AUG-CC-PVTZ
    Blend: AUG-CC-PVTZ
  Basis Set: (AUG-CC-PVTZ AUX)
    Blend: AUG-CC-PVTZ-JKFIT
	 Reference Energy          =    -247.0110228442739526 [Eh]
	 Singles Energy            =      -0.0000000000000000 [Eh]
	 Same-Spin Energy          =      -0.2474725807841991 [Eh]
	 Opposite-Spin Energy      =      -0.8206792158395916 [Eh]
	 Correlation Energy        =      -1.0681517966237908 [Eh]
	 Total Energy              =    -248.0791746408977474 [Eh]

	 ================> DF-SCS-MP2 Energies <==================
	-----------------------------------------------------------
	 SCS Same-Spin Scale       =       0.3333333333333333 [-]
	 SCS Opposite-Spin Scale   =       1.2000000000000000 [-]
	 SCS Same-Spin Energy      =      -0.0824908602613997 [Eh]
	 SCS Opposite-Spin Energy  =      -0.9848150590075099 [Eh]
	 SCS Correlation Energy    =      -1.0673059192689096 [Eh]
	 SCS Total Energy          =    -248.0783287635428564 [Eh]
	-----------------------------------------------------------

  Dipole Moment: [D]
     X:    -0.7470      Y:     0.5604      Z:    -0.0449     Total:     0.9349

*** Psi4 exiting successfully. Buy a developer a beer!
