                               Psi4 1.3.2 release

  ==> Input File <==

--------------------------------------------------------------------------
#psi4
#
memory 32 gb

molecule  {
0 1
  O        1.8230110    -0.1562000     0.0000460
  N        0.5872960    -0.8583550    -0.0000260
  C       -0.3975370    -0.0230490    -0.0000170
  C       -1.7709560    -0.6228440     0.0000070
  C       -0.2172732     1.4669500    -0.3000150
  H       -1.7049950    -1.7124010    -0.0004820
  H       -2.3322460    -0.2988480     0.8830240
  H       -2.3326640    -0.2980280    -0.8824330
  H       -1.1822450     1.9774040    -0.0005330
  H        0.3560010     1.7784360     0.8780530
  H        0.3569220     1.7783250    -0.8775160
  H        2.4586410    -0.8931450    -0.0001530
units angstrom
no_reorient  #important for SAPT in psi4, default
symmetry c1  #important for SAPT in psi4, default
}

set PROPERTIES_ORIGIN ["COM"]
properties('MP2/aug-cc-pvtz', properties = ['dipole'])
--------------------------------------------------------------------------

    Molecular point group: c1
  Charge       = 0
  Multiplicity = 1
  Basis Set: AUG-CC-PVTZ
    Blend: AUG-CC-PVTZ
  Basis Set: (AUG-CC-PVTZ AUX)
    Blend: AUG-CC-PVTZ-JKFIT

    Orbital Energies [Eh]
    ---------------------

    Doubly Occupied:

       1A    -20.588009     2A    -15.609445     3A    -11.289324
       4A    -11.243124     5A    -11.233888     6A     -1.404258
       7A     -1.161735     8A     -0.996000     9A     -0.966180
      10A     -0.743286    11A     -0.691428    12A     -0.674646
      13A     -0.613516    14A     -0.578371    15A     -0.559097
      16A     -0.556723    17A     -0.543169    18A     -0.468215
      19A     -0.433361    20A     -0.368120

  @DF-RHF Final Energy:  -246.92733001656597

   => Energetics <=

    Nuclear Repulsion Energy =            177.6630846477042951
    One-Electron Energy =                -687.7370372416339706
    Two-Electron Energy =                 263.1466225773637007
    Total Energy =                       -246.9273300165659748
  Basis Set: (AUG-CC-PVTZ AUX)
    Blend: AUG-CC-PVTZ-RI
    Molecular point group: c1

    Geometry (in Angstrom), charge = 0, multiplicity = 1:

       Center              X                  Y                   Z               Mass
    ------------   -----------------  -----------------  -----------------  -----------------
         O            1.763618366638    -0.124505904328     0.049325020220    15.994914619570
         N            0.527903366638    -0.826660904328     0.049253020220    14.003074004430
         C           -0.456929633362     0.008645095672     0.049262020220    12.000000000000
         C           -1.830348633362    -0.591149904328     0.049286020220    12.000000000000
         C           -0.276665833362     1.498644095672    -0.250735979780    12.000000000000
         H           -1.764387633362    -1.680706904328     0.048797020220     1.007825032230
         H           -2.391638633362    -0.267153904328     0.932303020220     1.007825032230
         H           -2.392056633362    -0.266333904328    -0.833153979780     1.007825032230
         H           -1.241637633362     2.009098095672     0.048746020220     1.007825032230
         H            0.296608366638     1.810130095672     0.927332020220     1.007825032230
         H            0.297529366638     1.810019095672    -0.828236979780     1.007825032230
         H            2.399248366638    -0.861450904328     0.049126020220     1.007825032230

  Basis Set: AUG-CC-PVTZ
    Blend: AUG-CC-PVTZ
  Basis Set: (AUG-CC-PVTZ AUX)
    Blend: AUG-CC-PVTZ-JKFIT
	 Reference Energy          =    -246.9273300165659748 [Eh]
	 Singles Energy            =      -0.0000000000000000 [Eh]
	 Same-Spin Energy          =      -0.2486852775942569 [Eh]
	 Opposite-Spin Energy      =      -0.8246158993166393 [Eh]
	 Correlation Energy        =      -1.0733011769108962 [Eh]
	 Total Energy              =    -248.0006311934768632 [Eh]

	 ================> DF-SCS-MP2 Energies <==================
	-----------------------------------------------------------
	 SCS Same-Spin Scale       =       0.3333333333333333 [-]
	 SCS Opposite-Spin Scale   =       1.2000000000000000 [-]
	 SCS Same-Spin Energy      =      -0.0828950925314190 [Eh]
	 SCS Opposite-Spin Energy  =      -0.9895390791799671 [Eh]
	 SCS Correlation Energy    =      -1.0724341717113861 [Eh]
	 SCS Total Energy          =    -247.9997641882773678 [Eh]
	-----------------------------------------------------------

  Dipole Moment: [D]
     X:    -0.7732      Y:     0.4907      Z:    -0.1074     Total:     0.9220

*** Psi4 exiting successfully. Buy a developer a beer!
