                               Psi4 1.3.2 release

  ==> Input File <==

--------------------------------------------------------------------------
#psi4
#
memory 32 gb

molecule  {
0 1
  O        1.8230110    -0.1562000     0.0000460
  N        0.5872960    -0.8583550    -0.0000260
  C       -0.3975370    -0.0230490    -0.0000170
  C       -1.7709560    -0.6228440     0.0000070
  C       -0.2172725     1.4669500    -0.2500150
  H       -1.7049950    -1.7124010    -0.0004820
  H       -2.3322460    -0.2988480     0.8830240
  H       -2.3326640    -0.2980280    -0.8824330
  H       -1.1822450     1.9774040    -0.0005330
  H        0.3560010     1.7784360     0.8780530
  H        0.3569220     1.7783250    -0.8775160
  H        2.4586410    -0.8931450    -0.0001530
units angstrom
no_reorient  #important for SAPT in psi4, default
symmetry c1  #important for SAPT in psi4, default
}

set PROPERTIES_ORIGIN ["COM"]
properties('MP2/aug-cc-pvtz', properties = ['dipole'])
--------------------------------------------------------------------------

    Molecular point group: c1
  Charge       = 0
  Multiplicity = 1
  Basis Set: AUG-CC-PVTZ
    Blend: AUG-CC-PVTZ
  Basis Set: (AUG-CC-PVTZ AUX)
    Blend: AUG-CC-PVTZ-JKFIT

    Orbital Energies [Eh]
    ---------------------

    Doubly Occupied:

       1A    -20.587736     2A    -15.609366     3A    -11.287261
       4A    -11.239258     5A    -11.233356     6A     -1.404104
       7A     -1.161648     8A     -0.994846     9A     -0.964001
      10A     -0.738550    11A     -0.689234    12A     -0.670809
      13A     -0.614408    14A     -0.577397    15A     -0.559262
      16A     -0.556046    17A     -0.544103    18A     -0.478270
      19A     -0.433104    20A     -0.370156

  @DF-RHF Final Energy:  -246.95647290559396

   => Energetics <=

    Nuclear Repulsion Energy =            177.7684304502735699
    One-Electron Energy =                -688.0239723459254719
    Two-Electron Energy =                 263.2990689900579468
    Total Energy =                       -246.9564729055939551
  Basis Set: (AUG-CC-PVTZ AUX)
    Blend: AUG-CC-PVTZ-RI
    Molecular point group: c1

    Geometry (in Angstrom), charge = 0, multiplicity = 1:

       Center              X                  Y                   Z               Mass
    ------------   -----------------  -----------------  -----------------  -----------------
         O            1.763618251653    -0.124505904328     0.041111778607    15.994914619570
         N            0.527903251653    -0.826660904328     0.041039778607    14.003074004430
         C           -0.456929748347     0.008645095672     0.041048778607    12.000000000000
         C           -1.830348748347    -0.591149904328     0.041072778607    12.000000000000
         C           -0.276665248347     1.498644095672    -0.208949221393    12.000000000000
         H           -1.764387748347    -1.680706904328     0.040583778607     1.007825032230
         H           -2.391638748347    -0.267153904328     0.924089778607     1.007825032230
         H           -2.392056748347    -0.266333904328    -0.841367221393     1.007825032230
         H           -1.241637748347     2.009098095672     0.040532778607     1.007825032230
         H            0.296608251653     1.810130095672     0.919118778607     1.007825032230
         H            0.297529251653     1.810019095672    -0.836450221393     1.007825032230
         H            2.399248251653    -0.861450904328     0.040912778607     1.007825032230

  Basis Set: AUG-CC-PVTZ
    Blend: AUG-CC-PVTZ
  Basis Set: (AUG-CC-PVTZ AUX)
    Blend: AUG-CC-PVTZ-JKFIT
	 Reference Energy          =    -246.9564729055939551 [Eh]
	 Singles Energy            =      -0.0000000000000000 [Eh]
	 Same-Spin Energy          =      -0.2482636826846173 [Eh]
	 Opposite-Spin Energy      =      -0.8232324711947101 [Eh]
	 Correlation Energy        =      -1.0714961538793275 [Eh]
	 Total Energy              =    -248.0279690594732926 [Eh]

	 ================> DF-SCS-MP2 Energies <==================
	-----------------------------------------------------------
	 SCS Same-Spin Scale       =       0.3333333333333333 [-]
	 SCS Opposite-Spin Scale   =       1.2000000000000000 [-]
	 SCS Same-Spin Energy      =      -0.0827545608948724 [Eh]
	 SCS Opposite-Spin Energy  =      -0.9878789654336521 [Eh]
	 SCS Correlation Energy    =      -1.0706335263285245 [Eh]
	 SCS Total Energy          =    -248.0271064319224763 [Eh]
	-----------------------------------------------------------

  Dipole Moment: [D]
     X:    -0.7666      Y:     0.5135      Z:    -0.0977     Total:     0.9278

*** Psi4 exiting successfully. Buy a developer a beer!
