                               Psi4 1.3.2 release

  ==> Input File <==

--------------------------------------------------------------------------
#psi4
#
memory 32 gb

molecule  {
0 1
  O        1.8230110    -0.1562000     0.0000460
  N        0.5872960    -0.8583550    -0.0000260
  C       -0.3975370    -0.0230490    -0.0000170
  C       -1.7709560    -0.6228440     0.0000070
  C       -0.2172697     1.4669500    -0.0500150
  H       -1.7049950    -1.7124010    -0.0004820
  H       -2.3322460    -0.2988480     0.8830240
  H       -2.3326640    -0.2980280    -0.8824330
  H       -1.1822450     1.9774040    -0.0005330
  H        0.3560010     1.7784360     0.8780530
  H        0.3569220     1.7783250    -0.8775160
  H        2.4586410    -0.8931450    -0.0001530
units angstrom
no_reorient  #important for SAPT in psi4, default
symmetry c1  #important for SAPT in psi4, default
}

set PROPERTIES_ORIGIN ["COM"]
properties('MP2/aug-cc-pvtz', properties = ['dipole'])
--------------------------------------------------------------------------

    Molecular point group: c1
  Charge       = 0
  Multiplicity = 1
  Basis Set: AUG-CC-PVTZ
    Blend: AUG-CC-PVTZ
  Basis Set: (AUG-CC-PVTZ AUX)
    Blend: AUG-CC-PVTZ-JKFIT

    Orbital Energies [Eh]
    ---------------------

    Doubly Occupied:

       1A    -20.587136     2A    -15.609178     3A    -11.282560
       4A    -11.232132     5A    -11.230695     6A     -1.403766
       7A     -1.161434     8A     -0.992922     9A     -0.959256
      10A     -0.729804    11A     -0.687390    12A     -0.647797
      13A     -0.617625    14A     -0.571278    15A     -0.560812
      16A     -0.548093    17A     -0.545162    18A     -0.516941
      19A     -0.432489    20A     -0.374565

  @DF-RHF Final Energy:  -247.01865519487669

   => Energetics <=

    Nuclear Repulsion Energy =            178.0018549030969268
    One-Electron Energy =                -688.6589505063814158
    Two-Electron Energy =                 263.6384404084078028
    Total Energy =                       -247.0186551948766578
  Basis Set: (AUG-CC-PVTZ AUX)
    Blend: AUG-CC-PVTZ-RI
    Molecular point group: c1

    Geometry (in Angstrom), charge = 0, multiplicity = 1:

       Center              X                  Y                   Z               Mass
    ------------   -----------------  -----------------  -----------------  -----------------
         O            1.763617791711    -0.124505904328     0.008258812154    15.994914619570
         N            0.527902791711    -0.826660904328     0.008186812154    14.003074004430
         C           -0.456930208289     0.008645095672     0.008195812154    12.000000000000
         C           -1.830349208289    -0.591149904328     0.008219812154    12.000000000000
         C           -0.276662908289     1.498644095672    -0.041802187846    12.000000000000
         H           -1.764388208289    -1.680706904328     0.007730812154     1.007825032230
         H           -2.391639208289    -0.267153904328     0.891236812154     1.007825032230
         H           -2.392057208289    -0.266333904328    -0.874220187846     1.007825032230
         H           -1.241638208289     2.009098095672     0.007679812154     1.007825032230
         H            0.296607791711     1.810130095672     0.886265812154     1.007825032230
         H            0.297528791711     1.810019095672    -0.869303187846     1.007825032230
         H            2.399247791711    -0.861450904328     0.008059812154     1.007825032230

  Basis Set: AUG-CC-PVTZ
    Blend: AUG-CC-PVTZ
  Basis Set: (AUG-CC-PVTZ AUX)
    Blend: AUG-CC-PVTZ-JKFIT
	 Reference Energy          =    -247.0186551948766862 [Eh]
	 Singles Energy            =      -0.0000000000000000 [Eh]
	 Same-Spin Energy          =      -0.2473615077017363 [Eh]
	 Opposite-Spin Energy      =      -0.8203292764453569 [Eh]
	 Correlation Energy        =      -1.0676907841470933 [Eh]
	 Total Energy              =    -248.0863459790237755 [Eh]

	 ================> DF-SCS-MP2 Energies <==================
	-----------------------------------------------------------
	 SCS Same-Spin Scale       =       0.3333333333333333 [-]
	 SCS Opposite-Spin Scale   =       1.2000000000000000 [-]
	 SCS Same-Spin Energy      =      -0.0824538359005788 [Eh]
	 SCS Opposite-Spin Energy  =      -0.9843951317344283 [Eh]
	 SCS Correlation Energy    =      -1.0668489676350070 [Eh]
	 SCS Total Energy          =    -248.0855041625116826 [Eh]
	-----------------------------------------------------------

  Dipole Moment: [D]
     X:    -0.7435      Y:     0.5675      Z:    -0.0229     Total:     0.9356

*** Psi4 exiting successfully. Buy a developer a beer!
