                               Psi4 1.3.2 release

  ==> Input File <==

--------------------------------------------------------------------------
#psi4
#
memory 32 gb

molecule  {
0 1
  O        1.8230110    -0.1562000     0.0000460
  N        0.5872960    -0.8583550    -0.0000260
  C       -0.3975370    -0.0230490    -0.0000170
  C       -1.7709560    -0.6228440     0.0000070
  C       -0.2172718     1.4669500    -0.2000150
  H       -1.7049950    -1.7124010    -0.0004820
  H       -2.3322460    -0.2988480     0.8830240
  H       -2.3326640    -0.2980280    -0.8824330
  H       -1.1822450     1.9774040    -0.0005330
  H        0.3560010     1.7784360     0.8780530
  H        0.3569220     1.7783250    -0.8775160
  H        2.4586410    -0.8931450    -0.0001530
units angstrom
no_reorient  #important for SAPT in psi4, default
symmetry c1  #important for SAPT in psi4, default
}

set PROPERTIES_ORIGIN ["COM"]
properties('MP2/aug-cc-pvtz', properties = ['dipole'])
--------------------------------------------------------------------------

    Molecular point group: c1
  Charge       = 0
  Multiplicity = 1
  Basis Set: AUG-CC-PVTZ
    Blend: AUG-CC-PVTZ
  Basis Set: (AUG-CC-PVTZ AUX)
    Blend: AUG-CC-PVTZ-JKFIT

    Orbital Energies [Eh]
    ---------------------

    Doubly Occupied:

       1A    -20.587511     2A    -15.609297     3A    -11.285529
       4A    -11.236065     5A    -11.232907     6A     -1.403977
       7A     -1.161572     8A     -0.994036     9A     -0.962202
      10A     -0.734920    11A     -0.688050    12A     -0.664962
      13A     -0.615312    14A     -0.576030    15A     -0.559635
      16A     -0.554900    17A     -0.544717    18A     -0.488751
      19A     -0.432883    20A     -0.371820

  @DF-RHF Final Energy:  -246.98006417644234

   => Energetics <=

    Nuclear Repulsion Energy =            177.8552984599665479
    One-Electron Energy =                -688.2605762618283052
    Two-Electron Energy =                 263.4252136254194170
    Total Energy =                       -246.9800641764423403
  Basis Set: (AUG-CC-PVTZ AUX)
    Blend: AUG-CC-PVTZ-RI
    Molecular point group: c1

    Geometry (in Angstrom), charge = 0, multiplicity = 1:

       Center              X                  Y                   Z               Mass
    ------------   -----------------  -----------------  -----------------  -----------------
         O            1.763618136667    -0.124505904328     0.032898536994    15.994914619570
         N            0.527903136667    -0.826660904328     0.032826536994    14.003074004430
         C           -0.456929863333     0.008645095672     0.032835536994    12.000000000000
         C           -1.830348863333    -0.591149904328     0.032859536994    12.000000000000
         C           -0.276664663333     1.498644095672    -0.167162463006    12.000000000000
         H           -1.764387863333    -1.680706904328     0.032370536994     1.007825032230
         H           -2.391638863333    -0.267153904328     0.915876536994     1.007825032230
         H           -2.392056863333    -0.266333904328    -0.849580463006     1.007825032230
         H           -1.241637863333     2.009098095672     0.032319536994     1.007825032230
         H            0.296608136667     1.810130095672     0.910905536994     1.007825032230
         H            0.297529136667     1.810019095672    -0.844663463006     1.007825032230
         H            2.399248136667    -0.861450904328     0.032699536994     1.007825032230

  Basis Set: AUG-CC-PVTZ
    Blend: AUG-CC-PVTZ
  Basis Set: (AUG-CC-PVTZ AUX)
    Blend: AUG-CC-PVTZ-JKFIT
	 Reference Energy          =    -246.9800641764423403 [Eh]
	 Singles Energy            =      -0.0000000000000000 [Eh]
	 Same-Spin Energy          =      -0.2479221534465705 [Eh]
	 Opposite-Spin Energy      =      -0.8221209128362541 [Eh]
	 Correlation Energy        =      -1.0700430662828246 [Eh]
	 Total Energy              =    -248.0501072427251756 [Eh]

	 ================> DF-SCS-MP2 Energies <==================
	-----------------------------------------------------------
	 SCS Same-Spin Scale       =       0.3333333333333333 [-]
	 SCS Opposite-Spin Scale   =       1.2000000000000000 [-]
	 SCS Same-Spin Energy      =      -0.0826407178155235 [Eh]
	 SCS Opposite-Spin Energy  =      -0.9865450954035049 [Eh]
	 SCS Correlation Energy    =      -1.0691858132190284 [Eh]
	 SCS Total Energy          =    -248.0492499896613765 [Eh]
	-----------------------------------------------------------

  Dipole Moment: [D]
     X:    -0.7593      Y:     0.5330      Z:    -0.0833     Total:     0.9315

*** Psi4 exiting successfully. Buy a developer a beer!
