                               Psi4 1.3.2 release

  ==> Input File <==

--------------------------------------------------------------------------
#psi4
#
memory 32 gb

molecule  {
0 1
  O        2.2902000     1.1004440    -0.0001310
  O        2.2902000    -1.1004440     0.0000360
  N        1.7124186     0.0513562    -0.0000354
  C        0.2417700     0.0000000    -0.0000090
  C       -0.4248660     1.2226560     0.0000420
  C       -0.4248660    -1.2226560    -0.0000210
  C       -1.8195320     1.2101310     0.0000700
  C       -1.8195320    -1.2101310     0.0000040
  C       -2.5180540     0.0000000     0.0000560
  H        0.1410100     2.1474780     0.0000480
  H        0.1410100    -2.1474780    -0.0000570
  H       -2.3614670     2.1521620     0.0001130
  H       -2.3614670    -2.1521620    -0.0000060
  H       -3.6050100     0.0000000     0.0000740
units angstrom
no_reorient  #important for SAPT in psi4, default
symmetry c1  #important for SAPT in psi4, default
}

set PROPERTIES_ORIGIN ["COM"]
properties('MP2/aug-cc-pvtz', properties = ['dipole'])
--------------------------------------------------------------------------

    Molecular point group: c1
  Charge       = 0
  Multiplicity = 1
  Basis Set: AUG-CC-PVTZ
    Blend: AUG-CC-PVTZ
  Basis Set: (AUG-CC-PVTZ AUX)
    Blend: AUG-CC-PVTZ-JKFIT

    Orbital Energies [Eh]
    ---------------------

    Doubly Occupied:

       1A    -20.624666     2A    -20.586542     3A    -15.855074
       4A    -11.314718     5A    -11.279022     6A    -11.278841
       7A    -11.276521     8A    -11.268653     9A    -11.268536
      10A     -1.601313    11A     -1.378497    12A     -1.199639
      13A     -1.094199    14A     -1.052994    15A     -0.963188
      16A     -0.866258    17A     -0.831602    18A     -0.780592
      19A     -0.725683    20A     -0.713429    21A     -0.708471
      22A     -0.655754    23A     -0.650777    24A     -0.625542
      25A     -0.557021    26A     -0.537719    27A     -0.533253
      28A     -0.499023    29A     -0.485982    30A     -0.452008
      31A     -0.378963    32A     -0.369968

  @DF-RHF Final Energy:  -434.31934300260241

   => Energetics <=

    Nuclear Repulsion Energy =            411.1740459025456857
    One-Electron Energy =               -1406.1578852208110675
    Two-Electron Energy =                 560.6644963156629728
    Total Energy =                       -434.3193430026024089
  Basis Set: (AUG-CC-PVTZ AUX)
    Blend: AUG-CC-PVTZ-RI
    Molecular point group: c1

    Geometry (in Angstrom), charge = 0, multiplicity = 1:

       Center              X                  Y                   Z               Mass
    ------------   -----------------  -----------------  -----------------  -----------------
         O            2.225563272521     1.094598817420    -0.000129879318    15.994914619570
         O            2.225563272521    -1.106289182580     0.000037120682    15.994914619570
         N            1.647781872521     0.045511017420    -0.000034279318    14.003074004430
         C            0.177133272521    -0.005845182580    -0.000007879318    12.000000000000
         C           -0.489502727479     1.216810817420     0.000043120682    12.000000000000
         C           -0.489502727479    -1.228501182580    -0.000019879318    12.000000000000
         C           -1.884168727479     1.204285817420     0.000071120682    12.000000000000
         C           -1.884168727479    -1.215976182580     0.000005120682    12.000000000000
         C           -2.582690727479    -0.005845182580     0.000057120682    12.000000000000
         H            0.076373272521     2.141632817420     0.000049120682     1.007825032230
         H            0.076373272521    -2.153323182580    -0.000055879318     1.007825032230
         H           -2.426103727479     2.146316817420     0.000114120682     1.007825032230
         H           -2.426103727479    -2.158007182580    -0.000004879318     1.007825032230
         H           -3.669646727479    -0.005845182580     0.000075120682     1.007825032230

  Basis Set: AUG-CC-PVTZ
    Blend: AUG-CC-PVTZ
  Basis Set: (AUG-CC-PVTZ AUX)
    Blend: AUG-CC-PVTZ-JKFIT
	 Reference Energy          =    -434.3193430026024089 [Eh]
	 Singles Energy            =      -0.0000000000000000 [Eh]
	 Same-Spin Energy          =      -0.4583156669133163 [Eh]
	 Opposite-Spin Energy      =      -1.3583296292550124 [Eh]
	 Correlation Energy        =      -1.8166452961683288 [Eh]
	 Total Energy              =    -436.1359882987707124 [Eh]

	 ================> DF-SCS-MP2 Energies <==================
	-----------------------------------------------------------
	 SCS Same-Spin Scale       =       0.3333333333333333 [-]
	 SCS Opposite-Spin Scale   =       1.2000000000000000 [-]
	 SCS Same-Spin Energy      =      -0.1527718889711054 [Eh]
	 SCS Opposite-Spin Energy  =      -1.6299955551060148 [Eh]
	 SCS Correlation Energy    =      -1.7827674440771202 [Eh]
	 SCS Total Energy          =    -436.1021104466795464 [Eh]
	-----------------------------------------------------------

  Dipole Moment: [D]
     X:    -4.3853      Y:     0.2554      Z:     0.0001     Total:     4.3928

*** Psi4 exiting successfully. Buy a developer a beer!
