                               Psi4 1.3.2 release

  ==> Input File <==

--------------------------------------------------------------------------
#psi4
#
memory 32 gb

molecule  {
0 1
  O        2.2902000     1.1004440    -0.0001310
  O        2.2902000    -1.1004440     0.0000360
  N        1.6668851    -0.0885679    -0.0000294
  C        0.2417700     0.0000000    -0.0000090
  C       -0.4248660     1.2226560     0.0000420
  C       -0.4248660    -1.2226560    -0.0000210
  C       -1.8195320     1.2101310     0.0000700
  C       -1.8195320    -1.2101310     0.0000040
  C       -2.5180540     0.0000000     0.0000560
  H        0.1410100     2.1474780     0.0000480
  H        0.1410100    -2.1474780    -0.0000570
  H       -2.3614670     2.1521620     0.0001130
  H       -2.3614670    -2.1521620    -0.0000060
  H       -3.6050100     0.0000000     0.0000740
units angstrom
no_reorient  #important for SAPT in psi4, default
symmetry c1  #important for SAPT in psi4, default
}

set PROPERTIES_ORIGIN ["COM"]
properties('MP2/aug-cc-pvtz', properties = ['dipole'])
--------------------------------------------------------------------------

    Molecular point group: c1
  Charge       = 0
  Multiplicity = 1
  Basis Set: AUG-CC-PVTZ
    Blend: AUG-CC-PVTZ
  Basis Set: (AUG-CC-PVTZ AUX)
    Blend: AUG-CC-PVTZ-JKFIT

    Orbital Energies [Eh]
    ---------------------

    Doubly Occupied:

       1A    -20.634151     2A    -20.570128     3A    -15.850471
       4A    -11.314357     5A    -11.282602     6A    -11.282038
       7A    -11.280554     8A    -11.270581     9A    -11.270489
      10A     -1.601351    11A     -1.345472    12A     -1.205249
      13A     -1.106497    14A     -1.055583    15A     -0.971167
      16A     -0.869590    17A     -0.832462    18A     -0.781840
      19A     -0.722909    20A     -0.710257    21A     -0.709824
      22A     -0.655236    23A     -0.651391    24A     -0.627690
      25A     -0.559034    26A     -0.539215    27A     -0.536706
      28A     -0.498150    29A     -0.472328    30A     -0.442654
      31A     -0.381309    32A     -0.372103

  @DF-RHF Final Energy:  -434.30604493767271

   => Energetics <=

    Nuclear Repulsion Energy =            411.4396052661560361
    One-Electron Energy =               -1406.6845165716024439
    Two-Electron Energy =                 560.9388663677736986
    Total Energy =                       -434.3060449376727092
  Basis Set: (AUG-CC-PVTZ AUX)
    Blend: AUG-CC-PVTZ-RI
    Molecular point group: c1

    Geometry (in Angstrom), charge = 0, multiplicity = 1:

       Center              X                  Y                   Z               Mass
    ------------   -----------------  -----------------  -----------------  -----------------
         O            2.230745735806     1.110524487774    -0.000130562217    15.994914619570
         O            2.230745735806    -1.090363512226     0.000036437783    15.994914619570
         N            1.607430835806    -0.078487412226    -0.000028962217    14.003074004430
         C            0.182315735806     0.010080487774    -0.000008562217    12.000000000000
         C           -0.484320264194     1.232736487774     0.000042437783    12.000000000000
         C           -0.484320264194    -1.212575512226    -0.000020562217    12.000000000000
         C           -1.878986264194     1.220211487774     0.000070437783    12.000000000000
         C           -1.878986264194    -1.200050512226     0.000004437783    12.000000000000
         C           -2.577508264194     0.010080487774     0.000056437783    12.000000000000
         H            0.081555735806     2.157558487774     0.000048437783     1.007825032230
         H            0.081555735806    -2.137397512226    -0.000056562217     1.007825032230
         H           -2.420921264194     2.162242487774     0.000113437783     1.007825032230
         H           -2.420921264194    -2.142081512226    -0.000005562217     1.007825032230
         H           -3.664464264194     0.010080487774     0.000074437783     1.007825032230

  Basis Set: AUG-CC-PVTZ
    Blend: AUG-CC-PVTZ
  Basis Set: (AUG-CC-PVTZ AUX)
    Blend: AUG-CC-PVTZ-JKFIT
	 Reference Energy          =    -434.3060449376727092 [Eh]
	 Singles Energy            =      -0.0000000000000000 [Eh]
	 Same-Spin Energy          =      -0.4587947806039294 [Eh]
	 Opposite-Spin Energy      =      -1.3595882032236251 [Eh]
	 Correlation Energy        =      -1.8183829838275545 [Eh]
	 Total Energy              =    -436.1244279215002848 [Eh]

	 ================> DF-SCS-MP2 Energies <==================
	-----------------------------------------------------------
	 SCS Same-Spin Scale       =       0.3333333333333333 [-]
	 SCS Opposite-Spin Scale   =       1.2000000000000000 [-]
	 SCS Same-Spin Energy      =      -0.1529315935346431 [Eh]
	 SCS Opposite-Spin Energy  =      -1.6315058438683501 [Eh]
	 SCS Correlation Energy    =      -1.7844374374029932 [Eh]
	 SCS Total Energy          =    -436.0904823750756805 [Eh]
	-----------------------------------------------------------

  Dipole Moment: [D]
     X:    -4.7415      Y:    -0.4425      Z:     0.0001     Total:     4.7621

*** Psi4 exiting successfully. Buy a developer a beer!
