                               Psi4 1.4a3.dev225

  ==> Input File <==

--------------------------------------------------------------------------
#psi4
#
memory 32 gb

molecule  {
0 1
  O       -2.2901490    -1.1004130    -0.0001240
  O       -2.2901490     1.1004130     0.0000270
  N       -1.7225393    -0.0177134    -0.0000384
  C       -0.2417770     0.0000000    -0.0000070
  C        0.4248140    -1.2226400     0.0000400
  C        0.4248130     1.2226400    -0.0000210
  C        1.8194850    -1.2101500     0.0000690
  C        1.8194850     1.2101500     0.0000060
  C        2.5180320     0.0000000     0.0000550
  H       -0.1409150    -2.1475320     0.0000470
  H       -0.1409150     2.1475320    -0.0000550
  H        2.3614300    -2.1521540     0.0001090
  H        2.3614300     2.1521540    -0.0000060
  H        3.6050090     0.0000000     0.0000760
units angstrom
no_reorient  #important for SAPT in psi4, default
symmetry c1  #important for SAPT in psi4, default
}

set PROPERTIES_ORIGIN ["COM"]
properties('MP2/aug-cc-pvtz', properties = ['dipole'])
--------------------------------------------------------------------------

    Molecular point group: c1
  Charge       = 0
  Multiplicity = 1
  Basis Set: AUG-CC-PVTZ
    Blend: AUG-CC-PVTZ
  Basis Set: (AUG-CC-PVTZ AUX)
    Blend: AUG-CC-PVTZ-JKFIT

    Orbital Energies [Eh]
    ---------------------

    Doubly Occupied:

       1A    -20.612974     2A    -20.599716     3A    -15.856342
       4A    -11.314706     5A    -11.278253     6A    -11.278193
       7A    -11.275706     8A    -11.268250     9A    -11.268141
      10A     -1.594464    11A     -1.391189    12A     -1.198531
      13A     -1.091521    14A     -1.052488    15A     -0.961239
      16A     -0.865573    17A     -0.830667    18A     -0.779069
      19A     -0.725936    20A     -0.712329    21A     -0.707743
      22A     -0.655945    23A     -0.650551    24A     -0.625156
      25A     -0.556191    26A     -0.537156    27A     -0.532329
      28A     -0.497852    29A     -0.492990    30A     -0.455022
      31A     -0.378445    32A     -0.369553

  @DF-RHF Final Energy:  -434.32344551407249

   => Energetics <=

    Nuclear Repulsion Energy =            411.0996405484253273
    One-Electron Energy =               -1406.0177331539525767
    Two-Electron Energy =                 560.5946470914548172
    Total Energy =                       -434.3234455140724322
  Basis Set: (AUG-CC-PVTZ AUX)
    Blend: AUG-CC-PVTZ-RI
    Molecular point group: c1

    Geometry (in Angstrom), charge = 0, multiplicity = 1:

       Center              X                  Y                   Z               Mass
    ------------   -----------------  -----------------  -----------------  -----------------
         O           -2.224352334481    -1.098396922932    -0.000122269665    15.994914619570
         O           -2.224352334481     1.102429077068     0.000028730335    15.994914619570
         N           -1.656742634481    -0.015697322932    -0.000036669665    14.003074004430
         C           -0.175980334481     0.002016077068    -0.000005269665    12.000000000000
         C            0.490610665519    -1.220623922932     0.000041730335    12.000000000000
         C            0.490609665519     1.224656077068    -0.000019269665    12.000000000000
         C            1.885281665519    -1.208133922932     0.000070730335    12.000000000000
         C            1.885281665519     1.212166077068     0.000007730335    12.000000000000
         C            2.583828665519     0.002016077068     0.000056730335    12.000000000000
         H           -0.075118334481    -2.145515922932     0.000048730335     1.007825032230
         H           -0.075118334481     2.149548077068    -0.000053269665     1.007825032230
         H            2.427226665519    -2.150137922932     0.000110730335     1.007825032230
         H            2.427226665519     2.154170077068    -0.000004269665     1.007825032230
         H            3.670805665519     0.002016077068     0.000077730335     1.007825032230

  Basis Set: AUG-CC-PVTZ
    Blend: AUG-CC-PVTZ
  Basis Set: (AUG-CC-PVTZ AUX)
    Blend: AUG-CC-PVTZ-JKFIT
	 Reference Energy          =    -434.3234455140724890 [Eh]
	 Singles Energy            =      -0.0000000000000000 [Eh]
	 Same-Spin Energy          =      -0.4583991325627089 [Eh]
	 Opposite-Spin Energy      =      -1.3584456210667173 [Eh]
	 Correlation Energy        =      -1.8168447536294261 [Eh]
	 Total Energy              =    -436.1402902677019142 [Eh]

	 ================> DF-SCS-MP2 Energies <==================
	-----------------------------------------------------------
	 SCS Same-Spin Scale       =       0.3333333333333333 [-]
	 SCS Opposite-Spin Scale   =       1.2000000000000000 [-]
	 SCS Same-Spin Energy      =      -0.1527997108542363 [Eh]
	 SCS Opposite-Spin Energy  =      -1.6301347452800607 [Eh]
	 SCS Correlation Energy    =      -1.7829344561342970 [Eh]
	 SCS Total Energy          =    -436.1063799702067740 [Eh]
	-----------------------------------------------------------

  Dipole Moment: [D]
     X:     4.3006      Y:    -0.0863      Z:     0.0001     Total:     4.3014

*** Psi4 exiting successfully. Buy a developer a beer!
