                               Psi4 1.3.2 release

  ==> Input File <==

--------------------------------------------------------------------------
#psi4
#
memory 32 gb

molecule  {
0 1
  O        2.2902000     1.1004440    -0.0001310
  O        2.2902000    -1.1004440     0.0000360
  N        1.7133150     0.0000000    -0.0000370
  C        0.2417700     0.0000000    -0.0000090
  C       -0.4248660     1.2226560     0.0000420
  C       -0.4248660    -1.2226560    -0.0000210
  C       -1.8195320     1.2101310     0.0000700
  C       -1.8195320    -1.2101310     0.0000040
  C       -2.5180540     0.0000000     0.0000560
  H        0.1410100     2.1474780     0.0000480
  H        0.1410100    -2.1474780    -0.0000570
  H       -2.3614670     2.1521620     0.0001130
  H       -2.3614670    -2.1521620    -0.0000060
  H       -3.6050100     0.0000000     0.0000740
units angstrom
no_reorient  #important for SAPT in psi4, default
symmetry c1  #important for SAPT in psi4, default
}

set PROPERTIES_ORIGIN ["COM"]
properties('MP2/aug-cc-pvtz', properties = ['dipole'])
--------------------------------------------------------------------------

    Molecular point group: c1
  Charge       = 0
  Multiplicity = 1
  Basis Set: AUG-CC-PVTZ
    Blend: AUG-CC-PVTZ
  Basis Set: (AUG-CC-PVTZ AUX)
    Blend: AUG-CC-PVTZ-JKFIT

    Orbital Energies [Eh]
    ---------------------

    Doubly Occupied:

       1A    -20.605800     2A    -20.605751     3A    -15.856024
       4A    -11.314731     5A    -11.278917     6A    -11.278880
       7A    -11.276471     8A    -11.268645     9A    -11.268544
      10A     -1.589379    11A     -1.388005    12A     -1.199706
      13A     -1.093991    14A     -1.053034    15A     -0.962977
      16A     -0.866247    17A     -0.830271    18A     -0.778209
      19A     -0.724269    20A     -0.709878    21A     -0.708013
      22A     -0.655793    23A     -0.650836    24A     -0.625624
      25A     -0.556337    26A     -0.537304    27A     -0.532727
      28A     -0.496701    29A     -0.494804    30A     -0.453731
      31A     -0.378951    32A     -0.370018

  @DF-RHF Final Energy:  -434.32291475217050

   => Energetics <=

    Nuclear Repulsion Energy =            411.1262753625496771
    One-Electron Energy =               -1406.0772410428592138
    Two-Electron Energy =                 560.6280509281390323
    Total Energy =                       -434.3229147521705045
  Basis Set: (AUG-CC-PVTZ AUX)
    Blend: AUG-CC-PVTZ-RI
    Molecular point group: c1

    Geometry (in Angstrom), charge = 0, multiplicity = 1:

       Center              X                  Y                   Z               Mass
    ------------   -----------------  -----------------  -----------------  -----------------
         O            2.225461247416     1.100444000000    -0.000129697211    15.994914619570
         O            2.225461247416    -1.100444000000     0.000037302789    15.994914619570
         N            1.648576247416     0.000000000000    -0.000035697211    14.003074004430
         C            0.177031247416     0.000000000000    -0.000007697211    12.000000000000
         C           -0.489604752584     1.222656000000     0.000043302789    12.000000000000
         C           -0.489604752584    -1.222656000000    -0.000019697211    12.000000000000
         C           -1.884270752584     1.210131000000     0.000071302789    12.000000000000
         C           -1.884270752584    -1.210131000000     0.000005302789    12.000000000000
         C           -2.582792752584     0.000000000000     0.000057302789    12.000000000000
         H            0.076271247416     2.147478000000     0.000049302789     1.007825032230
         H            0.076271247416    -2.147478000000    -0.000055697211     1.007825032230
         H           -2.426205752584     2.152162000000     0.000114302789     1.007825032230
         H           -2.426205752584    -2.152162000000    -0.000004697211     1.007825032230
         H           -3.669748752584     0.000000000000     0.000075302789     1.007825032230

  Basis Set: AUG-CC-PVTZ
    Blend: AUG-CC-PVTZ
  Basis Set: (AUG-CC-PVTZ AUX)
    Blend: AUG-CC-PVTZ-JKFIT
	 Reference Energy          =    -434.3229147521705045 [Eh]
	 Singles Energy            =      -0.0000000000000000 [Eh]
	 Same-Spin Energy          =      -0.4586989153147784 [Eh]
	 Opposite-Spin Energy      =      -1.3591027788807257 [Eh]
	 Correlation Energy        =      -1.8178016941955040 [Eh]
	 Total Energy              =    -436.1407164463660138 [Eh]

	 ================> DF-SCS-MP2 Energies <==================
	-----------------------------------------------------------
	 SCS Same-Spin Scale       =       0.3333333333333333 [-]
	 SCS Opposite-Spin Scale   =       1.2000000000000000 [-]
	 SCS Same-Spin Energy      =      -0.1528996384382594 [Eh]
	 SCS Opposite-Spin Energy  =      -1.6309233346568708 [Eh]
	 SCS Correlation Energy    =      -1.7838229730951303 [Eh]
	 SCS Total Energy          =    -436.1067377252656456 [Eh]
	-----------------------------------------------------------

  Dipole Moment: [D]
     X:    -4.3596      Y:     0.0000      Z:     0.0001     Total:     4.3596

*** Psi4 exiting successfully. Buy a developer a beer!
