                               Psi4 1.3.2 release

  ==> Input File <==

--------------------------------------------------------------------------
#psi4
#
memory 32 gb

molecule  {
0 1
  O        2.3093175     1.0902084    -0.0001306
  O        2.2902000    -1.1004440     0.0000360
  N        1.7133150     0.0000000    -0.0000370
  C        0.2417700     0.0000000    -0.0000090
  C       -0.4248660     1.2226560     0.0000420
  C       -0.4248660    -1.2226560    -0.0000210
  C       -1.8195320     1.2101310     0.0000700
  C       -1.8195320    -1.2101310     0.0000040
  C       -2.5180540     0.0000000     0.0000560
  H        0.1410100     2.1474780     0.0000480
  H        0.1410100    -2.1474780    -0.0000570
  H       -2.3614670     2.1521620     0.0001130
  H       -2.3614670    -2.1521620    -0.0000060
  H       -3.6050100     0.0000000     0.0000740
units angstrom
no_reorient  #important for SAPT in psi4, default
symmetry c1  #important for SAPT in psi4, default
}

set PROPERTIES_ORIGIN ["COM"]
properties('MP2/aug-cc-pvtz', properties = ['dipole'])
--------------------------------------------------------------------------

    Molecular point group: c1
  Charge       = 0
  Multiplicity = 1
  Basis Set: AUG-CC-PVTZ
    Blend: AUG-CC-PVTZ
  Basis Set: (AUG-CC-PVTZ AUX)
    Blend: AUG-CC-PVTZ-JKFIT

    Orbital Energies [Eh]
    ---------------------

    Doubly Occupied:

       1A    -20.604984     2A    -20.604323     3A    -15.855446
       4A    -11.315620     5A    -11.279584     6A    -11.279455
       7A    -11.276963     8A    -11.269104     9A    -11.269001
      10A     -1.589238    11A     -1.385731    12A     -1.200383
      13A     -1.094797    14A     -1.053537    15A     -0.963406
      16A     -0.866737    17A     -0.830137    18A     -0.777933
      19A     -0.723312    20A     -0.709345    21A     -0.708547
      22A     -0.655983    23A     -0.651215    24A     -0.626001
      25A     -0.556906    26A     -0.537795    27A     -0.533190
      28A     -0.497465    29A     -0.492907    30A     -0.452390
      31A     -0.379503    32A     -0.370483

  @DF-RHF Final Energy:  -434.32297093118467

   => Energetics <=

    Nuclear Repulsion Energy =            410.9756216899100991
    One-Electron Energy =               -1405.7743409933023031
    Two-Electron Energy =                 560.4757483722075904
    Total Energy =                       -434.3229709311846136
  Basis Set: (AUG-CC-PVTZ AUX)
    Blend: AUG-CC-PVTZ-RI
    Molecular point group: c1

    Geometry (in Angstrom), charge = 0, multiplicity = 1:

       Center              X                  Y                   Z               Mass
    ------------   -----------------  -----------------  -----------------  -----------------
         O            2.242093355733     1.091539090473    -0.000129349214    15.994914619570
         O            2.222975855733    -1.099113309527     0.000037250786    15.994914619570
         N            1.646090855733     0.001330690473    -0.000035749214    14.003074004430
         C            0.174545855733     0.001330690473    -0.000007749214    12.000000000000
         C           -0.492090144267     1.223986690473     0.000043250786    12.000000000000
         C           -0.492090144267    -1.221325309527    -0.000019749214    12.000000000000
         C           -1.886756144267     1.211461690473     0.000071250786    12.000000000000
         C           -1.886756144267    -1.208800309527     0.000005250786    12.000000000000
         C           -2.585278144267     0.001330690473     0.000057250786    12.000000000000
         H            0.073785855733     2.148808690473     0.000049250786     1.007825032230
         H            0.073785855733    -2.146147309527    -0.000055749214     1.007825032230
         H           -2.428691144267     2.153492690473     0.000114250786     1.007825032230
         H           -2.428691144267    -2.150831309527    -0.000004749214     1.007825032230
         H           -3.672234144267     0.001330690473     0.000075250786     1.007825032230

  Basis Set: AUG-CC-PVTZ
    Blend: AUG-CC-PVTZ
  Basis Set: (AUG-CC-PVTZ AUX)
    Blend: AUG-CC-PVTZ-JKFIT
	 Reference Energy          =    -434.3229709311846705 [Eh]
	 Singles Energy            =      -0.0000000000000000 [Eh]
	 Same-Spin Energy          =      -0.4586209077278530 [Eh]
	 Opposite-Spin Energy      =      -1.3590019702277265 [Eh]
	 Correlation Energy        =      -1.8176228779555794 [Eh]
	 Total Energy              =    -436.1405938091402277 [Eh]

	 ================> DF-SCS-MP2 Energies <==================
	-----------------------------------------------------------
	 SCS Same-Spin Scale       =       0.3333333333333333 [-]
	 SCS Opposite-Spin Scale   =       1.2000000000000000 [-]
	 SCS Same-Spin Energy      =      -0.1528736359092843 [Eh]
	 SCS Opposite-Spin Energy  =      -1.6308023642732719 [Eh]
	 SCS Correlation Energy    =      -1.7836760001825562 [Eh]
	 SCS Total Energy          =    -436.1066469313672087 [Eh]
	-----------------------------------------------------------

  Dipole Moment: [D]
     X:    -4.4188      Y:     0.0091      Z:     0.0001     Total:     4.4188

*** Psi4 exiting successfully. Buy a developer a beer!
