                               Psi4 1.3.2 release

  ==> Input File <==

--------------------------------------------------------------------------
#psi4
#
memory 32 gb

molecule  {
0 1
  O        2.2902000     1.1004440    -0.0001310
  O        2.2902000    -1.1004440     0.0000360
  N        1.7130909    -0.0256820    -0.0000378
  C        0.2417700     0.0000000    -0.0000090
  C       -0.4248660     1.2226560     0.0000420
  C       -0.4248660    -1.2226560    -0.0000210
  C       -1.8195320     1.2101310     0.0000700
  C       -1.8195320    -1.2101310     0.0000040
  C       -2.5180540     0.0000000     0.0000560
  H        0.1410100     2.1474780     0.0000480
  H        0.1410100    -2.1474780    -0.0000570
  H       -2.3614670     2.1521620     0.0001130
  H       -2.3614670    -2.1521620    -0.0000060
  H       -3.6050100     0.0000000     0.0000740
units angstrom
no_reorient  #important for SAPT in psi4, default
symmetry c1  #important for SAPT in psi4, default
}

set PROPERTIES_ORIGIN ["COM"]
properties('MP2/aug-cc-pvtz', properties = ['dipole'])
--------------------------------------------------------------------------

    Molecular point group: c1
  Charge       = 0
  Multiplicity = 1
  Basis Set: AUG-CC-PVTZ
    Blend: AUG-CC-PVTZ
  Basis Set: (AUG-CC-PVTZ AUX)
    Blend: AUG-CC-PVTZ-JKFIT

    Orbital Energies [Eh]
    ---------------------

    Doubly Occupied:

       1A    -20.615313     2A    -20.596151     3A    -15.855785
       4A    -11.314728     5A    -11.278953     6A    -11.278860
       7A    -11.276484     8A    -11.268648     9A    -11.268542
      10A     -1.592481    11A     -1.385511    12A     -1.199690
      13A     -1.094043    14A     -1.053024    15A     -0.963031
      16A     -0.866250    17A     -0.830600    18A     -0.778829
      19A     -0.724625    20A     -0.710772    21A     -0.708117
      22A     -0.655769    23A     -0.650828    24A     -0.625604
      25A     -0.556520    26A     -0.537412    27A     -0.532866
      28A     -0.498447    29A     -0.491409    30A     -0.453292
      31A     -0.378954    32A     -0.370006

  @DF-RHF Final Energy:  -434.32202543491803

   => Energetics <=

    Nuclear Repulsion Energy =            411.1382414865134933
    One-Electron Energy =               -1406.0974479593360229
    Two-Electron Energy =                 560.6371810379044973
    Total Energy =                       -434.3220254349180323
  Basis Set: (AUG-CC-PVTZ AUX)
    Blend: AUG-CC-PVTZ-RI
    Molecular point group: c1

    Geometry (in Angstrom), charge = 0, multiplicity = 1:

       Center              X                  Y                   Z               Mass
    ------------   -----------------  -----------------  -----------------  -----------------
         O            2.225486753692     1.103367035174    -0.000129606158    15.994914619570
         O            2.225486753692    -1.097520964826     0.000037393842    15.994914619570
         N            1.648377653692    -0.022758964826    -0.000036406158    14.003074004430
         C            0.177056753692     0.002923035174    -0.000007606158    12.000000000000
         C           -0.489579246308     1.225579035174     0.000043393842    12.000000000000
         C           -0.489579246308    -1.219732964826    -0.000019606158    12.000000000000
         C           -1.884245246308     1.213054035174     0.000071393842    12.000000000000
         C           -1.884245246308    -1.207207964826     0.000005393842    12.000000000000
         C           -2.582767246308     0.002923035174     0.000057393842    12.000000000000
         H            0.076296753692     2.150401035174     0.000049393842     1.007825032230
         H            0.076296753692    -2.144554964826    -0.000055606158     1.007825032230
         H           -2.426180246308     2.155085035174     0.000114393842     1.007825032230
         H           -2.426180246308    -2.149238964826    -0.000004606158     1.007825032230
         H           -3.669723246308     0.002923035174     0.000075393842     1.007825032230

  Basis Set: AUG-CC-PVTZ
    Blend: AUG-CC-PVTZ
  Basis Set: (AUG-CC-PVTZ AUX)
    Blend: AUG-CC-PVTZ-JKFIT
	 Reference Energy          =    -434.3220254349180323 [Eh]
	 Singles Energy            =      -0.0000000000000000 [Eh]
	 Same-Spin Energy          =      -0.4586020725198272 [Eh]
	 Opposite-Spin Energy      =      -1.3589061984775903 [Eh]
	 Correlation Energy        =      -1.8175082709974175 [Eh]
	 Total Energy              =    -436.1395337059154258 [Eh]

	 ================> DF-SCS-MP2 Energies <==================
	-----------------------------------------------------------
	 SCS Same-Spin Scale       =       0.3333333333333333 [-]
	 SCS Opposite-Spin Scale   =       1.2000000000000000 [-]
	 SCS Same-Spin Energy      =      -0.1528673575066090 [Eh]
	 SCS Opposite-Spin Energy  =      -1.6306874381731082 [Eh]
	 SCS Correlation Energy    =      -1.7835547956797173 [Eh]
	 SCS Total Energy          =    -436.1055802305977522 [Eh]
	-----------------------------------------------------------

  Dipole Moment: [D]
     X:    -4.3660      Y:    -0.1229      Z:     0.0001     Total:     4.3677

*** Psi4 exiting successfully. Buy a developer a beer!
