                               Psi4 1.4a3.dev225

  ==> Input File <==

--------------------------------------------------------------------------
#psi4
#
memory 32 gb

molecule  {
0 1
  O       -2.2901490    -1.1004130    -0.0001240
  O       -2.2901490     1.1004130     0.0000270
  N       -1.7132530     0.0000000    -0.0000370
  C       -0.2617770     0.0000000    -0.0000074
  C        0.4248140    -1.2226400     0.0000400
  C        0.4248130     1.2226400    -0.0000210
  C        1.8194850    -1.2101500     0.0000690
  C        1.8194850     1.2101500     0.0000060
  C        2.5180320     0.0000000     0.0000550
  H       -0.1409150    -2.1475320     0.0000470
  H       -0.1409150     2.1475320    -0.0000550
  H        2.3614300    -2.1521540     0.0001090
  H        2.3614300     2.1521540    -0.0000060
  H        3.6050090     0.0000000     0.0000760
units angstrom
no_reorient  #important for SAPT in psi4, default
symmetry c1  #important for SAPT in psi4, default
}

set PROPERTIES_ORIGIN ["COM"]
properties('MP2/aug-cc-pvtz', properties = ['dipole'])
--------------------------------------------------------------------------

    Molecular point group: c1
  Charge       = 0
  Multiplicity = 1
  Basis Set: AUG-CC-PVTZ
    Blend: AUG-CC-PVTZ
  Basis Set: (AUG-CC-PVTZ AUX)
    Blend: AUG-CC-PVTZ-JKFIT

    Orbital Energies [Eh]
    ---------------------

    Doubly Occupied:

       1A    -20.605378     2A    -20.605328     3A    -15.856478
       4A    -11.314424     5A    -11.280581     6A    -11.280545
       7A    -11.277655     8A    -11.268595     9A    -11.268506
      10A     -1.590935    11A     -1.388425    12A     -1.198309
      13A     -1.097537    14A     -1.051929    15A     -0.965598
      16A     -0.865018    17A     -0.830099    18A     -0.778307
      19A     -0.725016    20A     -0.711797    21A     -0.709227
      22A     -0.654425    23A     -0.650587    24A     -0.624261
      25A     -0.556763    26A     -0.535380    27A     -0.530673
      28A     -0.499135    29A     -0.494746    30A     -0.453891
      31A     -0.378041    32A     -0.369803

  @DF-RHF Final Energy:  -434.32254138574422

   => Energetics <=

    Nuclear Repulsion Energy =            411.1395976520061595
    One-Electron Energy =               -1406.0894911988309559
    Two-Electron Energy =                 560.6273521610805801
    Total Energy =                       -434.3225413857442163
  Basis Set: (AUG-CC-PVTZ AUX)
    Blend: AUG-CC-PVTZ-RI
    Molecular point group: c1

    Geometry (in Angstrom), charge = 0, multiplicity = 1:

       Center              X                  Y                   Z               Mass
    ------------   -----------------  -----------------  -----------------  -----------------
         O           -2.223458557020    -1.100413000000    -0.000122389993    15.994914619570
         O           -2.223458557020     1.100413000000     0.000028610007    15.994914619570
         N           -1.646562557020    -0.000000000000    -0.000035389993    14.003074004430
         C           -0.195086557020    -0.000000000000    -0.000005789993    12.000000000000
         C            0.491504442980    -1.222640000000     0.000041610007    12.000000000000
         C            0.491503442980     1.222640000000    -0.000019389993    12.000000000000
         C            1.886175442980    -1.210150000000     0.000070610007    12.000000000000
         C            1.886175442980     1.210150000000     0.000007610007    12.000000000000
         C            2.584722442980    -0.000000000000     0.000056610007    12.000000000000
         H           -0.074224557020    -2.147532000000     0.000048610007     1.007825032230
         H           -0.074224557020     2.147532000000    -0.000053389993     1.007825032230
         H            2.428120442980    -2.152154000000     0.000110610007     1.007825032230
         H            2.428120442980     2.152154000000    -0.000004389993     1.007825032230
         H            3.671699442980    -0.000000000000     0.000077610007     1.007825032230

  Basis Set: AUG-CC-PVTZ
    Blend: AUG-CC-PVTZ
  Basis Set: (AUG-CC-PVTZ AUX)
    Blend: AUG-CC-PVTZ-JKFIT
	 Reference Energy          =    -434.3225413857442163 [Eh]
	 Singles Energy            =      -0.0000000000000000 [Eh]
	 Same-Spin Energy          =      -0.4586945255430562 [Eh]
	 Opposite-Spin Energy      =      -1.3590691631191529 [Eh]
	 Correlation Energy        =      -1.8177636886622093 [Eh]
	 Total Energy              =    -436.1403050744063989 [Eh]

	 ================> DF-SCS-MP2 Energies <==================
	-----------------------------------------------------------
	 SCS Same-Spin Scale       =       0.3333333333333333 [-]
	 SCS Opposite-Spin Scale   =       1.2000000000000000 [-]
	 SCS Same-Spin Energy      =      -0.1528981751810187 [Eh]
	 SCS Opposite-Spin Energy  =      -1.6308829957429836 [Eh]
	 SCS Correlation Energy    =      -1.7837811709240023 [Eh]
	 SCS Total Energy          =    -436.1063225566682036 [Eh]
	-----------------------------------------------------------

  Dipole Moment: [D]
     X:     4.3795      Y:     0.0000      Z:     0.0001     Total:     4.3795

*** Psi4 exiting successfully. Buy a developer a beer!
