                               Psi4 1.3.2 release

  ==> Input File <==

--------------------------------------------------------------------------
#psi4
#
memory 32 gb

molecule  {
0 1
  O        2.2902000     1.1004440    -0.0001310
  O        2.2902000    -1.1004440     0.0000360
  N        1.6204553    -0.1771357    -0.0000219
  C        0.2417700     0.0000000    -0.0000090
  C       -0.4248660     1.2226560     0.0000420
  C       -0.4248660    -1.2226560    -0.0000210
  C       -1.8195320     1.2101310     0.0000700
  C       -1.8195320    -1.2101310     0.0000040
  C       -2.5180540     0.0000000     0.0000560
  H        0.1410100     2.1474780     0.0000480
  H        0.1410100    -2.1474780    -0.0000570
  H       -2.3614670     2.1521620     0.0001130
  H       -2.3614670    -2.1521620    -0.0000060
  H       -3.6050100     0.0000000     0.0000740
units angstrom
no_reorient  #important for SAPT in psi4, default
symmetry c1  #important for SAPT in psi4, default
}

set PROPERTIES_ORIGIN ["COM"]
properties('MP2/aug-cc-pvtz', properties = ['dipole'])
--------------------------------------------------------------------------

    Molecular point group: c1
  Charge       = 0
  Multiplicity = 1
  Basis Set: AUG-CC-PVTZ
    Blend: AUG-CC-PVTZ
  Basis Set: (AUG-CC-PVTZ AUX)
    Blend: AUG-CC-PVTZ-JKFIT

    Orbital Energies [Eh]
    ---------------------

    Doubly Occupied:

       1A    -20.656474     2A    -20.538717     3A    -15.838737
       4A    -11.314058     5A    -11.286567     6A    -11.284913
       7A    -11.284823     8A    -11.272584     9A    -11.272097
      10A     -1.639377    11A     -1.295061    12A     -1.207193
      13A     -1.117617    14A     -1.057778    15A     -0.977667
      16A     -0.872911    17A     -0.838980    18A     -0.791080
      19A     -0.730913    20A     -0.722326    21A     -0.715133
      22A     -0.658610    23A     -0.651069    24A     -0.629397
      25A     -0.562058    26A     -0.542312    27A     -0.541415
      28A     -0.475276    29A     -0.444440    30A     -0.429425
      31A     -0.383491    32A     -0.373723

  @DF-RHF Final Energy:  -434.26972137286771

   => Energetics <=

    Nuclear Repulsion Energy =            411.9255061847222237
    One-Electron Energy =               -1407.5780140550025408
    Two-Electron Energy =                 561.3827864974125532
    Total Energy =                       -434.2697213728677070
  Basis Set: (AUG-CC-PVTZ AUX)
    Blend: AUG-CC-PVTZ-RI
    Molecular point group: c1

    Geometry (in Angstrom), charge = 0, multiplicity = 1:

       Center              X                  Y                   Z               Mass
    ------------   -----------------  -----------------  -----------------  -----------------
         O            2.236030212815     1.120604964166    -0.000131415840    15.994914619570
         O            2.236030212815    -1.080283035834     0.000035584160    15.994914619570
         N            1.566285512815    -0.156974735834    -0.000022315840    14.003074004430
         C            0.187600212815     0.020160964166    -0.000009415840    12.000000000000
         C           -0.479035787185     1.242816964166     0.000041584160    12.000000000000
         C           -0.479035787185    -1.202495035834    -0.000021415840    12.000000000000
         C           -1.873701787185     1.230291964166     0.000069584160    12.000000000000
         C           -1.873701787185    -1.189970035834     0.000003584160    12.000000000000
         C           -2.572223787185     0.020160964166     0.000055584160    12.000000000000
         H            0.086840212815     2.167638964166     0.000047584160     1.007825032230
         H            0.086840212815    -2.127317035834    -0.000057415840     1.007825032230
         H           -2.415636787185     2.172322964166     0.000112584160     1.007825032230
         H           -2.415636787185    -2.132001035834    -0.000006415840     1.007825032230
         H           -3.659179787185     0.020160964166     0.000073584160     1.007825032230

  Basis Set: AUG-CC-PVTZ
    Blend: AUG-CC-PVTZ
  Basis Set: (AUG-CC-PVTZ AUX)
    Blend: AUG-CC-PVTZ-JKFIT
	 Reference Energy          =    -434.2697213728677070 [Eh]
	 Singles Energy            =      -0.0000000000000000 [Eh]
	 Same-Spin Energy          =      -0.4567736036329835 [Eh]
	 Opposite-Spin Energy      =      -1.3566754498359812 [Eh]
	 Correlation Energy        =      -1.8134490534689647 [Eh]
	 Total Energy              =    -436.0831704263366646 [Eh]

	 ================> DF-SCS-MP2 Energies <==================
	-----------------------------------------------------------
	 SCS Same-Spin Scale       =       0.3333333333333333 [-]
	 SCS Opposite-Spin Scale   =       1.2000000000000000 [-]
	 SCS Same-Spin Energy      =      -0.1522578678776612 [Eh]
	 SCS Opposite-Spin Energy  =      -1.6280105398031774 [Eh]
	 SCS Correlation Energy    =      -1.7802684076808386 [Eh]
	 SCS Total Energy          =    -436.0499897805485716 [Eh]
	-----------------------------------------------------------

  Dipole Moment: [D]
     X:    -5.3823      Y:    -1.1681      Z:     0.0002     Total:     5.5076

*** Psi4 exiting successfully. Buy a developer a beer!
