                               Psi4 1.3.2 release

  ==> Input File <==

--------------------------------------------------------------------------
#psi4
#
memory 32 gb

molecule  {
0 1
  O        2.2902000     1.1004440    -0.0001310
  O        2.2902000    -1.1004440     0.0000360
  N        1.7133150     0.0000000    -0.0000370
  C        0.4417700     0.0000000    -0.0000128
  C       -0.4248660     1.2226560     0.0000420
  C       -0.4248660    -1.2226560    -0.0000210
  C       -1.8195320     1.2101310     0.0000700
  C       -1.8195320    -1.2101310     0.0000040
  C       -2.5180540     0.0000000     0.0000560
  H        0.1410100     2.1474780     0.0000480
  H        0.1410100    -2.1474780    -0.0000570
  H       -2.3614670     2.1521620     0.0001130
  H       -2.3614670    -2.1521620    -0.0000060
  H       -3.6050100     0.0000000     0.0000740
units angstrom
no_reorient  #important for SAPT in psi4, default
symmetry c1  #important for SAPT in psi4, default
}

set PROPERTIES_ORIGIN ["COM"]
properties('MP2/aug-cc-pvtz', properties = ['dipole'])
--------------------------------------------------------------------------

    Molecular point group: c1
  Charge       = 0
  Multiplicity = 1
  Basis Set: AUG-CC-PVTZ
    Blend: AUG-CC-PVTZ
  Basis Set: (AUG-CC-PVTZ AUX)
    Blend: AUG-CC-PVTZ-JKFIT

    Orbital Energies [Eh]
    ---------------------

    Doubly Occupied:

       1A    -20.589266     2A    -20.589220     3A    -15.843901
       4A    -11.311211     5A    -11.301171     6A    -11.301126
       7A    -11.295074     8A    -11.272307     9A    -11.272264
      10A     -1.600623    11A     -1.382846    12A     -1.197647
      13A     -1.137496    14A     -1.049441    15A     -0.981888
      16A     -0.857544    17A     -0.825019    18A     -0.775568
      19A     -0.726380    20A     -0.725879    21A     -0.722024
      22A     -0.649178    23A     -0.648591    24A     -0.615189
      25A     -0.567297    26A     -0.523724    27A     -0.508653
      28A     -0.504220    29A     -0.482007    30A     -0.449078
      31A     -0.372668    32A     -0.370389

  @DF-RHF Final Energy:  -434.27270240677746

   => Energetics <=

    Nuclear Repulsion Energy =            411.6335621962944629
    One-Electron Energy =               -1406.9147526907941028
    Two-Electron Energy =                 561.0084880877222986
    Total Energy =                       -434.2727024067773982
  Basis Set: (AUG-CC-PVTZ AUX)
    Blend: AUG-CC-PVTZ-RI
    Molecular point group: c1

    Geometry (in Angstrom), charge = 0, multiplicity = 1:

       Center              X                  Y                   Z               Mass
    ------------   -----------------  -----------------  -----------------  -----------------
         O            2.205954131821     1.100444000000    -0.000129326576    15.994914619570
         O            2.205954131821    -1.100444000000     0.000037673424    15.994914619570
         N            1.629069131821     0.000000000000    -0.000035326576    14.003074004430
         C            0.357524131821     0.000000000000    -0.000011126576    12.000000000000
         C           -0.509111868179     1.222656000000     0.000043673424    12.000000000000
         C           -0.509111868179    -1.222656000000    -0.000019326576    12.000000000000
         C           -1.903777868179     1.210131000000     0.000071673424    12.000000000000
         C           -1.903777868179    -1.210131000000     0.000005673424    12.000000000000
         C           -2.602299868179     0.000000000000     0.000057673424    12.000000000000
         H            0.056764131821     2.147478000000     0.000049673424     1.007825032230
         H            0.056764131821    -2.147478000000    -0.000055326576     1.007825032230
         H           -2.445712868179     2.152162000000     0.000114673424     1.007825032230
         H           -2.445712868179    -2.152162000000    -0.000004326576     1.007825032230
         H           -3.689255868179     0.000000000000     0.000075673424     1.007825032230

  Basis Set: AUG-CC-PVTZ
    Blend: AUG-CC-PVTZ
  Basis Set: (AUG-CC-PVTZ AUX)
    Blend: AUG-CC-PVTZ-JKFIT
	 Reference Energy          =    -434.2727024067774551 [Eh]
	 Singles Energy            =      -0.0000000000000000 [Eh]
	 Same-Spin Energy          =      -0.4594969657964057 [Eh]
	 Opposite-Spin Energy      =      -1.3599289129300671 [Eh]
	 Correlation Energy        =      -1.8194258787264728 [Eh]
	 Total Energy              =    -436.0921282855039181 [Eh]

	 ================> DF-SCS-MP2 Energies <==================
	-----------------------------------------------------------
	 SCS Same-Spin Scale       =       0.3333333333333333 [-]
	 SCS Opposite-Spin Scale   =       1.2000000000000000 [-]
	 SCS Same-Spin Energy      =      -0.1531656552654685 [Eh]
	 SCS Opposite-Spin Energy  =      -1.6319146955160806 [Eh]
	 SCS Correlation Energy    =      -1.7850803507815491 [Eh]
	 SCS Total Energy          =    -436.0577827575589822 [Eh]
	-----------------------------------------------------------

  Dipole Moment: [D]
     X:    -4.6903      Y:    -0.0000      Z:     0.0001     Total:     4.6903

*** Psi4 exiting successfully. Buy a developer a beer!
