                               Psi4 1.3.2 release

  ==> Input File <==

--------------------------------------------------------------------------
#psi4
#
memory 32 gb

molecule  {
0 1
  O        2.3655578     1.0575219    -0.0001291
  O        2.2902000    -1.1004440     0.0000360
  N        1.7133150     0.0000000    -0.0000370
  C        0.2417700     0.0000000    -0.0000090
  C       -0.4248660     1.2226560     0.0000420
  C       -0.4248660    -1.2226560    -0.0000210
  C       -1.8195320     1.2101310     0.0000700
  C       -1.8195320    -1.2101310     0.0000040
  C       -2.5180540     0.0000000     0.0000560
  H        0.1410100     2.1474780     0.0000480
  H        0.1410100    -2.1474780    -0.0000570
  H       -2.3614670     2.1521620     0.0001130
  H       -2.3614670    -2.1521620    -0.0000060
  H       -3.6050100     0.0000000     0.0000740
units angstrom
no_reorient  #important for SAPT in psi4, default
symmetry c1  #important for SAPT in psi4, default
}

set PROPERTIES_ORIGIN ["COM"]
properties('MP2/aug-cc-pvtz', properties = ['dipole'])
--------------------------------------------------------------------------

    Molecular point group: c1
  Charge       = 0
  Multiplicity = 1
  Basis Set: AUG-CC-PVTZ
    Blend: AUG-CC-PVTZ
  Basis Set: (AUG-CC-PVTZ AUX)
    Blend: AUG-CC-PVTZ-JKFIT

    Orbital Energies [Eh]
    ---------------------

    Doubly Occupied:

       1A    -20.602424     2A    -20.599913     3A    -15.853639
       4A    -11.318262     5A    -11.281552     6A    -11.281074
       7A    -11.278389     8A    -11.270436     9A    -11.270315
      10A     -1.588968    11A     -1.378739    12A     -1.202348
      13A     -1.097140    14A     -1.055000    15A     -0.964722
      16A     -0.868178    17A     -0.829814    18A     -0.777006
      19A     -0.720440    20A     -0.710041    21A     -0.707779
      22A     -0.656540    23A     -0.652277    24A     -0.627117
      25A     -0.558564    26A     -0.539222    27A     -0.534548
      28A     -0.499694    29A     -0.486767    30A     -0.448301
      31A     -0.381097    32A     -0.371825

  @DF-RHF Final Energy:  -434.32179807035521

   => Energetics <=

    Nuclear Repulsion Energy =            410.5645020975561010
    One-Electron Energy =               -1404.9483382691150837
    Two-Electron Energy =                 560.0620381012037114
    Total Energy =                       -434.3217980703552712
  Basis Set: (AUG-CC-PVTZ AUX)
    Blend: AUG-CC-PVTZ-RI
    Molecular point group: c1

    Geometry (in Angstrom), charge = 0, multiplicity = 1:

       Center              X                  Y                   Z               Mass
    ------------   -----------------  -----------------  -----------------  -----------------
         O            2.291022073469     1.063102034975    -0.000128044223    15.994914619570
         O            2.215664273469    -1.094863865025     0.000037055777    15.994914619570
         N            1.638779273469     0.005580134975    -0.000035944223    14.003074004430
         C            0.167234273469     0.005580134975    -0.000007944223    12.000000000000
         C           -0.499401726531     1.228236134975     0.000043055777    12.000000000000
         C           -0.499401726531    -1.217075865025    -0.000019944223    12.000000000000
         C           -1.894067726531     1.215711134975     0.000071055777    12.000000000000
         C           -1.894067726531    -1.204550865025     0.000005055777    12.000000000000
         C           -2.592589726531     0.005580134975     0.000057055777    12.000000000000
         H            0.066474273469     2.153058134975     0.000049055777     1.007825032230
         H            0.066474273469    -2.141897865025    -0.000055944223     1.007825032230
         H           -2.436002726531     2.157742134975     0.000114055777     1.007825032230
         H           -2.436002726531    -2.146581865025    -0.000004944223     1.007825032230
         H           -3.679545726531     0.005580134975     0.000075055777     1.007825032230

  Basis Set: AUG-CC-PVTZ
    Blend: AUG-CC-PVTZ
  Basis Set: (AUG-CC-PVTZ AUX)
    Blend: AUG-CC-PVTZ-JKFIT
	 Reference Energy          =    -434.3217980703552143 [Eh]
	 Singles Energy            =      -0.0000000000000000 [Eh]
	 Same-Spin Energy          =      -0.4584205192051777 [Eh]
	 Opposite-Spin Energy      =      -1.3587734330308412 [Eh]
	 Correlation Energy        =      -1.8171939522360190 [Eh]
	 Total Energy              =    -436.1389920225912533 [Eh]

	 ================> DF-SCS-MP2 Energies <==================
	-----------------------------------------------------------
	 SCS Same-Spin Scale       =       0.3333333333333333 [-]
	 SCS Opposite-Spin Scale   =       1.2000000000000000 [-]
	 SCS Same-Spin Energy      =      -0.1528068397350592 [Eh]
	 SCS Opposite-Spin Energy  =      -1.6305281196370094 [Eh]
	 SCS Correlation Energy    =      -1.7833349593720687 [Eh]
	 SCS Total Energy          =    -436.1051330297272557 [Eh]
	-----------------------------------------------------------

  Dipole Moment: [D]
     X:    -4.5917      Y:     0.0392      Z:     0.0001     Total:     4.5919

*** Psi4 exiting successfully. Buy a developer a beer!
