                               Psi4 1.4a3.dev225

  ==> Input File <==

--------------------------------------------------------------------------
#psi4
#
memory 32 gb

molecule  {
0 1
  O       -2.2901490    -1.1004130    -0.0001240
  O       -2.2901490     1.1004130     0.0000270
  N       -1.7132530     0.0000000    -0.0000370
  C       -0.2217770     0.0000000    -0.0000066
  C        0.4248140    -1.2226400     0.0000400
  C        0.4248130     1.2226400    -0.0000210
  C        1.8194850    -1.2101500     0.0000690
  C        1.8194850     1.2101500     0.0000060
  C        2.5180320     0.0000000     0.0000550
  H       -0.1409150    -2.1475320     0.0000470
  H       -0.1409150     2.1475320    -0.0000550
  H        2.3614300    -2.1521540     0.0001090
  H        2.3614300     2.1521540    -0.0000060
  H        3.6050090     0.0000000     0.0000760
units angstrom
no_reorient  #important for SAPT in psi4, default
symmetry c1  #important for SAPT in psi4, default
}

set PROPERTIES_ORIGIN ["COM"]
properties('MP2/aug-cc-pvtz', properties = ['dipole'])
--------------------------------------------------------------------------

    Molecular point group: c1
  Charge       = 0
  Multiplicity = 1
  Basis Set: AUG-CC-PVTZ
    Blend: AUG-CC-PVTZ
  Basis Set: (AUG-CC-PVTZ AUX)
    Blend: AUG-CC-PVTZ-JKFIT

    Orbital Energies [Eh]
    ---------------------

    Doubly Occupied:

       1A    -20.605970     2A    -20.605921     3A    -15.855221
       4A    -11.315043     5A    -11.277374     6A    -11.277336
       7A    -11.275429     8A    -11.268780     9A    -11.268663
      10A     -1.587769    11A     -1.387422    12A     -1.201332
      13A     -1.090737    14A     -1.054312    15A     -0.960200
      16A     -0.867536    17A     -0.830393    18A     -0.778087
      19A     -0.723408    20A     -0.707916    21A     -0.706807
      22A     -0.657356    23A     -0.651118    24A     -0.626972
      25A     -0.556014    26A     -0.539340    27A     -0.534708
      28A     -0.494646    29A     -0.493959    30A     -0.453438
      31A     -0.379872    32A     -0.370329

  @DF-RHF Final Energy:  -434.32245392280544

   => Energetics <=

    Nuclear Repulsion Energy =            411.1323887255563250
    One-Electron Energy =               -1406.1028671660280907
    Two-Electron Energy =                 560.6480245176662720
    Total Energy =                       -434.3224539228054937
  Basis Set: (AUG-CC-PVTZ AUX)
    Blend: AUG-CC-PVTZ-RI
    Molecular point group: c1

    Geometry (in Angstrom), charge = 0, multiplicity = 1:

       Center              X                  Y                   Z               Mass
    ------------   -----------------  -----------------  -----------------  -----------------
         O           -2.227359980139    -1.100413000000    -0.000122468022    15.994914619570
         O           -2.227359980139     1.100413000000     0.000028531978    15.994914619570
         N           -1.650463980139    -0.000000000000    -0.000035468022    14.003074004430
         C           -0.158987980139    -0.000000000000    -0.000005068022    12.000000000000
         C            0.487603019861    -1.222640000000     0.000041531978    12.000000000000
         C            0.487602019861     1.222640000000    -0.000019468022    12.000000000000
         C            1.882274019861    -1.210150000000     0.000070531978    12.000000000000
         C            1.882274019861     1.210150000000     0.000007531978    12.000000000000
         C            2.580821019861    -0.000000000000     0.000056531978    12.000000000000
         H           -0.078125980139    -2.147532000000     0.000048531978     1.007825032230
         H           -0.078125980139     2.147532000000    -0.000053468022     1.007825032230
         H            2.424219019861    -2.152154000000     0.000110531978     1.007825032230
         H            2.424219019861     2.152154000000    -0.000004468022     1.007825032230
         H            3.667798019861    -0.000000000000     0.000077531978     1.007825032230

  Basis Set: AUG-CC-PVTZ
    Blend: AUG-CC-PVTZ
  Basis Set: (AUG-CC-PVTZ AUX)
    Blend: AUG-CC-PVTZ-JKFIT
	 Reference Energy          =    -434.3224539228054368 [Eh]
	 Singles Energy            =      -0.0000000000000000 [Eh]
	 Same-Spin Energy          =      -0.4587259536582676 [Eh]
	 Opposite-Spin Energy      =      -1.3591618246359378 [Eh]
	 Correlation Energy        =      -1.8178877782942053 [Eh]
	 Total Energy              =    -436.1403417010996577 [Eh]

	 ================> DF-SCS-MP2 Energies <==================
	-----------------------------------------------------------
	 SCS Same-Spin Scale       =       0.3333333333333333 [-]
	 SCS Opposite-Spin Scale   =       1.2000000000000000 [-]
	 SCS Same-Spin Energy      =      -0.1529086512194225 [Eh]
	 SCS Opposite-Spin Energy  =      -1.6309941895631253 [Eh]
	 SCS Correlation Energy    =      -1.7839028407825477 [Eh]
	 SCS Total Energy          =    -436.1063567635879963 [Eh]
	-----------------------------------------------------------

  Dipole Moment: [D]
     X:     4.3449      Y:     0.0000      Z:     0.0001     Total:     4.3449

*** Psi4 exiting successfully. Buy a developer a beer!
