                               Psi4 1.3.2 release

  ==> Input File <==

--------------------------------------------------------------------------
#psi4
#
memory 32 gb

molecule  {
0 1
  O        2.2902000     1.1004440    -0.0001310
  O        2.2902000    -1.1004440     0.0000360
  N        1.7097304    -0.1026498    -0.0000401
  C        0.2417700     0.0000000    -0.0000090
  C       -0.4248660     1.2226560     0.0000420
  C       -0.4248660    -1.2226560    -0.0000210
  C       -1.8195320     1.2101310     0.0000700
  C       -1.8195320    -1.2101310     0.0000040
  C       -2.5180540     0.0000000     0.0000560
  H        0.1410100     2.1474780     0.0000480
  H        0.1410100    -2.1474780    -0.0000570
  H       -2.3614670     2.1521620     0.0001130
  H       -2.3614670    -2.1521620    -0.0000060
  H       -3.6050100     0.0000000     0.0000740
units angstrom
no_reorient  #important for SAPT in psi4, default
symmetry c1  #important for SAPT in psi4, default
}

set PROPERTIES_ORIGIN ["COM"]
properties('MP2/aug-cc-pvtz', properties = ['dipole'])
--------------------------------------------------------------------------

    Molecular point group: c1
  Charge       = 0
  Multiplicity = 1
  Basis Set: AUG-CC-PVTZ
    Blend: AUG-CC-PVTZ
  Basis Set: (AUG-CC-PVTZ AUX)
    Blend: AUG-CC-PVTZ-JKFIT

    Orbital Energies [Eh]
    ---------------------

    Doubly Occupied:

       1A    -20.642465     2A    -20.567771     3A    -15.852301
       4A    -11.314694     5A    -11.279224     6A    -11.278820
       7A    -11.276658     8A    -11.268655     9A    -11.268523
      10A     -1.631527    11A     -1.355458    12A     -1.199403
      13A     -1.094811    14A     -1.052873    15A     -0.963784
      16A     -0.866310    17A     -0.835784    18A     -0.786422
      19A     -0.729982    20A     -0.723684    21A     -0.710154
      22A     -0.656229    23A     -0.650361    24A     -0.625305
      25A     -0.558439    26A     -0.538762    27A     -0.534380
      28A     -0.494234    29A     -0.472687    30A     -0.447324
      31A     -0.378992    32A     -0.369819

  @DF-RHF Final Energy:  -434.30840023890715

   => Energetics <=

    Nuclear Repulsion Energy =            411.3158401946382128
    One-Electron Energy =               -1406.3968109374820870
    Two-Electron Energy =                 560.7725705039367767
    Total Energy =                       -434.3084002389070974
  Basis Set: (AUG-CC-PVTZ AUX)
    Blend: AUG-CC-PVTZ-RI
    Molecular point group: c1

    Geometry (in Angstrom), charge = 0, multiplicity = 1:

       Center              X                  Y                   Z               Mass
    ------------   -----------------  -----------------  -----------------  -----------------
         O            2.225869234017     1.112127240247    -0.000129344380    15.994914619570
         O            2.225869234017    -1.088760759753     0.000037655620    15.994914619570
         N            1.645399634017    -0.090966559753    -0.000038444380    14.003074004430
         C            0.177439234017     0.011683240247    -0.000007344380    12.000000000000
         C           -0.489196765983     1.234339240247     0.000043655620    12.000000000000
         C           -0.489196765983    -1.210972759753    -0.000019344380    12.000000000000
         C           -1.883862765983     1.221814240247     0.000071655620    12.000000000000
         C           -1.883862765983    -1.198447759753     0.000005655620    12.000000000000
         C           -2.582384765983     0.011683240247     0.000057655620    12.000000000000
         H            0.076679234017     2.159161240247     0.000049655620     1.007825032230
         H            0.076679234017    -2.135794759753    -0.000055344380     1.007825032230
         H           -2.425797765983     2.163845240247     0.000114655620     1.007825032230
         H           -2.425797765983    -2.140478759753    -0.000004344380     1.007825032230
         H           -3.669340765983     0.011683240247     0.000075655620     1.007825032230

  Basis Set: AUG-CC-PVTZ
    Blend: AUG-CC-PVTZ
  Basis Set: (AUG-CC-PVTZ AUX)
    Blend: AUG-CC-PVTZ-JKFIT
	 Reference Energy          =    -434.3084002389071543 [Eh]
	 Singles Energy            =      -0.0000000000000000 [Eh]
	 Same-Spin Energy          =      -0.4572332540994190 [Eh]
	 Opposite-Spin Energy      =      -1.3562144795626547 [Eh]
	 Correlation Energy        =      -1.8134477336620738 [Eh]
	 Total Energy              =    -436.1218479725692418 [Eh]

	 ================> DF-SCS-MP2 Energies <==================
	-----------------------------------------------------------
	 SCS Same-Spin Scale       =       0.3333333333333333 [-]
	 SCS Opposite-Spin Scale   =       1.2000000000000000 [-]
	 SCS Same-Spin Energy      =      -0.1524110846998063 [Eh]
	 SCS Opposite-Spin Energy  =      -1.6274573754751855 [Eh]
	 SCS Correlation Energy    =      -1.7798684601749919 [Eh]
	 SCS Total Energy          =    -436.0882686990821639 [Eh]
	-----------------------------------------------------------

  Dipole Moment: [D]
     X:    -4.4643      Y:    -0.5803      Z:     0.0001     Total:     4.5019

*** Psi4 exiting successfully. Buy a developer a beer!
