                               Psi4 1.4a3.dev225

  ==> Input File <==

--------------------------------------------------------------------------
#psi4
#
memory 32 gb

molecule  {
0 1
  O       -2.2901490    -1.1004130    -0.0001240
  O       -2.2901490     1.1004130     0.0000270
  N       -1.7132530     0.0000000    -0.0000370
  C       -0.1917770     0.0000000    -0.0000060
  C        0.4248140    -1.2226400     0.0000400
  C        0.4248130     1.2226400    -0.0000210
  C        1.8194850    -1.2101500     0.0000690
  C        1.8194850     1.2101500     0.0000060
  C        2.5180320     0.0000000     0.0000550
  H       -0.1409150    -2.1475320     0.0000470
  H       -0.1409150     2.1475320    -0.0000550
  H        2.3614300    -2.1521540     0.0001090
  H        2.3614300     2.1521540    -0.0000060
  H        3.6050090     0.0000000     0.0000760
units angstrom
no_reorient  #important for SAPT in psi4, default
symmetry c1  #important for SAPT in psi4, default
}

set PROPERTIES_ORIGIN ["COM"]
properties('MP2/aug-cc-pvtz', properties = ['dipole'])
--------------------------------------------------------------------------

    Molecular point group: c1
  Charge       = 0
  Multiplicity = 1
  Basis Set: AUG-CC-PVTZ
    Blend: AUG-CC-PVTZ
  Basis Set: (AUG-CC-PVTZ AUX)
    Blend: AUG-CC-PVTZ-JKFIT

    Orbital Energies [Eh]
    ---------------------

    Doubly Occupied:

       1A    -20.605831     2A    -20.605781     3A    -15.853431
       4A    -11.315589     5A    -11.275320     6A    -11.275283
       7A    -11.274089     8A    -11.269137     9A    -11.268984
      10A     -1.585138    11A     -1.386216    12A     -1.204128
      13A     -1.086363    14A     -1.056540    15A     -0.955749
      16A     -0.869560    17A     -0.830504    18A     -0.777815
      19A     -0.721889    20A     -0.705036    21A     -0.704810
      22A     -0.660086    23A     -0.651564    24A     -0.628886
      25A     -0.555745    26A     -0.542596    27A     -0.537504
      28A     -0.494079    29A     -0.489279    30A     -0.452770
      31A     -0.381276    32A     -0.370976

  @DF-RHF Final Energy:  -434.32022612645835

   => Energetics <=

    Nuclear Repulsion Energy =            411.1467711392952538
    One-Electron Energy =               -1406.1500825388975500
    Two-Electron Energy =                 560.6830852731440018
    Total Energy =                       -434.3202261264583512
  Basis Set: (AUG-CC-PVTZ AUX)
    Blend: AUG-CC-PVTZ-RI
    Molecular point group: c1

    Geometry (in Angstrom), charge = 0, multiplicity = 1:

       Center              X                  Y                   Z               Mass
    ------------   -----------------  -----------------  -----------------  -----------------
         O           -2.230286047479    -1.100413000000    -0.000122526543    15.994914619570
         O           -2.230286047479     1.100413000000     0.000028473457    15.994914619570
         N           -1.653390047479    -0.000000000000    -0.000035526543    14.003074004430
         C           -0.131914047479    -0.000000000000    -0.000004526543    12.000000000000
         C            0.484676952521    -1.222640000000     0.000041473457    12.000000000000
         C            0.484675952521     1.222640000000    -0.000019526543    12.000000000000
         C            1.879347952521    -1.210150000000     0.000070473457    12.000000000000
         C            1.879347952521     1.210150000000     0.000007473457    12.000000000000
         C            2.577894952521    -0.000000000000     0.000056473457    12.000000000000
         H           -0.081052047479    -2.147532000000     0.000048473457     1.007825032230
         H           -0.081052047479     2.147532000000    -0.000053526543     1.007825032230
         H            2.421292952521    -2.152154000000     0.000110473457     1.007825032230
         H            2.421292952521     2.152154000000    -0.000004526543     1.007825032230
         H            3.664871952521    -0.000000000000     0.000077473457     1.007825032230

  Basis Set: AUG-CC-PVTZ
    Blend: AUG-CC-PVTZ
  Basis Set: (AUG-CC-PVTZ AUX)
    Blend: AUG-CC-PVTZ-JKFIT
	 Reference Energy          =    -434.3202261264583512 [Eh]
	 Singles Energy            =      -0.0000000000000000 [Eh]
	 Same-Spin Energy          =      -0.4588194260525889 [Eh]
	 Opposite-Spin Energy      =      -1.3593276967661987 [Eh]
	 Correlation Energy        =      -1.8181471228187875 [Eh]
	 Total Energy              =    -436.1383732492771514 [Eh]

	 ================> DF-SCS-MP2 Energies <==================
	-----------------------------------------------------------
	 SCS Same-Spin Scale       =       0.3333333333333333 [-]
	 SCS Opposite-Spin Scale   =       1.2000000000000000 [-]
	 SCS Same-Spin Energy      =      -0.1529398086841963 [Eh]
	 SCS Opposite-Spin Energy  =      -1.6311932361194383 [Eh]
	 SCS Correlation Energy    =      -1.7841330448036345 [Eh]
	 SCS Total Energy          =    -436.1043591712619900 [Eh]
	-----------------------------------------------------------

  Dipole Moment: [D]
     X:     4.3319      Y:     0.0000      Z:     0.0001     Total:     4.3319

*** Psi4 exiting successfully. Buy a developer a beer!
