                               Psi4 1.4a3.dev225

  ==> Input File <==

--------------------------------------------------------------------------
#psi4
#
memory 32 gb

molecule  {
0 1
  O       -2.2901490    -1.1004130    -0.0001240
  O       -2.2901490     1.1004130     0.0000270
  N       -1.7364688    -0.0442835    -0.0000405
  C       -0.2417770     0.0000000    -0.0000070
  C        0.4248140    -1.2226400     0.0000400
  C        0.4248130     1.2226400    -0.0000210
  C        1.8194850    -1.2101500     0.0000690
  C        1.8194850     1.2101500     0.0000060
  C        2.5180320     0.0000000     0.0000550
  H       -0.1409150    -2.1475320     0.0000470
  H       -0.1409150     2.1475320    -0.0000550
  H        2.3614300    -2.1521540     0.0001090
  H        2.3614300     2.1521540    -0.0000060
  H        3.6050090     0.0000000     0.0000760
units angstrom
no_reorient  #important for SAPT in psi4, default
symmetry c1  #important for SAPT in psi4, default
}

set PROPERTIES_ORIGIN ["COM"]
properties('MP2/aug-cc-pvtz', properties = ['dipole'])
--------------------------------------------------------------------------

    Molecular point group: c1
  Charge       = 0
  Multiplicity = 1
  Basis Set: AUG-CC-PVTZ
    Blend: AUG-CC-PVTZ
  Basis Set: (AUG-CC-PVTZ AUX)
    Blend: AUG-CC-PVTZ-JKFIT

    Orbital Energies [Eh]
    ---------------------

    Doubly Occupied:

       1A    -20.623706     2A    -20.590581     3A    -15.856375
       4A    -11.314578     5A    -11.277261     6A    -11.277172
       7A    -11.274569     8A    -11.267657     9A    -11.267514
      10A     -1.607959    11A     -1.391453    12A     -1.196759
      13A     -1.087889    14A     -1.051631    15A     -0.958632
      16A     -0.864553    17A     -0.832015    18A     -0.781406
      19A     -0.729074    20A     -0.717876    21A     -0.707654
      22A     -0.655983    23A     -0.650092    24A     -0.624393
      25A     -0.556338    26A     -0.537054    27A     -0.531875
      28A     -0.499699    29A     -0.487027    30A     -0.456180
      31A     -0.377651    32A     -0.368823

  @DF-RHF Final Energy:  -434.32205426348509

   => Energetics <=

    Nuclear Repulsion Energy =            411.0742612418998760
    One-Electron Energy =               -1405.9497766506267453
    Two-Electron Energy =                 560.5534611452418403
    Total Energy =                       -434.3220542634850290
  Basis Set: (AUG-CC-PVTZ AUX)
    Blend: AUG-CC-PVTZ-RI
    Molecular point group: c1

    Geometry (in Angstrom), charge = 0, multiplicity = 1:

       Center              X                  Y                   Z               Mass
    ------------   -----------------  -----------------  -----------------  -----------------
         O           -2.222766927641    -1.095372807331    -0.000122030650    15.994914619570
         O           -2.222766927641     1.105453192669     0.000028969350    15.994914619570
         N           -1.669086727641    -0.039243307331    -0.000038530650    14.003074004430
         C           -0.174394927641     0.005040192669    -0.000005030650    12.000000000000
         C            0.492196072359    -1.217599807331     0.000041969350    12.000000000000
         C            0.492195072359     1.227680192669    -0.000019030650    12.000000000000
         C            1.886867072359    -1.205109807331     0.000070969350    12.000000000000
         C            1.886867072359     1.215190192669     0.000007969350    12.000000000000
         C            2.585414072359     0.005040192669     0.000056969350    12.000000000000
         H           -0.073532927641    -2.142491807331     0.000048969350     1.007825032230
         H           -0.073532927641     2.152572192669    -0.000053030650     1.007825032230
         H            2.428812072359    -2.147113807331     0.000110969350     1.007825032230
         H            2.428812072359     2.157194192669    -0.000004030650     1.007825032230
         H            3.672391072359     0.005040192669     0.000077969350     1.007825032230

  Basis Set: AUG-CC-PVTZ
    Blend: AUG-CC-PVTZ
  Basis Set: (AUG-CC-PVTZ AUX)
    Blend: AUG-CC-PVTZ-JKFIT
	 Reference Energy          =    -434.3220542634850858 [Eh]
	 Singles Energy            =      -0.0000000000000000 [Eh]
	 Same-Spin Energy          =      -0.4578026657860396 [Eh]
	 Opposite-Spin Energy      =      -1.3571527633578473 [Eh]
	 Correlation Energy        =      -1.8149554291438870 [Eh]
	 Total Energy              =    -436.1370096926289648 [Eh]

	 ================> DF-SCS-MP2 Energies <==================
	-----------------------------------------------------------
	 SCS Same-Spin Scale       =       0.3333333333333333 [-]
	 SCS Opposite-Spin Scale   =       1.2000000000000000 [-]
	 SCS Same-Spin Energy      =      -0.1526008885953465 [Eh]
	 SCS Opposite-Spin Energy  =      -1.6285833160294167 [Eh]
	 SCS Correlation Energy    =      -1.7811842046247632 [Eh]
	 SCS Total Energy          =    -436.1032384681098506 [Eh]
	-----------------------------------------------------------

  Dipole Moment: [D]
     X:     4.2161      Y:    -0.2307      Z:     0.0001     Total:     4.2224

*** Psi4 exiting successfully. Buy a developer a beer!
