                               Psi4 1.3.2 release

  ==> Input File <==

--------------------------------------------------------------------------
#psi4
#
memory 32 gb

molecule  {
0 1
  O        2.2120316     1.1380048    -0.0001324
  O        2.2902000    -1.1004440     0.0000360
  N        1.7133150     0.0000000    -0.0000370
  C        0.2417700     0.0000000    -0.0000090
  C       -0.4248660     1.2226560     0.0000420
  C       -0.4248660    -1.2226560    -0.0000210
  C       -1.8195320     1.2101310     0.0000700
  C       -1.8195320    -1.2101310     0.0000040
  C       -2.5180540     0.0000000     0.0000560
  H        0.1410100     2.1474780     0.0000480
  H        0.1410100    -2.1474780    -0.0000570
  H       -2.3614670     2.1521620     0.0001130
  H       -2.3614670    -2.1521620    -0.0000060
  H       -3.6050100     0.0000000     0.0000740
units angstrom
no_reorient  #important for SAPT in psi4, default
symmetry c1  #important for SAPT in psi4, default
}

set PROPERTIES_ORIGIN ["COM"]
properties('MP2/aug-cc-pvtz', properties = ['dipole'])
--------------------------------------------------------------------------

    Molecular point group: c1
  Charge       = 0
  Multiplicity = 1
  Basis Set: AUG-CC-PVTZ
    Blend: AUG-CC-PVTZ
  Basis Set: (AUG-CC-PVTZ AUX)
    Blend: AUG-CC-PVTZ-JKFIT

    Orbital Energies [Eh]
    ---------------------

    Doubly Occupied:

       1A    -20.611500     2A    -20.608647     3A    -15.858209
       4A    -11.311151     5A    -11.276558     6A    -11.276034
       7A    -11.274413     8A    -11.266753     9A    -11.266613
      10A     -1.590189    11A     -1.396845    12A     -1.196895
      13A     -1.090636    14A     -1.050943    15A     -0.961336
      16A     -0.864264    17A     -0.830949    18A     -0.779144
      19A     -0.728092    20A     -0.712062    21A     -0.705715
      22A     -0.655053    23A     -0.649191    24A     -0.624101
      25A     -0.554016    26A     -0.535271    27A     -0.530830
      28A     -0.501624    29A     -0.493457    30A     -0.458993
      31A     -0.376641    32A     -0.368067

  @DF-RHF Final Energy:  -434.32040749706903

   => Energetics <=

    Nuclear Repulsion Energy =            411.7980868481970447
    One-Electron Energy =               -1407.4286072285406135
    Two-Electron Energy =                 561.3101128832745417
    Total Energy =                       -434.3204074970690272
  Basis Set: (AUG-CC-PVTZ AUX)
    Blend: AUG-CC-PVTZ-RI
    Molecular point group: c1

    Geometry (in Angstrom), charge = 0, multiplicity = 1:

       Center              X                  Y                   Z               Mass
    ------------   -----------------  -----------------  -----------------  -----------------
         O            2.157455216518     1.133121666747    -0.000130915203    15.994914619570
         O            2.235623616518    -1.105327133253     0.000037484797    15.994914619570
         N            1.658738616518    -0.004883133253    -0.000035515203    14.003074004430
         C            0.187193616518    -0.004883133253    -0.000007515203    12.000000000000
         C           -0.479442383482     1.217772866747     0.000043484797    12.000000000000
         C           -0.479442383482    -1.227539133253    -0.000019515203    12.000000000000
         C           -1.874108383482     1.205247866747     0.000071484797    12.000000000000
         C           -1.874108383482    -1.215014133253     0.000005484797    12.000000000000
         C           -2.572630383482    -0.004883133253     0.000057484797    12.000000000000
         H            0.086433616518     2.142594866747     0.000049484797     1.007825032230
         H            0.086433616518    -2.152361133253    -0.000055515203     1.007825032230
         H           -2.416043383482     2.147278866747     0.000114484797     1.007825032230
         H           -2.416043383482    -2.157045133253    -0.000004515203     1.007825032230
         H           -3.659586383482    -0.004883133253     0.000075484797     1.007825032230

  Basis Set: AUG-CC-PVTZ
    Blend: AUG-CC-PVTZ
  Basis Set: (AUG-CC-PVTZ AUX)
    Blend: AUG-CC-PVTZ-JKFIT
	 Reference Energy          =    -434.3204074970690272 [Eh]
	 Singles Energy            =      -0.0000000000000000 [Eh]
	 Same-Spin Energy          =      -0.4590697410192333 [Eh]
	 Opposite-Spin Energy      =      -1.3596313393912793 [Eh]
	 Correlation Energy        =      -1.8187010804105126 [Eh]
	 Total Energy              =    -436.1391085774795329 [Eh]

	 ================> DF-SCS-MP2 Energies <==================
	-----------------------------------------------------------
	 SCS Same-Spin Scale       =       0.3333333333333333 [-]
	 SCS Opposite-Spin Scale   =       1.2000000000000000 [-]
	 SCS Same-Spin Energy      =      -0.1530232470064111 [Eh]
	 SCS Opposite-Spin Energy  =      -1.6315576072695352 [Eh]
	 SCS Correlation Energy    =      -1.7845808542759463 [Eh]
	 SCS Total Energy          =    -436.1049883513449572 [Eh]
	-----------------------------------------------------------

  Dipole Moment: [D]
     X:    -4.1156      Y:    -0.0322      Z:     0.0001     Total:     4.1157

*** Psi4 exiting successfully. Buy a developer a beer!
