                               Psi4 1.3.2 release

  ==> Input File <==

--------------------------------------------------------------------------
#psi4
#
memory 32 gb

molecule  {
0 1
  O        2.2514436     1.1199066    -0.0001318
  O        2.2902000    -1.1004440     0.0000360
  N        1.7133150     0.0000000    -0.0000370
  C        0.2417700     0.0000000    -0.0000090
  C       -0.4248660     1.2226560     0.0000420
  C       -0.4248660    -1.2226560    -0.0000210
  C       -1.8195320     1.2101310     0.0000700
  C       -1.8195320    -1.2101310     0.0000040
  C       -2.5180540     0.0000000     0.0000560
  H        0.1410100     2.1474780     0.0000480
  H        0.1410100    -2.1474780    -0.0000570
  H       -2.3614670     2.1521620     0.0001130
  H       -2.3614670    -2.1521620    -0.0000060
  H       -3.6050100     0.0000000     0.0000740
units angstrom
no_reorient  #important for SAPT in psi4, default
symmetry c1  #important for SAPT in psi4, default
}

set PROPERTIES_ORIGIN ["COM"]
properties('MP2/aug-cc-pvtz', properties = ['dipole'])
--------------------------------------------------------------------------

    Molecular point group: c1
  Charge       = 0
  Multiplicity = 1
  Basis Set: AUG-CC-PVTZ
    Blend: AUG-CC-PVTZ
  Basis Set: (AUG-CC-PVTZ AUX)
    Blend: AUG-CC-PVTZ-JKFIT

    Orbital Energies [Eh]
    ---------------------

    Doubly Occupied:

       1A    -20.608653     2A    -20.607271     3A    -15.857142
       4A    -11.312945     5A    -11.277750     6A    -11.277492
       7A    -11.275460     8A    -11.267711     9A    -11.267600
      10A     -1.589735    11A     -1.392474    12A     -1.198321
      13A     -1.092340    14A     -1.052003    15A     -0.962140
      16A     -0.865258    17A     -0.830582    18A     -0.778711
      19A     -0.726180    20A     -0.710959    21A     -0.706896
      22A     -0.655415    23A     -0.650039    24A     -0.624866
      25A     -0.555182    26A     -0.536301    27A     -0.531785
      28A     -0.498376    29A     -0.495118    30A     -0.456382
      31A     -0.377816    32A     -0.369061

  @DF-RHF Final Energy:  -434.32212265649764

   => Energetics <=

    Nuclear Repulsion Energy =            411.4482485240737333
    One-Electron Energy =               -1406.7248139731671017
    Two-Electron Energy =                 560.9544427925957280
    Total Energy =                       -434.3221226564976405
  Basis Set: (AUG-CC-PVTZ AUX)
    Blend: AUG-CC-PVTZ-RI
    Molecular point group: c1

    Geometry (in Angstrom), charge = 0, multiplicity = 1:

       Center              X                  Y                   Z               Mass
    ------------   -----------------  -----------------  -----------------  -----------------
         O            2.191743415966     1.117376343210    -0.000130393207    15.994914619570
         O            2.230499815966    -1.102974256790     0.000037406793    15.994914619570
         N            1.653614815966    -0.002530256790    -0.000035593207    14.003074004430
         C            0.182069815966    -0.002530256790    -0.000007593207    12.000000000000
         C           -0.484566184034     1.220125743210     0.000043406793    12.000000000000
         C           -0.484566184034    -1.225186256790    -0.000019593207    12.000000000000
         C           -1.879232184034     1.207600743210     0.000071406793    12.000000000000
         C           -1.879232184034    -1.212661256790     0.000005406793    12.000000000000
         C           -2.577754184034    -0.002530256790     0.000057406793    12.000000000000
         H            0.081309815966     2.144947743210     0.000049406793     1.007825032230
         H            0.081309815966    -2.150008256790    -0.000055593207     1.007825032230
         H           -2.421167184034     2.149631743210     0.000114406793     1.007825032230
         H           -2.421167184034    -2.154692256790    -0.000004593207     1.007825032230
         H           -3.664710184034    -0.002530256790     0.000075406793     1.007825032230

  Basis Set: AUG-CC-PVTZ
    Blend: AUG-CC-PVTZ
  Basis Set: (AUG-CC-PVTZ AUX)
    Blend: AUG-CC-PVTZ-JKFIT
	 Reference Energy          =    -434.3221226564976405 [Eh]
	 Singles Energy            =      -0.0000000000000000 [Eh]
	 Same-Spin Energy          =      -0.4588723382419220 [Eh]
	 Opposite-Spin Energy      =      -1.3593418039685308 [Eh]
	 Correlation Energy        =      -1.8182141422104527 [Eh]
	 Total Energy              =    -436.1403367987081197 [Eh]

	 ================> DF-SCS-MP2 Energies <==================
	-----------------------------------------------------------
	 SCS Same-Spin Scale       =       0.3333333333333333 [-]
	 SCS Opposite-Spin Scale   =       1.2000000000000000 [-]
	 SCS Same-Spin Energy      =      -0.1529574460806407 [Eh]
	 SCS Opposite-Spin Energy  =      -1.6312101647622368 [Eh]
	 SCS Correlation Energy    =      -1.7841676108428774 [Eh]
	 SCS Total Energy          =    -436.1062902673405119 [Eh]
	-----------------------------------------------------------

  Dipole Moment: [D]
     X:    -4.2391      Y:    -0.0170      Z:     0.0001     Total:     4.2391

*** Psi4 exiting successfully. Buy a developer a beer!
