                               Psi4 1.3.2 release

  ==> Input File <==

--------------------------------------------------------------------------
#psi4
#
memory 32 gb

molecule  {
0 1
  O        2.2902000     1.1004440    -0.0001310
  O        2.2902000    -1.1004440     0.0000360
  N        1.7597449     0.0885679    -0.0000446
  C        0.2417700     0.0000000    -0.0000090
  C       -0.4248660     1.2226560     0.0000420
  C       -0.4248660    -1.2226560    -0.0000210
  C       -1.8195320     1.2101310     0.0000700
  C       -1.8195320    -1.2101310     0.0000040
  C       -2.5180540     0.0000000     0.0000560
  H        0.1410100     2.1474780     0.0000480
  H        0.1410100    -2.1474780    -0.0000570
  H       -2.3614670     2.1521620     0.0001130
  H       -2.3614670    -2.1521620    -0.0000060
  H       -3.6050100     0.0000000     0.0000740
units angstrom
no_reorient  #important for SAPT in psi4, default
symmetry c1  #important for SAPT in psi4, default
}

set PROPERTIES_ORIGIN ["COM"]
properties('MP2/aug-cc-pvtz', properties = ['dipole'])
--------------------------------------------------------------------------

    Molecular point group: c1
  Charge       = 0
  Multiplicity = 1
  Basis Set: AUG-CC-PVTZ
    Blend: AUG-CC-PVTZ
  Basis Set: (AUG-CC-PVTZ AUX)
    Blend: AUG-CC-PVTZ-JKFIT

    Orbital Energies [Eh]
    ---------------------

    Doubly Occupied:

       1A    -20.641262     2A    -20.575494     3A    -15.855326
       4A    -11.313994     5A    -11.275529     6A    -11.275479
       7A    -11.272686     8A    -11.266642     9A    -11.266378
      10A     -1.644518    11A     -1.381693    12A     -1.193825
      13A     -1.082161    14A     -1.050073    15A     -0.954477
      16A     -0.862845    17A     -0.836902    18A     -0.787346
      19A     -0.736065    20A     -0.732635    21A     -0.708453
      22A     -0.655657    23A     -0.649156    24A     -0.622940
      25A     -0.557223    26A     -0.537020    27A     -0.531176
      28A     -0.497781    29A     -0.474495    30A     -0.455970
      31A     -0.376204    32A     -0.367494

  @DF-RHF Final Energy:  -434.31290442669001

   => Energetics <=

    Nuclear Repulsion Energy =            411.0962891939908559
    One-Electron Energy =               -1405.9405979297980593
    Two-Electron Energy =                 560.5314043091171925
    Total Energy =                       -434.3129044266900110
  Basis Set: (AUG-CC-PVTZ AUX)
    Blend: AUG-CC-PVTZ-RI
    Molecular point group: c1

    Geometry (in Angstrom), charge = 0, multiplicity = 1:

       Center              X                  Y                   Z               Mass
    ------------   -----------------  -----------------  -----------------  -----------------
         O            2.220176759026     1.090363512226    -0.000128832206    15.994914619570
         O            2.220176759026    -1.110524487774     0.000038167794    15.994914619570
         N            1.689721659026     0.078487412226    -0.000042432206    14.003074004430
         C            0.171746759026    -0.010080487774    -0.000006832206    12.000000000000
         C           -0.494889240974     1.212575512226     0.000044167794    12.000000000000
         C           -0.494889240974    -1.232736487774    -0.000018832206    12.000000000000
         C           -1.889555240974     1.200050512226     0.000072167794    12.000000000000
         C           -1.889555240974    -1.220211487774     0.000006167794    12.000000000000
         C           -2.588077240974    -0.010080487774     0.000058167794    12.000000000000
         H            0.070986759026     2.137397512226     0.000050167794     1.007825032230
         H            0.070986759026    -2.157558487774    -0.000054832206     1.007825032230
         H           -2.431490240974     2.142081512226     0.000115167794     1.007825032230
         H           -2.431490240974    -2.162242487774    -0.000003832206     1.007825032230
         H           -3.675033240974    -0.010080487774     0.000076167794     1.007825032230

  Basis Set: AUG-CC-PVTZ
    Blend: AUG-CC-PVTZ
  Basis Set: (AUG-CC-PVTZ AUX)
    Blend: AUG-CC-PVTZ-JKFIT
	 Reference Energy          =    -434.3129044266900110 [Eh]
	 Singles Energy            =      -0.0000000000000000 [Eh]
	 Same-Spin Energy          =      -0.4564838213276382 [Eh]
	 Opposite-Spin Energy      =      -1.3543223391699915 [Eh]
	 Correlation Energy        =      -1.8108061604976295 [Eh]
	 Total Energy              =    -436.1237105871876452 [Eh]

	 ================> DF-SCS-MP2 Energies <==================
	-----------------------------------------------------------
	 SCS Same-Spin Scale       =       0.3333333333333333 [-]
	 SCS Opposite-Spin Scale   =       1.2000000000000000 [-]
	 SCS Same-Spin Energy      =      -0.1521612737758794 [Eh]
	 SCS Opposite-Spin Energy  =      -1.6251868070039897 [Eh]
	 SCS Correlation Energy    =      -1.7773480807798689 [Eh]
	 SCS Total Energy          =    -436.0902525074698701 [Eh]
	-----------------------------------------------------------

  Dipole Moment: [D]
     X:    -4.0791      Y:     0.5316      Z:     0.0000     Total:     4.1136

*** Psi4 exiting successfully. Buy a developer a beer!
