                               Psi4 1.3.2 release

  ==> Input File <==

--------------------------------------------------------------------------
#psi4
#
memory 32 gb

molecule  {
0 1
  O        2.1720120     1.1547166    -0.0001330
  O        2.2902000    -1.1004440     0.0000360
  N        1.7133150     0.0000000    -0.0000370
  C        0.2417700     0.0000000    -0.0000090
  C       -0.4248660     1.2226560     0.0000420
  C       -0.4248660    -1.2226560    -0.0000210
  C       -1.8195320     1.2101310     0.0000700
  C       -1.8195320    -1.2101310     0.0000040
  C       -2.5180540     0.0000000     0.0000560
  H        0.1410100     2.1474780     0.0000480
  H        0.1410100    -2.1474780    -0.0000570
  H       -2.3614670     2.1521620     0.0001130
  H       -2.3614670    -2.1521620    -0.0000060
  H       -3.6050100     0.0000000     0.0000740
units angstrom
no_reorient  #important for SAPT in psi4, default
symmetry c1  #important for SAPT in psi4, default
}

set PROPERTIES_ORIGIN ["COM"]
properties('MP2/aug-cc-pvtz', properties = ['dipole'])
--------------------------------------------------------------------------

    Molecular point group: c1
  Charge       = 0
  Multiplicity = 1
  Basis Set: AUG-CC-PVTZ
    Blend: AUG-CC-PVTZ
  Basis Set: (AUG-CC-PVTZ AUX)
    Blend: AUG-CC-PVTZ-JKFIT

    Orbital Energies [Eh]
    ---------------------

    Doubly Occupied:

       1A    -20.614319     2A    -20.609902     3A    -15.859223
       4A    -11.309356     5A    -11.275325     6A    -11.274524
       7A    -11.273331     8A    -11.265772     9A    -11.265584
      10A     -1.590741    11A     -1.401127    12A     -1.195427
      13A     -1.088878    14A     -1.049854    15A     -0.960574
      16A     -0.863276    17A     -0.831368    18A     -0.779507
      19A     -0.730008    20A     -0.713189    21A     -0.704472
      22A     -0.654721    23A     -0.648292    24A     -0.623329
      25A     -0.552857    26A     -0.534217    27A     -0.529867
      28A     -0.504531    29A     -0.491688    30A     -0.461568
      31A     -0.375427    32A     -0.367037

  @DF-RHF Final Energy:  -434.31774207961593

   => Energetics <=

    Nuclear Repulsion Energy =            412.1762099716637522
    One-Electron Energy =               -1408.1893160773740874
    Two-Electron Energy =                 561.6953640260943530
    Total Energy =                       -434.3177420796159822
  Basis Set: (AUG-CC-PVTZ AUX)
    Blend: AUG-CC-PVTZ-RI
    Molecular point group: c1

    Geometry (in Angstrom), charge = 0, multiplicity = 1:

       Center              X                  Y                   Z               Mass
    ------------   -----------------  -----------------  -----------------  -----------------
         O            2.122638408778     1.147660830747    -0.000131437199    15.994914619570
         O            2.240826408778    -1.107499769253     0.000037562801    15.994914619570
         N            1.663941408778    -0.007055769253    -0.000035437199    14.003074004430
         C            0.192396408778    -0.007055769253    -0.000007437199    12.000000000000
         C           -0.474239591222     1.215600230747     0.000043562801    12.000000000000
         C           -0.474239591222    -1.229711769253    -0.000019437199    12.000000000000
         C           -1.868905591222     1.203075230747     0.000071562801    12.000000000000
         C           -1.868905591222    -1.217186769253     0.000005562801    12.000000000000
         C           -2.567427591222    -0.007055769253     0.000057562801    12.000000000000
         H            0.091636408778     2.140422230747     0.000049562801     1.007825032230
         H            0.091636408778    -2.154533769253    -0.000055437199     1.007825032230
         H           -2.410840591222     2.145106230747     0.000114562801     1.007825032230
         H           -2.410840591222    -2.159217769253    -0.000004437199     1.007825032230
         H           -3.654383591222    -0.007055769253     0.000075562801     1.007825032230

  Basis Set: AUG-CC-PVTZ
    Blend: AUG-CC-PVTZ
  Basis Set: (AUG-CC-PVTZ AUX)
    Blend: AUG-CC-PVTZ-JKFIT
	 Reference Energy          =    -434.3177420796159254 [Eh]
	 Singles Energy            =      -0.0000000000000000 [Eh]
	 Same-Spin Energy          =      -0.4592921910513283 [Eh]
	 Opposite-Spin Energy      =      -1.3599724148226013 [Eh]
	 Correlation Energy        =      -1.8192646058739297 [Eh]
	 Total Energy              =    -436.1370066854898369 [Eh]

	 ================> DF-SCS-MP2 Energies <==================
	-----------------------------------------------------------
	 SCS Same-Spin Scale       =       0.3333333333333333 [-]
	 SCS Opposite-Spin Scale   =       1.2000000000000000 [-]
	 SCS Same-Spin Energy      =      -0.1530973970171094 [Eh]
	 SCS Opposite-Spin Energy  =      -1.6319668977871216 [Eh]
	 SCS Correlation Energy    =      -1.7850642948042310 [Eh]
	 SCS Total Energy          =    -436.1028063744201404 [Eh]
	-----------------------------------------------------------

  Dipole Moment: [D]
     X:    -3.9891      Y:    -0.0457      Z:     0.0001     Total:     3.9894

*** Psi4 exiting successfully. Buy a developer a beer!
