                               Psi4 1.3.2 release

  ==> Input File <==

--------------------------------------------------------------------------
#psi4
#
memory 32 gb

molecule  {
0 1
  O        2.2902000     1.1004440    -0.0001310
  O        2.2902000    -1.1004440     0.0000360
  N        1.7052537    -0.1538183    -0.0000417
  C        0.2417700     0.0000000    -0.0000090
  C       -0.4248660     1.2226560     0.0000420
  C       -0.4248660    -1.2226560    -0.0000210
  C       -1.8195320     1.2101310     0.0000700
  C       -1.8195320    -1.2101310     0.0000040
  C       -2.5180540     0.0000000     0.0000560
  H        0.1410100     2.1474780     0.0000480
  H        0.1410100    -2.1474780    -0.0000570
  H       -2.3614670     2.1521620     0.0001130
  H       -2.3614670    -2.1521620    -0.0000060
  H       -3.6050100     0.0000000     0.0000740
units angstrom
no_reorient  #important for SAPT in psi4, default
symmetry c1  #important for SAPT in psi4, default
}

set PROPERTIES_ORIGIN ["COM"]
properties('MP2/aug-cc-pvtz', properties = ['dipole'])
--------------------------------------------------------------------------

    Molecular point group: c1
  Charge       = 0
  Multiplicity = 1
  Basis Set: AUG-CC-PVTZ
    Blend: AUG-CC-PVTZ
  Basis Set: (AUG-CC-PVTZ AUX)
    Blend: AUG-CC-PVTZ-JKFIT

    Orbital Energies [Eh]
    ---------------------

    Doubly Occupied:

       1A    -20.658598     2A    -20.550196     3A    -15.847979
       4A    -11.314727     5A    -11.279513     6A    -11.278800
       7A    -11.276858     8A    -11.268635     9A    -11.268525
      10A     -1.671206    11A     -1.327418    12A     -1.198894
      13A     -1.095802    14A     -1.052677    15A     -0.964678
      16A     -0.866498    17A     -0.843031    18A     -0.793060
      19A     -0.739617    20A     -0.737946    21A     -0.712677
      22A     -0.657481    23A     -0.649709    24A     -0.624985
      25A     -0.559570    26A     -0.540038    27A     -0.535371
      28A     -0.482225    29A     -0.458158    30A     -0.440746
      31A     -0.379024    32A     -0.369577

  @DF-RHF Final Energy:  -434.28943988255372

   => Energetics <=

    Nuclear Repulsion Energy =            411.5470323948015903
    One-Electron Energy =               -1406.7845033968735606
    Two-Electron Energy =                 560.9480311195183049
    Total Energy =                       -434.2894398825536655
  Basis Set: (AUG-CC-PVTZ AUX)
    Blend: AUG-CC-PVTZ-RI
    Molecular point group: c1

    Geometry (in Angstrom), charge = 0, multiplicity = 1:

       Center              X                  Y                   Z               Mass
    ------------   -----------------  -----------------  -----------------  -----------------
         O            2.226378756312     1.117951059471    -0.000129162274    15.994914619570
         O            2.226378756312    -1.082936940529     0.000037837726    15.994914619570
         N            1.641432456312    -0.136311240529    -0.000039862274    14.003074004430
         C            0.177948756312     0.017507059471    -0.000007162274    12.000000000000
         C           -0.488687243688     1.240163059471     0.000043837726    12.000000000000
         C           -0.488687243688    -1.205148940529    -0.000019162274    12.000000000000
         C           -1.883353243688     1.227638059471     0.000071837726    12.000000000000
         C           -1.883353243688    -1.192623940529     0.000005837726    12.000000000000
         C           -2.581875243688     0.017507059471     0.000057837726    12.000000000000
         H            0.077188756312     2.164985059471     0.000049837726     1.007825032230
         H            0.077188756312    -2.129970940529    -0.000055162274     1.007825032230
         H           -2.425288243688     2.169669059471     0.000114837726     1.007825032230
         H           -2.425288243688    -2.134654940529    -0.000004162274     1.007825032230
         H           -3.668831243688     0.017507059471     0.000075837726     1.007825032230

  Basis Set: AUG-CC-PVTZ
    Blend: AUG-CC-PVTZ
  Basis Set: (AUG-CC-PVTZ AUX)
    Blend: AUG-CC-PVTZ-JKFIT
	 Reference Energy          =    -434.2894398825537223 [Eh]
	 Singles Energy            =      -0.0000000000000000 [Eh]
	 Same-Spin Energy          =      -0.4556580617618943 [Eh]
	 Opposite-Spin Energy      =      -1.3533156280174015 [Eh]
	 Correlation Energy        =      -1.8089736897792958 [Eh]
	 Total Energy              =    -436.0984135723330155 [Eh]

	 ================> DF-SCS-MP2 Energies <==================
	-----------------------------------------------------------
	 SCS Same-Spin Scale       =       0.3333333333333333 [-]
	 SCS Opposite-Spin Scale   =       1.2000000000000000 [-]
	 SCS Same-Spin Energy      =      -0.1518860205872981 [Eh]
	 SCS Opposite-Spin Energy  =      -1.6239787536208816 [Eh]
	 SCS Correlation Energy    =      -1.7758647742081797 [Eh]
	 SCS Total Energy          =    -436.0653046567618958 [Eh]
	-----------------------------------------------------------

  Dipole Moment: [D]
     X:    -4.5974      Y:    -1.0122      Z:     0.0002     Total:     4.7075

*** Psi4 exiting successfully. Buy a developer a beer!
