                               Psi4 1.3.2 release

  ==> Input File <==

--------------------------------------------------------------------------
#psi4
#
memory 32 gb

molecule  {
0 1
  O        2.4020675     1.0341148    -0.0001281
  O        2.2902000    -1.1004440     0.0000360
  N        1.7133150     0.0000000    -0.0000370
  C        0.2417700     0.0000000    -0.0000090
  C       -0.4248660     1.2226560     0.0000420
  C       -0.4248660    -1.2226560    -0.0000210
  C       -1.8195320     1.2101310     0.0000700
  C       -1.8195320    -1.2101310     0.0000040
  C       -2.5180540     0.0000000     0.0000560
  H        0.1410100     2.1474780     0.0000480
  H        0.1410100    -2.1474780    -0.0000570
  H       -2.3614670     2.1521620     0.0001130
  H       -2.3614670    -2.1521620    -0.0000060
  H       -3.6050100     0.0000000     0.0000740
units angstrom
no_reorient  #important for SAPT in psi4, default
symmetry c1  #important for SAPT in psi4, default
}

set PROPERTIES_ORIGIN ["COM"]
properties('MP2/aug-cc-pvtz', properties = ['dipole'])
--------------------------------------------------------------------------

    Molecular point group: c1
  Charge       = 0
  Multiplicity = 1
  Basis Set: AUG-CC-PVTZ
    Blend: AUG-CC-PVTZ
  Basis Set: (AUG-CC-PVTZ AUX)
    Blend: AUG-CC-PVTZ-JKFIT

    Orbital Energies [Eh]
    ---------------------

    Doubly Occupied:

       1A    -20.600568     2A    -20.596922     3A    -15.852373
       4A    -11.319998     5A    -11.282801     6A    -11.282101
       7A    -11.279296     8A    -11.271286     9A    -11.271148
      10A     -1.588919    11A     -1.373927    12A     -1.203604
      13A     -1.098640    14A     -1.055934    15A     -0.965617
      16A     -0.869109    17A     -0.829664    18A     -0.776308
      19A     -0.718538    20A     -0.710934    21A     -0.706762
      22A     -0.656885    23A     -0.652918    24A     -0.627849
      25A     -0.559623    26A     -0.540135    27A     -0.535420
      28A     -0.501149    29A     -0.482305    30A     -0.445515
      31A     -0.382106    32A     -0.372674

  @DF-RHF Final Energy:  -434.31990354241611

   => Energetics <=

    Nuclear Repulsion Energy =            410.3241093199775378
    One-Electron Energy =               -1404.4659664137566324
    Two-Electron Energy =                 559.8219535513629808
    Total Energy =                       -434.3199035424161139
  Basis Set: (AUG-CC-PVTZ AUX)
    Blend: AUG-CC-PVTZ-RI
    Molecular point group: c1

    Geometry (in Angstrom), charge = 0, multiplicity = 1:

       Center              X                  Y                   Z               Mass
    ------------   -----------------  -----------------  -----------------  -----------------
         O            2.322785289632     1.042738000841    -0.000127174229    15.994914619570
         O            2.210917789632    -1.091820799159     0.000036925771    15.994914619570
         N            1.634032789632     0.008623200841    -0.000036074229    14.003074004430
         C            0.162487789632     0.008623200841    -0.000008074229    12.000000000000
         C           -0.504148210368     1.231279200841     0.000042925771    12.000000000000
         C           -0.504148210368    -1.214032799159    -0.000020074229    12.000000000000
         C           -1.898814210368     1.218754200841     0.000070925771    12.000000000000
         C           -1.898814210368    -1.201507799159     0.000004925771    12.000000000000
         C           -2.597336210368     0.008623200841     0.000056925771    12.000000000000
         H            0.061727789632     2.156101200841     0.000048925771     1.007825032230
         H            0.061727789632    -2.138854799159    -0.000056074229     1.007825032230
         H           -2.440749210368     2.160785200841     0.000113925771     1.007825032230
         H           -2.440749210368    -2.143538799159    -0.000005074229     1.007825032230
         H           -3.684292210368     0.008623200841     0.000074925771     1.007825032230

  Basis Set: AUG-CC-PVTZ
    Blend: AUG-CC-PVTZ
  Basis Set: (AUG-CC-PVTZ AUX)
    Blend: AUG-CC-PVTZ-JKFIT
	 Reference Energy          =    -434.3199035424161139 [Eh]
	 Singles Energy            =      -0.0000000000000000 [Eh]
	 Same-Spin Energy          =      -0.4583141485235512 [Eh]
	 Opposite-Spin Energy      =      -1.3586818871434829 [Eh]
	 Correlation Energy        =      -1.8169960356670343 [Eh]
	 Total Energy              =    -436.1368995780831597 [Eh]

	 ================> DF-SCS-MP2 Energies <==================
	-----------------------------------------------------------
	 SCS Same-Spin Scale       =       0.3333333333333333 [-]
	 SCS Opposite-Spin Scale   =       1.2000000000000000 [-]
	 SCS Same-Spin Energy      =      -0.1527713828411837 [Eh]
	 SCS Opposite-Spin Energy  =      -1.6304182645721794 [Eh]
	 SCS Correlation Energy    =      -1.7831896474133631 [Eh]
	 SCS Total Energy          =    -436.1030931898294511 [Eh]
	-----------------------------------------------------------

  Dipole Moment: [D]
     X:    -4.7032      Y:     0.0614      Z:     0.0001     Total:     4.7036

*** Psi4 exiting successfully. Buy a developer a beer!
