                               Psi4 1.3.2 release

  ==> Input File <==

--------------------------------------------------------------------------
#psi4
#
memory 32 gb

molecule  {
0 1
  O        2.2902000     1.1004440    -0.0001310
  O        2.2902000    -1.1004440     0.0000360
  N        1.7133150     0.0000000    -0.0000370
  C        0.0417700     0.0000000    -0.0000052
  C       -0.4248660     1.2226560     0.0000420
  C       -0.4248660    -1.2226560    -0.0000210
  C       -1.8195320     1.2101310     0.0000700
  C       -1.8195320    -1.2101310     0.0000040
  C       -2.5180540     0.0000000     0.0000560
  H        0.1410100     2.1474780     0.0000480
  H        0.1410100    -2.1474780    -0.0000570
  H       -2.3614670     2.1521620     0.0001130
  H       -2.3614670    -2.1521620    -0.0000060
  H       -3.6050100     0.0000000     0.0000740
units angstrom
no_reorient  #important for SAPT in psi4, default
symmetry c1  #important for SAPT in psi4, default
}

set PROPERTIES_ORIGIN ["COM"]
properties('MP2/aug-cc-pvtz', properties = ['dipole'])
--------------------------------------------------------------------------

    Molecular point group: c1
  Charge       = 0
  Multiplicity = 1
  Basis Set: AUG-CC-PVTZ
    Blend: AUG-CC-PVTZ
  Basis Set: (AUG-CC-PVTZ AUX)
    Blend: AUG-CC-PVTZ-JKFIT

    Orbital Energies [Eh]
    ---------------------

    Doubly Occupied:

       1A    -20.598518     2A    -20.598467     3A    -15.834386
       4A    -11.320599     5A    -11.274263     6A    -11.274080
       7A    -11.270487     8A    -11.269443     9A    -11.269383
      10A     -1.568470    11A     -1.374888    12A     -1.223787
      13A     -1.073466    14A     -1.072847    15A     -0.930205
      16A     -0.880695    17A     -0.830907    18A     -0.775821
      19A     -0.711015    20A     -0.696170    21A     -0.686481
      22A     -0.679569    23A     -0.654517    24A     -0.635570
      25A     -0.562192    26A     -0.557223    27A     -0.549416
      28A     -0.485865    29A     -0.457803    30A     -0.445436
      31A     -0.388817    32A     -0.377302

  @DF-RHF Final Energy:  -434.28589125799795

   => Energetics <=

    Nuclear Repulsion Energy =            411.4148689686912235
    One-Electron Energy =               -1406.7453500120486751
    Two-Electron Energy =                 561.0445897853594488
    Total Energy =                       -434.2858912579979460
  Basis Set: (AUG-CC-PVTZ AUX)
    Blend: AUG-CC-PVTZ-RI
    Molecular point group: c1

    Geometry (in Angstrom), charge = 0, multiplicity = 1:

       Center              X                  Y                   Z               Mass
    ------------   -----------------  -----------------  -----------------  -----------------
         O            2.244968363012     1.100444000000    -0.000130067847    15.994914619570
         O            2.244968363012    -1.100444000000     0.000036932153    15.994914619570
         N            1.668083363012     0.000000000000    -0.000036067847    14.003074004430
         C           -0.003461636988     0.000000000000    -0.000004267847    12.000000000000
         C           -0.470097636988     1.222656000000     0.000042932153    12.000000000000
         C           -0.470097636988    -1.222656000000    -0.000020067847    12.000000000000
         C           -1.864763636988     1.210131000000     0.000070932153    12.000000000000
         C           -1.864763636988    -1.210131000000     0.000004932153    12.000000000000
         C           -2.563285636988     0.000000000000     0.000056932153    12.000000000000
         H            0.095778363012     2.147478000000     0.000048932153     1.007825032230
         H            0.095778363012    -2.147478000000    -0.000056067847     1.007825032230
         H           -2.406698636988     2.152162000000     0.000113932153     1.007825032230
         H           -2.406698636988    -2.152162000000    -0.000005067847     1.007825032230
         H           -3.650241636988     0.000000000000     0.000074932153     1.007825032230

  Basis Set: AUG-CC-PVTZ
    Blend: AUG-CC-PVTZ
  Basis Set: (AUG-CC-PVTZ AUX)
    Blend: AUG-CC-PVTZ-JKFIT
	 Reference Energy          =    -434.2858912579979460 [Eh]
	 Singles Energy            =      -0.0000000000000000 [Eh]
	 Same-Spin Energy          =      -0.4600783800453730 [Eh]
	 Opposite-Spin Energy      =      -1.3611310174865086 [Eh]
	 Correlation Energy        =      -1.8212093975318817 [Eh]
	 Total Energy              =    -436.1071006555298482 [Eh]

	 ================> DF-SCS-MP2 Energies <==================
	-----------------------------------------------------------
	 SCS Same-Spin Scale       =       0.3333333333333333 [-]
	 SCS Opposite-Spin Scale   =       1.2000000000000000 [-]
	 SCS Same-Spin Energy      =      -0.1533594600151243 [Eh]
	 SCS Opposite-Spin Energy  =      -1.6333572209838103 [Eh]
	 SCS Correlation Energy    =      -1.7867166809989348 [Eh]
	 SCS Total Energy          =    -436.0726079389968959 [Eh]
	-----------------------------------------------------------

  Dipole Moment: [D]
     X:    -4.4571      Y:    -0.0000      Z:     0.0001     Total:     4.4571

*** Psi4 exiting successfully. Buy a developer a beer!
