                               Psi4 1.3.2 release

  ==> Input File <==

--------------------------------------------------------------------------
#psi4
#
memory 32 gb

molecule  {
0 1
  O        2.2902000     1.1004440    -0.0001310
  O        2.2902000    -1.1004440     0.0000360
  N        1.7133150     0.0000000    -0.0000370
  C        0.1417700     0.0000000    -0.0000071
  C       -0.4248660     1.2226560     0.0000420
  C       -0.4248660    -1.2226560    -0.0000210
  C       -1.8195320     1.2101310     0.0000700
  C       -1.8195320    -1.2101310     0.0000040
  C       -2.5180540     0.0000000     0.0000560
  H        0.1410100     2.1474780     0.0000480
  H        0.1410100    -2.1474780    -0.0000570
  H       -2.3614670     2.1521620     0.0001130
  H       -2.3614670    -2.1521620    -0.0000060
  H       -3.6050100     0.0000000     0.0000740
units angstrom
no_reorient  #important for SAPT in psi4, default
symmetry c1  #important for SAPT in psi4, default
}

set PROPERTIES_ORIGIN ["COM"]
properties('MP2/aug-cc-pvtz', properties = ['dipole'])
--------------------------------------------------------------------------

    Molecular point group: c1
  Charge       = 0
  Multiplicity = 1
  Basis Set: AUG-CC-PVTZ
    Blend: AUG-CC-PVTZ
  Basis Set: (AUG-CC-PVTZ AUX)
    Blend: AUG-CC-PVTZ-JKFIT

    Orbital Energies [Eh]
    ---------------------

    Doubly Occupied:

       1A    -20.604579     2A    -20.604529     3A    -15.848913
       4A    -11.316768     5A    -11.272745     6A    -11.272642
       7A    -11.272344     8A    -11.270092     9A    -11.269803
      10A     -1.580227    11A     -1.383386    12A     -1.209685
      13A     -1.080408    14A     -1.061100    15A     -0.947707
      16A     -0.873130    17A     -0.830586    18A     -0.777208
      19A     -0.718795    20A     -0.702126    21A     -0.699222
      22A     -0.665649    23A     -0.652399    24A     -0.631674
      25A     -0.555774    26A     -0.548538    27A     -0.541782
      28A     -0.492297    29A     -0.480136    30A     -0.451058
      31A     -0.383686    32A     -0.372521

  @DF-RHF Final Energy:  -434.31276807533425

   => Energetics <=

    Nuclear Repulsion Energy =            411.1984602968556715
    One-Electron Energy =               -1406.2794384120186351
    Two-Electron Energy =                 560.7682100398286593
    Total Energy =                       -434.3127680753342474
  Basis Set: (AUG-CC-PVTZ AUX)
    Blend: AUG-CC-PVTZ-RI
    Molecular point group: c1

    Geometry (in Angstrom), charge = 0, multiplicity = 1:

       Center              X                  Y                   Z               Mass
    ------------   -----------------  -----------------  -----------------  -----------------
         O            2.235214805214     1.100444000000    -0.000129882529    15.994914619570
         O            2.235214805214    -1.100444000000     0.000037117471    15.994914619570
         N            1.658329805214     0.000000000000    -0.000035882529    14.003074004430
         C            0.086784805214     0.000000000000    -0.000005982529    12.000000000000
         C           -0.479851194786     1.222656000000     0.000043117471    12.000000000000
         C           -0.479851194786    -1.222656000000    -0.000019882529    12.000000000000
         C           -1.874517194786     1.210131000000     0.000071117471    12.000000000000
         C           -1.874517194786    -1.210131000000     0.000005117471    12.000000000000
         C           -2.573039194786     0.000000000000     0.000057117471    12.000000000000
         H            0.086024805214     2.147478000000     0.000049117471     1.007825032230
         H            0.086024805214    -2.147478000000    -0.000055882529     1.007825032230
         H           -2.416452194786     2.152162000000     0.000114117471     1.007825032230
         H           -2.416452194786    -2.152162000000    -0.000004882529     1.007825032230
         H           -3.659995194786     0.000000000000     0.000075117471     1.007825032230

  Basis Set: AUG-CC-PVTZ
    Blend: AUG-CC-PVTZ
  Basis Set: (AUG-CC-PVTZ AUX)
    Blend: AUG-CC-PVTZ-JKFIT
	 Reference Energy          =    -434.3127680753342474 [Eh]
	 Singles Energy            =      -0.0000000000000000 [Eh]
	 Same-Spin Energy          =      -0.4591056259283561 [Eh]
	 Opposite-Spin Energy      =      -1.3597804125299375 [Eh]
	 Correlation Energy        =      -1.8188860384582937 [Eh]
	 Total Energy              =    -436.1316541137925356 [Eh]

	 ================> DF-SCS-MP2 Energies <==================
	-----------------------------------------------------------
	 SCS Same-Spin Scale       =       0.3333333333333333 [-]
	 SCS Opposite-Spin Scale   =       1.2000000000000000 [-]
	 SCS Same-Spin Energy      =      -0.1530352086427854 [Eh]
	 SCS Opposite-Spin Energy  =      -1.6317364950359250 [Eh]
	 SCS Correlation Energy    =      -1.7847717036787103 [Eh]
	 SCS Total Energy          =    -436.0975397790129477 [Eh]
	-----------------------------------------------------------

  Dipole Moment: [D]
     X:    -4.3369      Y:    -0.0000      Z:     0.0001     Total:     4.3369

*** Psi4 exiting successfully. Buy a developer a beer!
