                               Psi4 1.3.2 release

  ==> Input File <==

--------------------------------------------------------------------------
#psi4
#
memory 32 gb

molecule  {
0 1
  O        2.2709067     1.1103444    -0.0001314
  O        2.2902000    -1.1004440     0.0000360
  N        1.7133150     0.0000000    -0.0000370
  C        0.2417700     0.0000000    -0.0000090
  C       -0.4248660     1.2226560     0.0000420
  C       -0.4248660    -1.2226560    -0.0000210
  C       -1.8195320     1.2101310     0.0000700
  C       -1.8195320    -1.2101310     0.0000040
  C       -2.5180540     0.0000000     0.0000560
  H        0.1410100     2.1474780     0.0000480
  H        0.1410100    -2.1474780    -0.0000570
  H       -2.3614670     2.1521620     0.0001130
  H       -2.3614670    -2.1521620    -0.0000060
  H       -3.6050100     0.0000000     0.0000740
units angstrom
no_reorient  #important for SAPT in psi4, default
symmetry c1  #important for SAPT in psi4, default
}

set PROPERTIES_ORIGIN ["COM"]
properties('MP2/aug-cc-pvtz', properties = ['dipole'])
--------------------------------------------------------------------------

    Molecular point group: c1
  Charge       = 0
  Multiplicity = 1
  Basis Set: AUG-CC-PVTZ
    Blend: AUG-CC-PVTZ
  Basis Set: (AUG-CC-PVTZ AUX)
    Blend: AUG-CC-PVTZ-JKFIT

    Orbital Energies [Eh]
    ---------------------

    Doubly Occupied:

       1A    -20.607219     2A    -20.606538     3A    -15.856589
       4A    -11.313840     5A    -11.278331     6A    -11.278200
       7A    -11.275970     8A    -11.268181     9A    -11.268077
      10A     -1.589545    11A     -1.390252    12A     -1.199019
      13A     -1.093172    14A     -1.052522    15A     -0.962555
      16A     -0.865754    17A     -0.830420    18A     -0.778469
      19A     -0.725225    20A     -0.710416    21A     -0.707462
      22A     -0.655603    23A     -0.650444    24A     -0.625246
      25A     -0.555762    26A     -0.536806    27A     -0.532258
      28A     -0.496635    29A     -0.495912    30A     -0.455061
      31A     -0.378389    32A     -0.369544

  @DF-RHF Final Energy:  -434.32263271503433

   => Energetics <=

    Nuclear Repulsion Energy =            411.2838038006325405
    One-Electron Energy =               -1406.3940422540808868
    Two-Electron Energy =                 560.7876057384139585
    Total Energy =                       -434.3226327150343877
  Basis Set: (AUG-CC-PVTZ AUX)
    Blend: AUG-CC-PVTZ-RI
    Molecular point group: c1

    Geometry (in Angstrom), charge = 0, multiplicity = 1:

       Center              X                  Y                   Z               Mass
    ------------   -----------------  -----------------  -----------------  -----------------
         O            2.208676194173     1.109057287573    -0.000130045209    15.994914619570
         O            2.227969494173    -1.101731112427     0.000037354791    15.994914619570
         N            1.651084494173    -0.001287112427    -0.000035645209    14.003074004430
         C            0.179539494173    -0.001287112427    -0.000007645209    12.000000000000
         C           -0.487096505827     1.221368887573     0.000043354791    12.000000000000
         C           -0.487096505827    -1.223943112427    -0.000019645209    12.000000000000
         C           -1.881762505827     1.208843887573     0.000071354791    12.000000000000
         C           -1.881762505827    -1.211418112427     0.000005354791    12.000000000000
         C           -2.580284505827    -0.001287112427     0.000057354791    12.000000000000
         H            0.078779494173     2.146190887573     0.000049354791     1.007825032230
         H            0.078779494173    -2.148765112427    -0.000055645209     1.007825032230
         H           -2.423697505827     2.150874887573     0.000114354791     1.007825032230
         H           -2.423697505827    -2.153449112427    -0.000004645209     1.007825032230
         H           -3.667240505827    -0.001287112427     0.000075354791     1.007825032230

  Basis Set: AUG-CC-PVTZ
    Blend: AUG-CC-PVTZ
  Basis Set: (AUG-CC-PVTZ AUX)
    Blend: AUG-CC-PVTZ-JKFIT
	 Reference Energy          =    -434.3226327150343309 [Eh]
	 Singles Energy            =      -0.0000000000000000 [Eh]
	 Same-Spin Energy          =      -0.4587826891427961 [Eh]
	 Opposite-Spin Energy      =      -1.3592160271924474 [Eh]
	 Correlation Energy        =      -1.8179987163352433 [Eh]
	 Total Energy              =    -436.1406314313695702 [Eh]

	 ================> DF-SCS-MP2 Energies <==================
	-----------------------------------------------------------
	 SCS Same-Spin Scale       =       0.3333333333333333 [-]
	 SCS Opposite-Spin Scale   =       1.2000000000000000 [-]
	 SCS Same-Spin Energy      =      -0.1529275630475987 [Eh]
	 SCS Opposite-Spin Energy  =      -1.6310592326309368 [Eh]
	 SCS Correlation Energy    =      -1.7839867956785356 [Eh]
	 SCS Total Energy          =    -436.1066195107128465 [Eh]
	-----------------------------------------------------------

  Dipole Moment: [D]
     X:    -4.2997      Y:    -0.0087      Z:     0.0001     Total:     4.2997

*** Psi4 exiting successfully. Buy a developer a beer!
