                               Psi4 1.4a3.dev225

  ==> Input File <==

--------------------------------------------------------------------------
#psi4
#
memory 32 gb

molecule  {
0 1
  O       -2.2901490    -1.1004130    -0.0001240
  O       -2.2901490     1.1004130     0.0000270
  N       -1.6900372     0.0442835    -0.0000335
  C       -0.2417770     0.0000000    -0.0000070
  C        0.4248140    -1.2226400     0.0000400
  C        0.4248130     1.2226400    -0.0000210
  C        1.8194850    -1.2101500     0.0000690
  C        1.8194850     1.2101500     0.0000060
  C        2.5180320     0.0000000     0.0000550
  H       -0.1409150    -2.1475320     0.0000470
  H       -0.1409150     2.1475320    -0.0000550
  H        2.3614300    -2.1521540     0.0001090
  H        2.3614300     2.1521540    -0.0000060
  H        3.6050090     0.0000000     0.0000760
units angstrom
no_reorient  #important for SAPT in psi4, default
symmetry c1  #important for SAPT in psi4, default
}

set PROPERTIES_ORIGIN ["COM"]
properties('MP2/aug-cc-pvtz', properties = ['dipole'])
--------------------------------------------------------------------------

    Molecular point group: c1
  Charge       = 0
  Multiplicity = 1
  Basis Set: AUG-CC-PVTZ
    Blend: AUG-CC-PVTZ
  Basis Set: (AUG-CC-PVTZ AUX)
    Blend: AUG-CC-PVTZ-JKFIT

    Orbital Energies [Eh]
    ---------------------

    Doubly Occupied:

       1A    -20.620471     2A    -20.587732     3A    -15.854067
       4A    -11.314595     5A    -11.280696     6A    -11.280480
       7A    -11.278472     8A    -11.269621     9A    -11.269528
      10A     -1.589208    11A     -1.370746    12A     -1.202628
      13A     -1.100293    14A     -1.054349    15A     -0.967227
      16A     -0.867925    17A     -0.830631    18A     -0.778627
      19A     -0.722052    20A     -0.708992    21A     -0.707653
      22A     -0.655145    23A     -0.651469    24A     -0.626718
      25A     -0.557400    26A     -0.538026    27A     -0.534341
      28A     -0.500479    29A     -0.485322    30A     -0.448934
      31A     -0.380159    32A     -0.371109

  @DF-RHF Final Energy:  -434.31722437221401

   => Energetics <=

    Nuclear Repulsion Energy =            411.2604447853556167
    One-Electron Energy =               -1406.3451434885489562
    Two-Electron Energy =                 560.7674743309793257
    Total Energy =                       -434.3172243722140138
  Basis Set: (AUG-CC-PVTZ AUX)
    Blend: AUG-CC-PVTZ-RI
    Molecular point group: c1

    Geometry (in Angstrom), charge = 0, multiplicity = 1:

       Center              X                  Y                   Z               Mass
    ------------   -----------------  -----------------  -----------------  -----------------
         O           -2.228051609519    -1.105453192669    -0.000122827365    15.994914619570
         O           -2.228051609519     1.095372807331     0.000028172635    15.994914619570
         N           -1.627939809519     0.039243307331    -0.000032327365    14.003074004430
         C           -0.179679609519    -0.005040192669    -0.000005827365    12.000000000000
         C            0.486911390481    -1.227680192669     0.000041172635    12.000000000000
         C            0.486910390481     1.217599807331    -0.000019827365    12.000000000000
         C            1.881582390481    -1.215190192669     0.000070172635    12.000000000000
         C            1.881582390481     1.205109807331     0.000007172635    12.000000000000
         C            2.580129390481    -0.005040192669     0.000056172635    12.000000000000
         H           -0.078817609519    -2.152572192669     0.000048172635     1.007825032230
         H           -0.078817609519     2.142491807331    -0.000053827365     1.007825032230
         H            2.423527390481    -2.157194192669     0.000110172635     1.007825032230
         H            2.423527390481     2.147113807331    -0.000004827365     1.007825032230
         H            3.667106390481    -0.005040192669     0.000077172635     1.007825032230

  Basis Set: AUG-CC-PVTZ
    Blend: AUG-CC-PVTZ
  Basis Set: (AUG-CC-PVTZ AUX)
    Blend: AUG-CC-PVTZ-JKFIT
	 Reference Energy          =    -434.3172243722140138 [Eh]
	 Singles Energy            =      -0.0000000000000000 [Eh]
	 Same-Spin Energy          =      -0.4590460424230072 [Eh]
	 Opposite-Spin Energy      =      -1.3599134474526022 [Eh]
	 Correlation Energy        =      -1.8189594898756094 [Eh]
	 Total Energy              =    -436.1361838620896378 [Eh]

	 ================> DF-SCS-MP2 Energies <==================
	-----------------------------------------------------------
	 SCS Same-Spin Scale       =       0.3333333333333333 [-]
	 SCS Opposite-Spin Scale   =       1.2000000000000000 [-]
	 SCS Same-Spin Energy      =      -0.1530153474743357 [Eh]
	 SCS Opposite-Spin Energy  =      -1.6318961369431226 [Eh]
	 SCS Correlation Energy    =      -1.7849114844174583 [Eh]
	 SCS Total Energy          =    -436.1021358566314916 [Eh]
	-----------------------------------------------------------

  Dipole Moment: [D]
     X:     4.5275      Y:     0.2056      Z:     0.0001     Total:     4.5322

*** Psi4 exiting successfully. Buy a developer a beer!
