                               Psi4 1.3.2 release

  ==> Input File <==

--------------------------------------------------------------------------
#psi4
#
memory 32 gb

molecule  {
0 1
  O        2.2902000     1.1004440    -0.0001310
  O        2.2902000    -1.1004440     0.0000360
  N        1.8061747     0.1771357    -0.0000521
  C        0.2417700     0.0000000    -0.0000090
  C       -0.4248660     1.2226560     0.0000420
  C       -0.4248660    -1.2226560    -0.0000210
  C       -1.8195320     1.2101310     0.0000700
  C       -1.8195320    -1.2101310     0.0000040
  C       -2.5180540     0.0000000     0.0000560
  H        0.1410100     2.1474780     0.0000480
  H        0.1410100    -2.1474780    -0.0000570
  H       -2.3614670     2.1521620     0.0001130
  H       -2.3614670    -2.1521620    -0.0000060
  H       -3.6050100     0.0000000     0.0000740
units angstrom
no_reorient  #important for SAPT in psi4, default
symmetry c1  #important for SAPT in psi4, default
}

set PROPERTIES_ORIGIN ["COM"]
properties('MP2/aug-cc-pvtz', properties = ['dipole'])
--------------------------------------------------------------------------

    Molecular point group: c1
  Charge       = 0
  Multiplicity = 1
  Basis Set: AUG-CC-PVTZ
    Blend: AUG-CC-PVTZ
  Basis Set: (AUG-CC-PVTZ AUX)
    Blend: AUG-CC-PVTZ-JKFIT

    Orbital Energies [Eh]
    ---------------------

    Doubly Occupied:

       1A    -20.675223     2A    -20.547557     3A    -15.850314
       4A    -11.310512     5A    -11.271754     6A    -11.271321
       7A    -11.268651     8A    -11.264219     9A    -11.263545
      10A     -1.752957    11A     -1.342570    12A     -1.187880
      13A     -1.072480    14A     -1.046169    15A     -0.948707
      16A     -0.864750    17A     -0.854953    18A     -0.801378
      19A     -0.784610    20A     -0.758763    21A     -0.710674
      22A     -0.653729    23A     -0.646299    24A     -0.619266
      25A     -0.558066    26A     -0.536022    27A     -0.528636
      28A     -0.479321    29A     -0.449034    30A     -0.443543
      31A     -0.372552    32A     -0.364146

  @DF-RHF Final Energy:  -434.25868554424875

   => Energetics <=

    Nuclear Repulsion Energy =            411.4747667222673613
    One-Electron Energy =               -1406.4677036140419659
    Two-Electron Energy =                 560.7342513475258556
    Total Energy =                       -434.2586855442488059
  Basis Set: (AUG-CC-PVTZ AUX)
    Blend: AUG-CC-PVTZ-RI
    Molecular point group: c1

    Geometry (in Angstrom), charge = 0, multiplicity = 1:

       Center              X                  Y                   Z               Mass
    ------------   -----------------  -----------------  -----------------  -----------------
         O            2.214892282018     1.080283035834    -0.000127978582    15.994914619570
         O            2.214892282018    -1.120604964166     0.000039021418    15.994914619570
         N            1.730866982018     0.156974735834    -0.000049078582    14.003074004430
         C            0.166462282018    -0.020160964166    -0.000005978582    12.000000000000
         C           -0.500173717982     1.202495035834     0.000045021418    12.000000000000
         C           -0.500173717982    -1.242816964166    -0.000017978582    12.000000000000
         C           -1.894839717982     1.189970035834     0.000073021418    12.000000000000
         C           -1.894839717982    -1.230291964166     0.000007021418    12.000000000000
         C           -2.593361717982    -0.020160964166     0.000059021418    12.000000000000
         H            0.065702282018     2.127317035834     0.000051021418     1.007825032230
         H            0.065702282018    -2.167638964166    -0.000053978582     1.007825032230
         H           -2.436774717982     2.132001035834     0.000116021418     1.007825032230
         H           -2.436774717982    -2.172322964166    -0.000002978582     1.007825032230
         H           -3.680317717982    -0.020160964166     0.000077021418     1.007825032230

  Basis Set: AUG-CC-PVTZ
    Blend: AUG-CC-PVTZ
  Basis Set: (AUG-CC-PVTZ AUX)
    Blend: AUG-CC-PVTZ-JKFIT
	 Reference Energy          =    -434.2586855442487490 [Eh]
	 Singles Energy            =      -0.0000000000000000 [Eh]
	 Same-Spin Energy          =      -0.4532296671378180 [Eh]
	 Opposite-Spin Energy      =      -1.3475038272382511 [Eh]
	 Correlation Energy        =      -1.8007334943760691 [Eh]
	 Total Energy              =    -436.0594190386248101 [Eh]

	 ================> DF-SCS-MP2 Energies <==================
	-----------------------------------------------------------
	 SCS Same-Spin Scale       =       0.3333333333333333 [-]
	 SCS Opposite-Spin Scale   =       1.2000000000000000 [-]
	 SCS Same-Spin Energy      =      -0.1510765557126060 [Eh]
	 SCS Opposite-Spin Energy  =      -1.6170045926859014 [Eh]
	 SCS Correlation Energy    =      -1.7680811483985073 [Eh]
	 SCS Total Energy          =    -436.0267666926472430 [Eh]
	-----------------------------------------------------------

  Dipole Moment: [D]
     X:    -3.7839      Y:     1.4040      Z:    -0.0000     Total:     4.0359

*** Psi4 exiting successfully. Buy a developer a beer!
