                               Psi4 1.3.2 release

  ==> Input File <==

--------------------------------------------------------------------------
#psi4
#
memory 32 gb

molecule  {
0 1
  O        2.2902000     1.1004440    -0.0001310
  O        2.2902000    -1.1004440     0.0000360
  N        1.7133150     0.0000000    -0.0000370
  C        0.3417700     0.0000000    -0.0000109
  C       -0.4248660     1.2226560     0.0000420
  C       -0.4248660    -1.2226560    -0.0000210
  C       -1.8195320     1.2101310     0.0000700
  C       -1.8195320    -1.2101310     0.0000040
  C       -2.5180540     0.0000000     0.0000560
  H        0.1410100     2.1474780     0.0000480
  H        0.1410100    -2.1474780    -0.0000570
  H       -2.3614670     2.1521620     0.0001130
  H       -2.3614670    -2.1521620    -0.0000060
  H       -3.6050100     0.0000000     0.0000740
units angstrom
no_reorient  #important for SAPT in psi4, default
symmetry c1  #important for SAPT in psi4, default
}

set PROPERTIES_ORIGIN ["COM"]
properties('MP2/aug-cc-pvtz', properties = ['dipole'])
--------------------------------------------------------------------------

    Molecular point group: c1
  Charge       = 0
  Multiplicity = 1
  Basis Set: AUG-CC-PVTZ
    Blend: AUG-CC-PVTZ
  Basis Set: (AUG-CC-PVTZ AUX)
    Blend: AUG-CC-PVTZ-JKFIT

    Orbital Energies [Eh]
    ---------------------

    Doubly Occupied:

       1A    -20.601213     2A    -20.601164     3A    -15.854837
       4A    -11.313266     5A    -11.288533     6A    -11.288498
       7A    -11.283751     8A    -11.269283     9A    -11.269222
      10A     -1.596107    11A     -1.388147    12A     -1.195067
      13A     -1.114093    14A     -1.049155    15A     -0.974342
      16A     -0.860788    17A     -0.828711    18A     -0.778041
      19A     -0.726717    20A     -0.718747    21A     -0.714428
      22A     -0.650632    23A     -0.649736    24A     -0.619099
      25A     -0.559896    26A     -0.528875    27A     -0.521495
      28A     -0.505323    29A     -0.492240    30A     -0.453214
      31A     -0.374508    32A     -0.369966

  @DF-RHF Final Energy:  -434.31156283044703

   => Energetics <=

    Nuclear Repulsion Energy =            411.2520111765146567
    One-Electron Energy =               -1406.2489600283493019
    Two-Electron Energy =                 560.6853860213875578
    Total Energy =                       -434.3115628304470874
  Basis Set: (AUG-CC-PVTZ AUX)
    Blend: AUG-CC-PVTZ-RI
    Molecular point group: c1

    Geometry (in Angstrom), charge = 0, multiplicity = 1:

       Center              X                  Y                   Z               Mass
    ------------   -----------------  -----------------  -----------------  -----------------
         O            2.215707689619     1.100444000000    -0.000129511894    15.994914619570
         O            2.215707689619    -1.100444000000     0.000037488106    15.994914619570
         N            1.638822689619     0.000000000000    -0.000035511894    14.003074004430
         C            0.267277689619     0.000000000000    -0.000009411894    12.000000000000
         C           -0.499358310381     1.222656000000     0.000043488106    12.000000000000
         C           -0.499358310381    -1.222656000000    -0.000019511894    12.000000000000
         C           -1.894024310381     1.210131000000     0.000071488106    12.000000000000
         C           -1.894024310381    -1.210131000000     0.000005488106    12.000000000000
         C           -2.592546310381     0.000000000000     0.000057488106    12.000000000000
         H            0.066517689619     2.147478000000     0.000049488106     1.007825032230
         H            0.066517689619    -2.147478000000    -0.000055511894     1.007825032230
         H           -2.435959310381     2.152162000000     0.000114488106     1.007825032230
         H           -2.435959310381    -2.152162000000    -0.000004511894     1.007825032230
         H           -3.679502310381     0.000000000000     0.000075488106     1.007825032230

  Basis Set: AUG-CC-PVTZ
    Blend: AUG-CC-PVTZ
  Basis Set: (AUG-CC-PVTZ AUX)
    Blend: AUG-CC-PVTZ-JKFIT
	 Reference Energy          =    -434.3115628304470306 [Eh]
	 Singles Energy            =      -0.0000000000000000 [Eh]
	 Same-Spin Energy          =      -0.4589273261598938 [Eh]
	 Opposite-Spin Energy      =      -1.3592962515502134 [Eh]
	 Correlation Energy        =      -1.8182235777101072 [Eh]
	 Total Energy              =    -436.1297864081571447 [Eh]

	 ================> DF-SCS-MP2 Energies <==================
	-----------------------------------------------------------
	 SCS Same-Spin Scale       =       0.3333333333333333 [-]
	 SCS Opposite-Spin Scale   =       1.2000000000000000 [-]
	 SCS Same-Spin Energy      =      -0.1529757753866313 [Eh]
	 SCS Opposite-Spin Energy  =      -1.6311555018602559 [Eh]
	 SCS Correlation Energy    =      -1.7841312772468871 [Eh]
	 SCS Total Energy          =    -436.0956941076939302 [Eh]
	-----------------------------------------------------------

  Dipole Moment: [D]
     X:    -4.4974      Y:    -0.0000      Z:     0.0001     Total:     4.4974

*** Psi4 exiting successfully. Buy a developer a beer!
