                               Psi4 1.4a3.dev225

  ==> Input File <==

--------------------------------------------------------------------------
#psi4
#
memory 32 gb

molecule  {
0 1
  O       -2.2901490    -1.1004130    -0.0001240
  O       -2.2901490     1.1004130     0.0000270
  N       -1.7039667     0.0177134    -0.0000356
  C       -0.2417770     0.0000000    -0.0000070
  C        0.4248140    -1.2226400     0.0000400
  C        0.4248130     1.2226400    -0.0000210
  C        1.8194850    -1.2101500     0.0000690
  C        1.8194850     1.2101500     0.0000060
  C        2.5180320     0.0000000     0.0000550
  H       -0.1409150    -2.1475320     0.0000470
  H       -0.1409150     2.1475320    -0.0000550
  H        2.3614300    -2.1521540     0.0001090
  H        2.3614300     2.1521540    -0.0000060
  H        3.6050090     0.0000000     0.0000760
units angstrom
no_reorient  #important for SAPT in psi4, default
symmetry c1  #important for SAPT in psi4, default
}

set PROPERTIES_ORIGIN ["COM"]
properties('MP2/aug-cc-pvtz', properties = ['dipole'])
--------------------------------------------------------------------------

    Molecular point group: c1
  Charge       = 0
  Multiplicity = 1
  Basis Set: AUG-CC-PVTZ
    Blend: AUG-CC-PVTZ
  Basis Set: (AUG-CC-PVTZ AUX)
    Blend: AUG-CC-PVTZ-JKFIT

    Orbital Energies [Eh]
    ---------------------

    Doubly Occupied:

       1A    -20.611736     2A    -20.598538     3A    -15.855432
       4A    -11.314695     5A    -11.279607     6A    -11.279528
       7A    -11.277264     8A    -11.269038     9A    -11.268940
      10A     -1.587367    11A     -1.382532    12A     -1.200894
      13A     -1.096509    14A     -1.053571    15A     -0.964704
      16A     -0.866921    17A     -0.830207    18A     -0.777967
      19A     -0.723020    20A     -0.708378    21A     -0.708370
      22A     -0.655550    23A     -0.651126    24A     -0.626080
      25A     -0.556648    26A     -0.537531    27A     -0.533269
      28A     -0.498758    29A     -0.491708    30A     -0.452052
      31A     -0.379443    32A     -0.370465

  @DF-RHF Final Energy:  -434.32136115470854

   => Energetics <=

    Nuclear Repulsion Energy =            411.1757316248315419
    One-Electron Energy =               -1406.1784901550288396
    Two-Electron Energy =                 560.6813973754887002
    Total Energy =                       -434.3213611547085975
  Basis Set: (AUG-CC-PVTZ AUX)
    Blend: AUG-CC-PVTZ-RI
    Molecular point group: c1

    Geometry (in Angstrom), charge = 0, multiplicity = 1:

       Center              X                  Y                   Z               Mass
    ------------   -----------------  -----------------  -----------------  -----------------
         O           -2.226466202679    -1.102429077068    -0.000122588351    15.994914619570
         O           -2.226466202679     1.098396922932     0.000028411649    15.994914619570
         N           -1.640283902679     0.015697322932    -0.000034188351    14.003074004430
         C           -0.178094202679    -0.002016077068    -0.000005588351    12.000000000000
         C            0.488496797321    -1.224656077068     0.000041411649    12.000000000000
         C            0.488495797321     1.220623922932    -0.000019588351    12.000000000000
         C            1.883167797321    -1.212166077068     0.000070411649    12.000000000000
         C            1.883167797321     1.208133922932     0.000007411649    12.000000000000
         C            2.581714797321    -0.002016077068     0.000056411649    12.000000000000
         H           -0.077232202679    -2.149548077068     0.000048411649     1.007825032230
         H           -0.077232202679     2.145515922932    -0.000053588351     1.007825032230
         H            2.425112797321    -2.154170077068     0.000110411649     1.007825032230
         H            2.425112797321     2.150137922932    -0.000004588351     1.007825032230
         H            3.668691797321    -0.002016077068     0.000077411649     1.007825032230

  Basis Set: AUG-CC-PVTZ
    Blend: AUG-CC-PVTZ
  Basis Set: (AUG-CC-PVTZ AUX)
    Blend: AUG-CC-PVTZ-JKFIT
	 Reference Energy          =    -434.3213611547085407 [Eh]
	 Singles Energy            =      -0.0000000000000000 [Eh]
	 Same-Spin Energy          =      -0.4589069245698683 [Eh]
	 Opposite-Spin Energy      =      -1.3595655728067062 [Eh]
	 Correlation Energy        =      -1.8184724973765745 [Eh]
	 Total Energy              =    -436.1398336520850876 [Eh]

	 ================> DF-SCS-MP2 Energies <==================
	-----------------------------------------------------------
	 SCS Same-Spin Scale       =       0.3333333333333333 [-]
	 SCS Opposite-Spin Scale   =       1.2000000000000000 [-]
	 SCS Same-Spin Energy      =      -0.1529689748566228 [Eh]
	 SCS Opposite-Spin Energy  =      -1.6314786873680474 [Eh]
	 SCS Correlation Energy    =      -1.7844476622246701 [Eh]
	 SCS Total Energy          =    -436.1058088169332336 [Eh]
	-----------------------------------------------------------

  Dipole Moment: [D]
     X:     4.4229      Y:     0.0822      Z:     0.0001     Total:     4.4236

*** Psi4 exiting successfully. Buy a developer a beer!
