                               Psi4 1.4a3.dev225

  ==> Input File <==

--------------------------------------------------------------------------
#psi4
#
memory 32 gb

molecule  {
0 1
  O       -2.2901490    -1.1004130    -0.0001240
  O       -2.2901490     1.1004130     0.0000270
  N       -1.7132530     0.0000000    -0.0000370
  C       -0.2917770     0.0000000    -0.0000080
  C        0.4248140    -1.2226400     0.0000400
  C        0.4248130     1.2226400    -0.0000210
  C        1.8194850    -1.2101500     0.0000690
  C        1.8194850     1.2101500     0.0000060
  C        2.5180320     0.0000000     0.0000550
  H       -0.1409150    -2.1475320     0.0000470
  H       -0.1409150     2.1475320    -0.0000550
  H        2.3614300    -2.1521540     0.0001090
  H        2.3614300     2.1521540    -0.0000060
  H        3.6050090     0.0000000     0.0000760
units angstrom
no_reorient  #important for SAPT in psi4, default
symmetry c1  #important for SAPT in psi4, default
}

set PROPERTIES_ORIGIN ["COM"]
properties('MP2/aug-cc-pvtz', properties = ['dipole'])
--------------------------------------------------------------------------

    Molecular point group: c1
  Charge       = 0
  Multiplicity = 1
  Basis Set: AUG-CC-PVTZ
    Blend: AUG-CC-PVTZ
  Basis Set: (AUG-CC-PVTZ AUX)
    Blend: AUG-CC-PVTZ-JKFIT

    Orbital Energies [Eh]
    ---------------------

    Doubly Occupied:

       1A    -20.604305     2A    -20.604256     3A    -15.856534
       4A    -11.313996     5A    -11.283326     6A    -11.283291
       7A    -11.279672     8A    -11.268684     9A    -11.268608
      10A     -1.593058    11A     -1.388695    12A     -1.196624
      13A     -1.103332    14A     -1.050579    15A     -0.969203
      16A     -0.863292    17A     -0.829723    18A     -0.778337
      19A     -0.725897    20A     -0.714526    21A     -0.711108
      22A     -0.652711    23A     -0.650237    24A     -0.622224
      25A     -0.557661    26A     -0.532712    27A     -0.527403
      28A     -0.502143    29A     -0.494269    30A     -0.453891
      31A     -0.376696    32A     -0.369669

  @DF-RHF Final Energy:  -434.32026766931426

   => Energetics <=

    Nuclear Repulsion Energy =            411.1667322158752995
    One-Electron Energy =               -1406.1206764007774837
    Two-Electron Energy =                 560.6336765155879220
    Total Energy =                       -434.3202676693142621
  Basis Set: (AUG-CC-PVTZ AUX)
    Blend: AUG-CC-PVTZ-RI
    Molecular point group: c1

    Geometry (in Angstrom), charge = 0, multiplicity = 1:

       Center              X                  Y                   Z               Mass
    ------------   -----------------  -----------------  -----------------  -----------------
         O           -2.220532489681    -1.100413000000    -0.000122331472    15.994914619570
         O           -2.220532489681     1.100413000000     0.000028668528    15.994914619570
         N           -1.643636489681    -0.000000000000    -0.000035331472    14.003074004430
         C           -0.222160489681    -0.000000000000    -0.000006331472    12.000000000000
         C            0.494430510319    -1.222640000000     0.000041668528    12.000000000000
         C            0.494429510319     1.222640000000    -0.000019331472    12.000000000000
         C            1.889101510319    -1.210150000000     0.000070668528    12.000000000000
         C            1.889101510319     1.210150000000     0.000007668528    12.000000000000
         C            2.587648510319    -0.000000000000     0.000056668528    12.000000000000
         H           -0.071298489681    -2.147532000000     0.000048668528     1.007825032230
         H           -0.071298489681     2.147532000000    -0.000053331472     1.007825032230
         H            2.431046510319    -2.152154000000     0.000110668528     1.007825032230
         H            2.431046510319     2.152154000000    -0.000004331472     1.007825032230
         H            3.674625510319    -0.000000000000     0.000077668528     1.007825032230

  Basis Set: AUG-CC-PVTZ
    Blend: AUG-CC-PVTZ
  Basis Set: (AUG-CC-PVTZ AUX)
    Blend: AUG-CC-PVTZ-JKFIT
	 Reference Energy          =    -434.3202676693142621 [Eh]
	 Singles Energy            =      -0.0000000000000000 [Eh]
	 Same-Spin Energy          =      -0.4587387521602897 [Eh]
	 Opposite-Spin Energy      =      -1.3590939295306836 [Eh]
	 Correlation Energy        =      -1.8178326816909733 [Eh]
	 Total Energy              =    -436.1381003510052210 [Eh]

	 ================> DF-SCS-MP2 Energies <==================
	-----------------------------------------------------------
	 SCS Same-Spin Scale       =       0.3333333333333333 [-]
	 SCS Opposite-Spin Scale   =       1.2000000000000000 [-]
	 SCS Same-Spin Energy      =      -0.1529129173867632 [Eh]
	 SCS Opposite-Spin Energy  =      -1.6309127154368204 [Eh]
	 SCS Correlation Energy    =      -1.7838256328235835 [Eh]
	 SCS Total Energy          =    -436.1040933021378692 [Eh]
	-----------------------------------------------------------

  Dipole Moment: [D]
     X:     4.4170      Y:     0.0000      Z:     0.0001     Total:     4.4170

*** Psi4 exiting successfully. Buy a developer a beer!
