                               Psi4 1.3.2 release

  ==> Input File <==

--------------------------------------------------------------------------
#psi4
#
memory 32 gb

molecule  {
0 1
  O        2.3282535     1.0796406    -0.0001302
  O        2.2902000    -1.1004440     0.0000360
  N        1.7133150     0.0000000    -0.0000370
  C        0.2417700     0.0000000    -0.0000090
  C       -0.4248660     1.2226560     0.0000420
  C       -0.4248660    -1.2226560    -0.0000210
  C       -1.8195320     1.2101310     0.0000700
  C       -1.8195320    -1.2101310     0.0000040
  C       -2.5180540     0.0000000     0.0000560
  H        0.1410100     2.1474780     0.0000480
  H        0.1410100    -2.1474780    -0.0000570
  H       -2.3614670     2.1521620     0.0001130
  H       -2.3614670    -2.1521620    -0.0000060
  H       -3.6050100     0.0000000     0.0000740
units angstrom
no_reorient  #important for SAPT in psi4, default
symmetry c1  #important for SAPT in psi4, default
}

set PROPERTIES_ORIGIN ["COM"]
properties('MP2/aug-cc-pvtz', properties = ['dipole'])
--------------------------------------------------------------------------

    Molecular point group: c1
  Charge       = 0
  Multiplicity = 1
  Basis Set: AUG-CC-PVTZ
    Blend: AUG-CC-PVTZ
  Basis Set: (AUG-CC-PVTZ AUX)
    Blend: AUG-CC-PVTZ-JKFIT

    Orbital Energies [Eh]
    ---------------------

    Doubly Occupied:

       1A    -20.604160     2A    -20.602863     3A    -15.854856
       4A    -11.316505     5A    -11.280252     6A    -11.280006
       7A    -11.277447     8A    -11.269555     9A    -11.269448
      10A     -1.589123    11A     -1.383429    12A     -1.201048
      13A     -1.095591    14A     -1.054033    15A     -0.963840
      16A     -0.867223    17A     -0.830016    18A     -0.777640
      19A     -0.722354    20A     -0.709063    21A     -0.708818
      22A     -0.656172    23A     -0.651582    24A     -0.626375
      25A     -0.557467    26A     -0.538278    27A     -0.533649
      28A     -0.498217    29A     -0.490934    30A     -0.451038
      31A     -0.380045    32A     -0.370940

  @DF-RHF Final Energy:  -434.32280287762256

   => Energetics <=

    Nuclear Repulsion Energy =            410.8318016664846937
    One-Electron Energy =               -1405.4852710721602307
    Two-Electron Energy =                 560.3306665280530297
    Total Energy =                       -434.3228028776225074
  Basis Set: (AUG-CC-PVTZ AUX)
    Blend: AUG-CC-PVTZ-RI
    Molecular point group: c1

    Geometry (in Angstrom), charge = 0, multiplicity = 1:

       Center              X                  Y                   Z               Mass
    ------------   -----------------  -----------------  -----------------  -----------------
         O            2.258567560157     1.082345168974    -0.000129001216    15.994914619570
         O            2.220514060157    -1.097739431026     0.000037198784    15.994914619570
         N            1.643629060157     0.002704568974    -0.000035801216    14.003074004430
         C            0.172084060157     0.002704568974    -0.000007801216    12.000000000000
         C           -0.494551939843     1.225360568974     0.000043198784    12.000000000000
         C           -0.494551939843    -1.219951431026    -0.000019801216    12.000000000000
         C           -1.889217939843     1.212835568974     0.000071198784    12.000000000000
         C           -1.889217939843    -1.207426431026     0.000005198784    12.000000000000
         C           -2.587739939843     0.002704568974     0.000057198784    12.000000000000
         H            0.071324060157     2.150182568974     0.000049198784     1.007825032230
         H            0.071324060157    -2.144773431026    -0.000055801216     1.007825032230
         H           -2.431152939843     2.154866568974     0.000114198784     1.007825032230
         H           -2.431152939843    -2.149457431026    -0.000004801216     1.007825032230
         H           -3.674695939843     0.002704568974     0.000075198784     1.007825032230

  Basis Set: AUG-CC-PVTZ
    Blend: AUG-CC-PVTZ
  Basis Set: (AUG-CC-PVTZ AUX)
    Blend: AUG-CC-PVTZ-JKFIT
	 Reference Energy          =    -434.3228028776225642 [Eh]
	 Singles Energy            =      -0.0000000000000000 [Eh]
	 Same-Spin Energy          =      -0.4585485629777288 [Eh]
	 Opposite-Spin Energy      =      -1.3589135193709105 [Eh]
	 Correlation Energy        =      -1.8174620823486394 [Eh]
	 Total Energy              =    -436.1402649599712049 [Eh]

	 ================> DF-SCS-MP2 Energies <==================
	-----------------------------------------------------------
	 SCS Same-Spin Scale       =       0.3333333333333333 [-]
	 SCS Opposite-Spin Scale   =       1.2000000000000000 [-]
	 SCS Same-Spin Energy      =      -0.1528495209925763 [Eh]
	 SCS Opposite-Spin Energy  =      -1.6306962232450926 [Eh]
	 SCS Correlation Energy    =      -1.7835457442376688 [Eh]
	 SCS Total Energy          =    -436.1063486218602065 [Eh]
	-----------------------------------------------------------

  Dipole Moment: [D]
     X:    -4.4772      Y:     0.0187      Z:     0.0001     Total:     4.4772

*** Psi4 exiting successfully. Buy a developer a beer!
