                               Psi4 1.3.2 release

  ==> Input File <==

--------------------------------------------------------------------------
#psi4
#
memory 32 gb

molecule  {
0 1
  O       -0.8024720     1.2871770    -0.2968200
  N        0.3743340    -0.6973860    -0.1281030
  N       -1.9396050    -0.6940620     0.0132050
  C        1.6229659    -0.0903798    -0.4898660
  C        2.3001670     0.7476450     0.5591710
  C        2.8599170    -0.5791270     0.1240600
  C       -0.7916110     0.0679730    -0.1462250
  C       -3.1892790     0.0185180     0.2391280
  H        1.6584990     0.3313320    -1.5170780
  H        1.8133820     0.7968280     1.5261570
  H        2.8068830     1.6562200     0.2533550
  H        3.7595130    -0.5939570    -0.4821470
  H        2.7562930    -1.4149420     0.8077760
  H        0.2670080    -1.6424170    -0.4848710
  H       -1.8163630    -1.5386920     0.5601430
  H       -3.2269270     0.5129170     1.2166470
  H       -4.0142600    -0.6916670     0.1589620
  H       -3.2950640     0.7803290    -0.5317260
units angstrom
no_reorient  #important for SAPT in psi4, default
symmetry c1  #important for SAPT in psi4, default
}

set PROPERTIES_ORIGIN ["COM"]
properties('MP2/aug-cc-pvtz', properties = ['dipole'])
--------------------------------------------------------------------------

    Molecular point group: c1
  Charge       = 0
  Multiplicity = 1
  Basis Set: AUG-CC-PVTZ
    Blend: AUG-CC-PVTZ
  Basis Set: (AUG-CC-PVTZ AUX)
    Blend: AUG-CC-PVTZ-JKFIT

    Orbital Energies [Eh]
    ---------------------

    Doubly Occupied:

       1A    -20.513146     2A    -15.581609     3A    -15.580977
       4A    -11.372330     5A    -11.265001     6A    -11.255080
       7A    -11.229339     8A    -11.221561     9A     -1.384289
      10A     -1.246058    11A     -1.213997    12A     -1.119572
      13A     -0.943289    14A     -0.832787    15A     -0.823673
      16A     -0.773960    17A     -0.738116    18A     -0.697654
      19A     -0.659303    20A     -0.626287    21A     -0.615450
      22A     -0.599771    23A     -0.559377    24A     -0.543596
      25A     -0.535564    26A     -0.515719    27A     -0.453519
      28A     -0.439582    29A     -0.430590    30A     -0.402795
      31A     -0.382505

  @DF-RHF Final Energy:  -379.05036276246659

   => Energetics <=

    Nuclear Repulsion Energy =            379.8359181952724839
    One-Electron Energy =               -1268.6595689142625361
    Two-Electron Energy =                 509.7732879565234612
    Total Energy =                       -379.0503627624665910
  Basis Set: (AUG-CC-PVTZ AUX)
    Blend: AUG-CC-PVTZ-RI
    Molecular point group: c1

    Geometry (in Angstrom), charge = 0, multiplicity = 1:

       Center              X                  Y                   Z               Mass
    ------------   -----------------  -----------------  -----------------  -----------------
         O           -0.798846046286     1.276122221322    -0.284527607202    15.994914619570
         N            0.377959953714    -0.708440778678    -0.115810607202    14.003074004430
         N           -1.935979046286    -0.705116778678     0.025497392798    14.003074004430
         C            1.626591853714    -0.101434578678    -0.477573607202    12.000000000000
         C            2.303792953714     0.736590221322     0.571463392798    12.000000000000
         C            2.863542953714    -0.590181778678     0.136352392798    12.000000000000
         C           -0.787985046286     0.056918221322    -0.133932607202    12.000000000000
         C           -3.185653046286     0.007463221322     0.251420392798    12.000000000000
         H            1.662124953714     0.320277221322    -1.504785607202     1.007825032230
         H            1.817007953714     0.785773221322     1.538449392798     1.007825032230
         H            2.810508953714     1.645165221322     0.265647392798     1.007825032230
         H            3.763138953714    -0.605011778678    -0.469854607202     1.007825032230
         H            2.759918953714    -1.425996778678     0.820068392798     1.007825032230
         H            0.270633953714    -1.653471778678    -0.472578607202     1.007825032230
         H           -1.812737046286    -1.549746778678     0.572435392798     1.007825032230
         H           -3.223301046286     0.501862221322     1.228939392798     1.007825032230
         H           -4.010634046286    -0.702721778678     0.171254392798     1.007825032230
         H           -3.291438046286     0.769274221322    -0.519433607202     1.007825032230

  Basis Set: AUG-CC-PVTZ
    Blend: AUG-CC-PVTZ
  Basis Set: (AUG-CC-PVTZ AUX)
    Blend: AUG-CC-PVTZ-JKFIT
	 Reference Energy          =    -379.0503627624665910 [Eh]
	 Singles Energy            =      -0.0000000000000000 [Eh]
	 Same-Spin Energy          =      -0.3908715527688298 [Eh]
	 Opposite-Spin Energy      =      -1.2600201695405859 [Eh]
	 Correlation Energy        =      -1.6508917223094157 [Eh]
	 Total Energy              =    -380.7012544847760296 [Eh]

	 ================> DF-SCS-MP2 Energies <==================
	-----------------------------------------------------------
	 SCS Same-Spin Scale       =       0.3333333333333333 [-]
	 SCS Opposite-Spin Scale   =       1.2000000000000000 [-]
	 SCS Same-Spin Energy      =      -0.1302905175896099 [Eh]
	 SCS Opposite-Spin Energy  =      -1.5120242034487030 [Eh]
	 SCS Correlation Energy    =      -1.6423147210383129 [Eh]
	 SCS Total Energy          =    -380.6926774835048946 [Eh]
	-----------------------------------------------------------

  Dipole Moment: [D]
     X:    -0.0810      Y:    -3.2216      Z:     0.4987     Total:     3.2609

*** Psi4 exiting successfully. Buy a developer a beer!
