                               Psi4 1.3.2 release

  ==> Input File <==

--------------------------------------------------------------------------
#psi4
#
memory 32 gb

molecule  {
0 1
  O       -0.8024720     1.2871770    -0.2968200
  N        0.3743340    -0.6973860    -0.1281030
  N       -1.9396050    -0.6940620     0.0132050
  C        1.5839933    -0.0067904    -0.4719237
  C        2.3001670     0.7476450     0.5591710
  C        2.8599170    -0.5791270     0.1240600
  C       -0.7916110     0.0679730    -0.1462250
  C       -3.1892790     0.0185180     0.2391280
  H        1.6584990     0.3313320    -1.5170780
  H        1.8133820     0.7968280     1.5261570
  H        2.8068830     1.6562200     0.2533550
  H        3.7595130    -0.5939570    -0.4821470
  H        2.7562930    -1.4149420     0.8077760
  H        0.2670080    -1.6424170    -0.4848710
  H       -1.8163630    -1.5386920     0.5601430
  H       -3.2269270     0.5129170     1.2166470
  H       -4.0142600    -0.6916670     0.1589620
  H       -3.2950640     0.7803290    -0.5317260
units angstrom
no_reorient  #important for SAPT in psi4, default
symmetry c1  #important for SAPT in psi4, default
}

set PROPERTIES_ORIGIN ["COM"]
properties('MP2/aug-cc-pvtz', properties = ['dipole'])
--------------------------------------------------------------------------

    Molecular point group: c1
  Charge       = 0
  Multiplicity = 1
  Basis Set: AUG-CC-PVTZ
    Blend: AUG-CC-PVTZ
  Basis Set: (AUG-CC-PVTZ AUX)
    Blend: AUG-CC-PVTZ-JKFIT

    Orbital Energies [Eh]
    ---------------------

    Doubly Occupied:

       1A    -20.513557     2A    -15.581921     3A    -15.580614
       4A    -11.371044     5A    -11.264997     6A    -11.254933
       7A    -11.226871     8A    -11.223789     9A     -1.385201
      10A     -1.245743    11A     -1.213696    12A     -1.117006
      13A     -0.942736    14A     -0.830535    15A     -0.824568
      16A     -0.774884    17A     -0.738132    18A     -0.699586
      19A     -0.658140    20A     -0.625397    21A     -0.616283
      22A     -0.599399    23A     -0.559869    24A     -0.543719
      25A     -0.537151    26A     -0.515372    27A     -0.456034
      28A     -0.441805    29A     -0.418676    30A     -0.402892
      31A     -0.388045

  @DF-RHF Final Energy:  -379.05058391333995

   => Energetics <=

    Nuclear Repulsion Energy =            380.1767121678348076
    One-Electron Energy =               -1269.3494039841782524
    Two-Electron Energy =                 510.1221079030034957
    Total Energy =                       -379.0505839133399490
  Basis Set: (AUG-CC-PVTZ AUX)
    Blend: AUG-CC-PVTZ-RI
    Molecular point group: c1

    Geometry (in Angstrom), charge = 0, multiplicity = 1:

       Center              X                  Y                   Z               Mass
    ------------   -----------------  -----------------  -----------------  -----------------
         O           -0.794746519493     1.267329454483    -0.286414957278    15.994914619570
         N            0.382059480507    -0.717233545517    -0.117697957278    14.003074004430
         N           -1.931879519493    -0.713909545517     0.023610042722    14.003074004430
         C            1.591718780507    -0.026637945517    -0.461518657278    12.000000000000
         C            2.307892480507     0.727797454483     0.569576042722    12.000000000000
         C            2.867642480507    -0.598974545517     0.134465042722    12.000000000000
         C           -0.783885519493     0.048125454483    -0.135819957278    12.000000000000
         C           -3.181553519493    -0.001329545517     0.249533042722    12.000000000000
         H            1.666224480507     0.311484454483    -1.506672957278     1.007825032230
         H            1.821107480507     0.776980454483     1.536562042722     1.007825032230
         H            2.814608480507     1.636372454483     0.263760042722     1.007825032230
         H            3.767238480507    -0.613804545517    -0.471741957278     1.007825032230
         H            2.764018480507    -1.434789545517     0.818181042722     1.007825032230
         H            0.274733480507    -1.662264545517    -0.474465957278     1.007825032230
         H           -1.808637519493    -1.558539545517     0.570548042722     1.007825032230
         H           -3.219201519493     0.493069454483     1.227052042722     1.007825032230
         H           -4.006534519493    -0.711514545517     0.169367042722     1.007825032230
         H           -3.287338519493     0.760481454483    -0.521320957278     1.007825032230

  Basis Set: AUG-CC-PVTZ
    Blend: AUG-CC-PVTZ
  Basis Set: (AUG-CC-PVTZ AUX)
    Blend: AUG-CC-PVTZ-JKFIT
	 Reference Energy          =    -379.0505839133399490 [Eh]
	 Singles Energy            =      -0.0000000000000000 [Eh]
	 Same-Spin Energy          =      -0.3909038082735142 [Eh]
	 Opposite-Spin Energy      =      -1.2601254566580478 [Eh]
	 Correlation Energy        =      -1.6510292649315619 [Eh]
	 Total Energy              =    -380.7016131782714865 [Eh]

	 ================> DF-SCS-MP2 Energies <==================
	-----------------------------------------------------------
	 SCS Same-Spin Scale       =       0.3333333333333333 [-]
	 SCS Opposite-Spin Scale   =       1.2000000000000000 [-]
	 SCS Same-Spin Energy      =      -0.1303012694245047 [Eh]
	 SCS Opposite-Spin Energy  =      -1.5121505479896573 [Eh]
	 SCS Correlation Energy    =      -1.6424518174141620 [Eh]
	 SCS Total Energy          =    -380.6930357307541044 [Eh]
	-----------------------------------------------------------

  Dipole Moment: [D]
     X:    -0.1227      Y:    -3.1491      Z:     0.5126     Total:     3.1929

*** Psi4 exiting successfully. Buy a developer a beer!
