                               Psi4 1.3.2 release

  ==> Input File <==

--------------------------------------------------------------------------
#psi4
#
memory 32 gb

molecule  {
0 1
  O       -0.8024720     1.2871770    -0.2968200
  N        0.3743340    -0.6973860    -0.1281030
  N       -1.9396050    -0.6940620     0.0132050
  C        1.6055820    -0.0677290    -0.5101648
  C        2.3001670     0.7476450     0.5591710
  C        2.8599170    -0.5791270     0.1240600
  C       -0.7916110     0.0679730    -0.1462250
  C       -3.1892790     0.0185180     0.2391280
  H        1.6584990     0.3313320    -1.5170780
  H        1.8133820     0.7968280     1.5261570
  H        2.8068830     1.6562200     0.2533550
  H        3.7595130    -0.5939570    -0.4821470
  H        2.7562930    -1.4149420     0.8077760
  H        0.2670080    -1.6424170    -0.4848710
  H       -1.8163630    -1.5386920     0.5601430
  H       -3.2269270     0.5129170     1.2166470
  H       -4.0142600    -0.6916670     0.1589620
  H       -3.2950640     0.7803290    -0.5317260
units angstrom
no_reorient  #important for SAPT in psi4, default
symmetry c1  #important for SAPT in psi4, default
}

set PROPERTIES_ORIGIN ["COM"]
properties('MP2/aug-cc-pvtz', properties = ['dipole'])
--------------------------------------------------------------------------

    Molecular point group: c1
  Charge       = 0
  Multiplicity = 1
  Basis Set: AUG-CC-PVTZ
    Blend: AUG-CC-PVTZ
  Basis Set: (AUG-CC-PVTZ AUX)
    Blend: AUG-CC-PVTZ-JKFIT

    Orbital Energies [Eh]
    ---------------------

    Doubly Occupied:

       1A    -20.513173     2A    -15.581595     3A    -15.580814
       4A    -11.371685     5A    -11.264121     6A    -11.254964
       7A    -11.229802     8A    -11.222949     9A     -1.384440
      10A     -1.245371    11A     -1.212950    12A     -1.113169
      13A     -0.942997    14A     -0.830955    15A     -0.824785
      16A     -0.775691    17A     -0.738051    18A     -0.698558
      19A     -0.656439    20A     -0.624908    21A     -0.615396
      22A     -0.599904    23A     -0.560196    24A     -0.544229
      25A     -0.538909    26A     -0.515217    27A     -0.452415
      28A     -0.440329    29A     -0.423598    30A     -0.402940
      31A     -0.385043

  @DF-RHF Final Energy:  -379.05178099888593

   => Energetics <=

    Nuclear Repulsion Energy =            379.6734703632498622
    One-Electron Energy =               -1268.3593155084254249
    Two-Electron Energy =                 509.6340641462896315
    Total Energy =                       -379.0517809988859312
  Basis Set: (AUG-CC-PVTZ AUX)
    Blend: AUG-CC-PVTZ-RI
    Molecular point group: c1

    Geometry (in Angstrom), charge = 0, multiplicity = 1:

       Center              X                  Y                   Z               Mass
    ------------   -----------------  -----------------  -----------------  -----------------
         O           -0.797017434292     1.273739584252    -0.282392376951    15.994914619570
         N            0.379788565708    -0.710823415748    -0.113675376951    14.003074004430
         N           -1.934150434292    -0.707499415748     0.027632623049    14.003074004430
         C            1.611036565708    -0.081166415748    -0.495737176951    12.000000000000
         C            2.305621565708     0.734207584252     0.573598623049    12.000000000000
         C            2.865371565708    -0.592564415748     0.138487623049    12.000000000000
         C           -0.786156434292     0.054535584252    -0.131797376951    12.000000000000
         C           -3.183824434292     0.005080584252     0.253555623049    12.000000000000
         H            1.663953565708     0.317894584252    -1.502650376951     1.007825032230
         H            1.818836565708     0.783390584252     1.540584623049     1.007825032230
         H            2.812337565708     1.642782584252     0.267782623049     1.007825032230
         H            3.764967565708    -0.607394415748    -0.467719376951     1.007825032230
         H            2.761747565708    -1.428379415748     0.822203623049     1.007825032230
         H            0.272462565708    -1.655854415748    -0.470443376951     1.007825032230
         H           -1.810908434292    -1.552129415748     0.574570623049     1.007825032230
         H           -3.221472434292     0.499479584252     1.231074623049     1.007825032230
         H           -4.008805434292    -0.705104415748     0.173389623049     1.007825032230
         H           -3.289609434292     0.766891584252    -0.517298376951     1.007825032230

  Basis Set: AUG-CC-PVTZ
    Blend: AUG-CC-PVTZ
  Basis Set: (AUG-CC-PVTZ AUX)
    Blend: AUG-CC-PVTZ-JKFIT
	 Reference Energy          =    -379.0517809988859312 [Eh]
	 Singles Energy            =      -0.0000000000000000 [Eh]
	 Same-Spin Energy          =      -0.3907597496680076 [Eh]
	 Opposite-Spin Energy      =      -1.2601213455886382 [Eh]
	 Correlation Energy        =      -1.6508810952566457 [Eh]
	 Total Energy              =    -380.7026620941425676 [Eh]

	 ================> DF-SCS-MP2 Energies <==================
	-----------------------------------------------------------
	 SCS Same-Spin Scale       =       0.3333333333333333 [-]
	 SCS Opposite-Spin Scale   =       1.2000000000000000 [-]
	 SCS Same-Spin Energy      =      -0.1302532498893359 [Eh]
	 SCS Opposite-Spin Energy  =      -1.5121456147063659 [Eh]
	 SCS Correlation Energy    =      -1.6423988645957017 [Eh]
	 SCS Total Energy          =    -380.6941798634816223 [Eh]
	-----------------------------------------------------------

  Dipole Moment: [D]
     X:    -0.0972      Y:    -3.1981      Z:     0.4879     Total:     3.2366

*** Psi4 exiting successfully. Buy a developer a beer!
