                               Psi4 1.3.2 release

  ==> Input File <==

--------------------------------------------------------------------------
#psi4
#
memory 32 gb

molecule  {
0 1
  O       -0.8024720     1.2871770    -0.2968200
  N        0.3045643    -0.6002663    -0.2189453
  N       -1.9396050    -0.6940620     0.0132050
  C        1.5987580    -0.0472160    -0.4975290
  C        2.3001670     0.7476450     0.5591710
  C        2.8599170    -0.5791270     0.1240600
  C       -0.7916110     0.0679730    -0.1462250
  C       -3.1892790     0.0185180     0.2391280
  H        1.6584990     0.3313320    -1.5170780
  H        1.8133820     0.7968280     1.5261570
  H        2.8068830     1.6562200     0.2533550
  H        3.7595130    -0.5939570    -0.4821470
  H        2.7562930    -1.4149420     0.8077760
  H        0.2670080    -1.6424170    -0.4848710
  H       -1.8163630    -1.5386920     0.5601430
  H       -3.2269270     0.5129170     1.2166470
  H       -4.0142600    -0.6916670     0.1589620
  H       -3.2950640     0.7803290    -0.5317260
units angstrom
no_reorient  #important for SAPT in psi4, default
symmetry c1  #important for SAPT in psi4, default
}

set PROPERTIES_ORIGIN ["COM"]
properties('MP2/aug-cc-pvtz', properties = ['dipole'])
--------------------------------------------------------------------------

    Molecular point group: c1
  Charge       = 0
  Multiplicity = 1
  Basis Set: AUG-CC-PVTZ
    Blend: AUG-CC-PVTZ
  Basis Set: (AUG-CC-PVTZ AUX)
    Blend: AUG-CC-PVTZ-JKFIT

    Orbital Energies [Eh]
    ---------------------

    Doubly Occupied:

       1A    -20.493085     2A    -15.586240     3A    -15.573636
       4A    -11.355044     5A    -11.270417     6A    -11.250266
       7A    -11.237542     8A    -11.227056     9A     -1.387107
      10A     -1.248423    11A     -1.211257    12A     -1.127163
      13A     -0.941502    14A     -0.849844    15A     -0.832555
      16A     -0.766815    17A     -0.745370    18A     -0.695562
      19A     -0.665576    20A     -0.628055    21A     -0.607000
      22A     -0.594604    23A     -0.564091    24A     -0.543202
      25A     -0.532020    26A     -0.520176    27A     -0.452102
      28A     -0.429607    29A     -0.428371    30A     -0.397162
      31A     -0.383513

  @DF-RHF Final Energy:  -379.03940672412301

   => Energetics <=

    Nuclear Repulsion Energy =            381.7799081369843179
    One-Electron Energy =               -1272.5498988546714827
    Two-Electron Energy =                 511.7305839935641529
    Total Energy =                       -379.0394067241230118
  Basis Set: (AUG-CC-PVTZ AUX)
    Blend: AUG-CC-PVTZ-RI
    Molecular point group: c1

    Geometry (in Angstrom), charge = 0, multiplicity = 1:

       Center              X                  Y                   Z               Mass
    ------------   -----------------  -----------------  -----------------  -----------------
         O           -0.787735486102     1.259660516761    -0.272570772835    15.994914619570
         N            0.319300813898    -0.627782783239    -0.194696072835    14.003074004430
         N           -1.924868486102    -0.721578483239     0.037454227165    14.003074004430
         C            1.613494513898    -0.074732483239    -0.473279772835    12.000000000000
         C            2.314903513898     0.720128516761     0.583420227165    12.000000000000
         C            2.874653513898    -0.606643483239     0.148309227165    12.000000000000
         C           -0.776874486102     0.040456516761    -0.121975772835    12.000000000000
         C           -3.174542486102    -0.008998483239     0.263377227165    12.000000000000
         H            1.673235513898     0.303815516761    -1.492828772835     1.007825032230
         H            1.828118513898     0.769311516761     1.550406227165     1.007825032230
         H            2.821619513898     1.628703516761     0.277604227165     1.007825032230
         H            3.774249513898    -0.621473483239    -0.457897772835     1.007825032230
         H            2.771029513898    -1.442458483239     0.832025227165     1.007825032230
         H            0.281744513898    -1.669933483239    -0.460621772835     1.007825032230
         H           -1.801626486102    -1.566208483239     0.584392227165     1.007825032230
         H           -3.212190486102     0.485400516761     1.240896227165     1.007825032230
         H           -3.999523486102    -0.719183483239     0.183211227165     1.007825032230
         H           -3.280327486102     0.752812516761    -0.507476772835     1.007825032230

  Basis Set: AUG-CC-PVTZ
    Blend: AUG-CC-PVTZ
  Basis Set: (AUG-CC-PVTZ AUX)
    Blend: AUG-CC-PVTZ-JKFIT
	 Reference Energy          =    -379.0394067241230118 [Eh]
	 Singles Energy            =      -0.0000000000000000 [Eh]
	 Same-Spin Energy          =      -0.3907608117980005 [Eh]
	 Opposite-Spin Energy      =      -1.2591213921389066 [Eh]
	 Correlation Energy        =      -1.6498822039369072 [Eh]
	 Total Energy              =    -380.6892889280599093 [Eh]

	 ================> DF-SCS-MP2 Energies <==================
	-----------------------------------------------------------
	 SCS Same-Spin Scale       =       0.3333333333333333 [-]
	 SCS Opposite-Spin Scale   =       1.2000000000000000 [-]
	 SCS Same-Spin Energy      =      -0.1302536039326668 [Eh]
	 SCS Opposite-Spin Energy  =      -1.5109456705666879 [Eh]
	 SCS Correlation Energy    =      -1.6411992744993547 [Eh]
	 SCS Total Energy          =    -380.6806059986223545 [Eh]
	-----------------------------------------------------------

  Dipole Moment: [D]
     X:     0.6124      Y:    -3.5749      Z:     0.7060     Total:     3.6951

*** Psi4 exiting successfully. Buy a developer a beer!
