                               Psi4 1.3.2 release

  ==> Input File <==

--------------------------------------------------------------------------
#psi4
#
memory 32 gb

molecule  {
0 1
  O       -0.8024720     1.2871770    -0.2968200
  N        0.3872894    -0.7129077    -0.1133298
  N       -1.9396050    -0.6940620     0.0132050
  C        1.5987580    -0.0472160    -0.4975290
  C        2.3001670     0.7476450     0.5591710
  C        2.8599170    -0.5791270     0.1240600
  C       -0.7916110     0.0679730    -0.1462250
  C       -3.1892790     0.0185180     0.2391280
  H        1.6584990     0.3313320    -1.5170780
  H        1.8133820     0.7968280     1.5261570
  H        2.8068830     1.6562200     0.2533550
  H        3.7595130    -0.5939570    -0.4821470
  H        2.7562930    -1.4149420     0.8077760
  H        0.2670080    -1.6424170    -0.4848710
  H       -1.8163630    -1.5386920     0.5601430
  H       -3.2269270     0.5129170     1.2166470
  H       -4.0142600    -0.6916670     0.1589620
  H       -3.2950640     0.7803290    -0.5317260
units angstrom
no_reorient  #important for SAPT in psi4, default
symmetry c1  #important for SAPT in psi4, default
}

set PROPERTIES_ORIGIN ["COM"]
properties('MP2/aug-cc-pvtz', properties = ['dipole'])
--------------------------------------------------------------------------

    Molecular point group: c1
  Charge       = 0
  Multiplicity = 1
  Basis Set: AUG-CC-PVTZ
    Blend: AUG-CC-PVTZ
  Basis Set: (AUG-CC-PVTZ AUX)
    Blend: AUG-CC-PVTZ-JKFIT

    Orbital Energies [Eh]
    ---------------------

    Doubly Occupied:

       1A    -20.516307     2A    -15.581956     3A    -15.581271
       4A    -11.373775     5A    -11.263322     6A    -11.255706
       7A    -11.227439     8A    -11.222670     9A     -1.384850
      10A     -1.244807    11A     -1.213428    12A     -1.112374
      13A     -0.943277    14A     -0.828942    15A     -0.822752
      16A     -0.776532    17A     -0.735768    18A     -0.699557
      19A     -0.655845    20A     -0.624714    21A     -0.617408
      22A     -0.599858    23A     -0.559525    24A     -0.544341
      25A     -0.539123    26A     -0.514503    27A     -0.452204
      28A     -0.442931    29A     -0.420880    30A     -0.403822
      31A     -0.387479

  @DF-RHF Final Energy:  -379.05112965711783

   => Energetics <=

    Nuclear Repulsion Energy =            379.5206172384865795
    One-Electron Energy =               -1268.0487614518201553
    Two-Electron Energy =                 509.4770145562157495
    Total Energy =                       -379.0511296571178264
  Basis Set: (AUG-CC-PVTZ AUX)
    Blend: AUG-CC-PVTZ-RI
    Molecular point group: c1

    Geometry (in Angstrom), charge = 0, multiplicity = 1:

       Center              X                  Y                   Z               Mass
    ------------   -----------------  -----------------  -----------------  -----------------
         O           -0.797889874898     1.273487088988    -0.285534925794    15.994914619570
         N            0.391871525102    -0.726597611012    -0.102044725794    14.003074004430
         N           -1.935022874898    -0.707751911012     0.024490074206    14.003074004430
         C            1.603340125102    -0.060905911012    -0.486243925794    12.000000000000
         C            2.304749125102     0.733955088988     0.570456074206    12.000000000000
         C            2.864499125102    -0.592816911012     0.135345074206    12.000000000000
         C           -0.787028874898     0.054283088988    -0.134939925794    12.000000000000
         C           -3.184696874898     0.004828088988     0.250413074206    12.000000000000
         H            1.663081125102     0.317642088988    -1.505792925794     1.007825032230
         H            1.817964125102     0.783138088988     1.537442074206     1.007825032230
         H            2.811465125102     1.642530088988     0.264640074206     1.007825032230
         H            3.764095125102    -0.607646911012    -0.470861925794     1.007825032230
         H            2.760875125102    -1.428631911012     0.819061074206     1.007825032230
         H            0.271590125102    -1.656106911012    -0.473585925794     1.007825032230
         H           -1.811780874898    -1.552381911012     0.571428074206     1.007825032230
         H           -3.222344874898     0.499227088988     1.227932074206     1.007825032230
         H           -4.009677874898    -0.705356911012     0.170247074206     1.007825032230
         H           -3.290481874898     0.766639088988    -0.520440925794     1.007825032230

  Basis Set: AUG-CC-PVTZ
    Blend: AUG-CC-PVTZ
  Basis Set: (AUG-CC-PVTZ AUX)
    Blend: AUG-CC-PVTZ-JKFIT
	 Reference Energy          =    -379.0511296571178264 [Eh]
	 Singles Energy            =      -0.0000000000000000 [Eh]
	 Same-Spin Energy          =      -0.3908470899137763 [Eh]
	 Opposite-Spin Energy      =      -1.2604161444255355 [Eh]
	 Correlation Energy        =      -1.6512632343393117 [Eh]
	 Total Energy              =    -380.7023928914571229 [Eh]

	 ================> DF-SCS-MP2 Energies <==================
	-----------------------------------------------------------
	 SCS Same-Spin Scale       =       0.3333333333333333 [-]
	 SCS Opposite-Spin Scale   =       1.2000000000000000 [-]
	 SCS Same-Spin Energy      =      -0.1302823633045921 [Eh]
	 SCS Opposite-Spin Energy  =      -1.5124993733106427 [Eh]
	 SCS Correlation Energy    =      -1.6427817366152349 [Eh]
	 SCS Total Energy          =    -380.6939113937330603 [Eh]
	-----------------------------------------------------------

  Dipole Moment: [D]
     X:    -0.2223      Y:    -3.1145      Z:     0.4598     Total:     3.1561

*** Psi4 exiting successfully. Buy a developer a beer!
