                               Psi4 1.4a3.dev225

  ==> Input File <==

--------------------------------------------------------------------------
#psi4
#
memory 32 gb

molecule  {
0 1
  O       -0.8024720     1.2871770    -0.2968200
  N        0.3743340    -0.6973860    -0.1281030
  N       -1.9396050    -0.6940620     0.0132050
  C        1.6158265    -0.0381526    -0.5026788
  C        2.3001670     0.7476450     0.5591710
  C        2.8599170    -0.5791270     0.1240600
  C       -0.7916110     0.0679730    -0.1462250
  C       -3.1892790     0.0185180     0.2391280
  H        1.6584990     0.3313320    -1.5170780
  H        1.8133820     0.7968280     1.5261570
  H        2.8068830     1.6562200     0.2533550
  H        3.7595130    -0.5939570    -0.4821470
  H        2.7562930    -1.4149420     0.8077760
  H        0.2670080    -1.6424170    -0.4848710
  H       -1.8163630    -1.5386920     0.5601430
  H       -3.2269270     0.5129170     1.2166470
  H       -4.0142600    -0.6916670     0.1589620
  H       -3.2950640     0.7803290    -0.5317260
units angstrom
no_reorient  #important for SAPT in psi4, default
symmetry c1  #important for SAPT in psi4, default
}

set PROPERTIES_ORIGIN ["COM"]
properties('MP2/aug-cc-pvtz', properties = ['dipole'])
--------------------------------------------------------------------------

    Molecular point group: c1
  Charge       = 0
  Multiplicity = 1
  Basis Set: AUG-CC-PVTZ
    Blend: AUG-CC-PVTZ
  Basis Set: (AUG-CC-PVTZ AUX)
    Blend: AUG-CC-PVTZ-JKFIT

    Orbital Energies [Eh]
    ---------------------

    Doubly Occupied:

       1A    -20.512476     2A    -15.580892     3A    -15.580115
       4A    -11.370681     5A    -11.264537     6A    -11.254529
       7A    -11.228727     8A    -11.223195     9A     -1.383568
      10A     -1.242923    11A     -1.211455    12A     -1.117150
      13A     -0.941633    14A     -0.830675    15A     -0.824408
      16A     -0.775577    17A     -0.736516    18A     -0.698279
      19A     -0.657130    20A     -0.625356    21A     -0.615509
      22A     -0.599394    23A     -0.558136    24A     -0.543755
      25A     -0.537306    26A     -0.515844    27A     -0.451008
      28A     -0.440224    29A     -0.425949    30A     -0.402796
      31A     -0.388027

  @DF-RHF Final Energy:  -379.05202532088674

   => Energetics <=

    Nuclear Repulsion Energy =            379.6667108895190381
    One-Electron Energy =               -1268.3619323694031209
    Two-Electron Energy =                 509.6431961589973980
    Total Energy =                       -379.0520253208867416
  Basis Set: (AUG-CC-PVTZ AUX)
    Blend: AUG-CC-PVTZ-RI
    Molecular point group: c1

    Geometry (in Angstrom), charge = 0, multiplicity = 1:

       Center              X                  Y                   Z               Mass
    ------------   -----------------  -----------------  -----------------  -----------------
         O           -0.798095052984     1.270628443495    -0.283179829099    15.994914619570
         N            0.378710947016    -0.713934556505    -0.114462829099    14.003074004430
         N           -1.935228052984    -0.710610556505     0.026845170901    14.003074004430
         C            1.620203447016    -0.054701156505    -0.489038629099    12.000000000000
         C            2.304543947016     0.731096443495     0.572811170901    12.000000000000
         C            2.864293947016    -0.595675556505     0.137700170901    12.000000000000
         C           -0.787234052984     0.051424443495    -0.132584829099    12.000000000000
         C           -3.184902052984     0.001969443495     0.252768170901    12.000000000000
         H            1.662875947016     0.314783443495    -1.503437829099     1.007825032230
         H            1.817758947016     0.780279443495     1.539797170901     1.007825032230
         H            2.811259947016     1.639671443495     0.266995170901     1.007825032230
         H            3.763889947016    -0.610505556505    -0.468506829099     1.007825032230
         H            2.760669947016    -1.431490556505     0.821416170901     1.007825032230
         H            0.271384947016    -1.658965556505    -0.471230829099     1.007825032230
         H           -1.811986052984    -1.555240556505     0.573783170901     1.007825032230
         H           -3.222550052984     0.496368443495     1.230287170901     1.007825032230
         H           -4.009883052984    -0.708215556505     0.172602170901     1.007825032230
         H           -3.290687052984     0.763780443495    -0.518085829099     1.007825032230

  Basis Set: AUG-CC-PVTZ
    Blend: AUG-CC-PVTZ
  Basis Set: (AUG-CC-PVTZ AUX)
    Blend: AUG-CC-PVTZ-JKFIT
	 Reference Energy          =    -379.0520253208867416 [Eh]
	 Singles Energy            =      -0.0000000000000000 [Eh]
	 Same-Spin Energy          =      -0.3906490431830826 [Eh]
	 Opposite-Spin Energy      =      -1.2598725661342756 [Eh]
	 Correlation Energy        =      -1.6505216093173583 [Eh]
	 Total Energy              =    -380.7025469302041074 [Eh]

	 ================> DF-SCS-MP2 Energies <==================
	-----------------------------------------------------------
	 SCS Same-Spin Scale       =       0.3333333333333333 [-]
	 SCS Opposite-Spin Scale   =       1.2000000000000000 [-]
	 SCS Same-Spin Energy      =      -0.1302163477276942 [Eh]
	 SCS Opposite-Spin Energy  =      -1.5118470793611307 [Eh]
	 SCS Correlation Energy    =      -1.6420634270888250 [Eh]
	 SCS Total Energy          =    -380.6940887479755702 [Eh]
	-----------------------------------------------------------

  Dipole Moment: [D]
     X:    -0.0458      Y:    -3.1689      Z:     0.4823     Total:     3.2057

*** Psi4 exiting successfully. Buy a developer a beer!
