                               Psi4 1.3.2 release

  ==> Input File <==

--------------------------------------------------------------------------
#psi4
#
memory 32 gb

molecule  {
0 1
  O       -0.8024720     1.2871770    -0.2968200
  N        0.3743340    -0.6973860    -0.1281030
  N       -1.9396050    -0.6940620     0.0132050
  C        1.6667904    -0.1788724    -0.4732275
  C        2.3001670     0.7476450     0.5591710
  C        2.8599170    -0.5791270     0.1240600
  C       -0.7916110     0.0679730    -0.1462250
  C       -3.1892790     0.0185180     0.2391280
  H        1.6584990     0.3313320    -1.5170780
  H        1.8133820     0.7968280     1.5261570
  H        2.8068830     1.6562200     0.2533550
  H        3.7595130    -0.5939570    -0.4821470
  H        2.7562930    -1.4149420     0.8077760
  H        0.2670080    -1.6424170    -0.4848710
  H       -1.8163630    -1.5386920     0.5601430
  H       -3.2269270     0.5129170     1.2166470
  H       -4.0142600    -0.6916670     0.1589620
  H       -3.2950640     0.7803290    -0.5317260
units angstrom
no_reorient  #important for SAPT in psi4, default
symmetry c1  #important for SAPT in psi4, default
}

set PROPERTIES_ORIGIN ["COM"]
properties('MP2/aug-cc-pvtz', properties = ['dipole'])
--------------------------------------------------------------------------

    Molecular point group: c1
  Charge       = 0
  Multiplicity = 1
  Basis Set: AUG-CC-PVTZ
    Blend: AUG-CC-PVTZ
  Basis Set: (AUG-CC-PVTZ AUX)
    Blend: AUG-CC-PVTZ-JKFIT

    Orbital Energies [Eh]
    ---------------------

    Doubly Occupied:

       1A    -20.513271     2A    -15.582470     3A    -15.581731
       4A    -11.374591     5A    -11.269118     6A    -11.255530
       7A    -11.230486     8A    -11.218972     9A     -1.384043
      10A     -1.248035    11A     -1.216241    12A     -1.129860
      13A     -0.944383    14A     -0.838063    15A     -0.822339
      16A     -0.770779    17A     -0.738919    18A     -0.695554
      19A     -0.663753    20A     -0.628365    21A     -0.614909
      22A     -0.600209    23A     -0.558670    24A     -0.543567
      25A     -0.528559    26A     -0.516714    27A     -0.471206
      28A     -0.439537    29A     -0.428943    30A     -0.402418
      31A     -0.370426

  @DF-RHF Final Energy:  -379.03381935112259

   => Energetics <=

    Nuclear Repulsion Energy =            379.7930798085308766
    One-Electron Energy =               -1268.4904770018272302
    Two-Electron Energy =                 509.6635778421738223
    Total Energy =                       -379.0338193511225882
  Basis Set: (AUG-CC-PVTZ AUX)
    Blend: AUG-CC-PVTZ-RI
    Molecular point group: c1

    Geometry (in Angstrom), charge = 0, multiplicity = 1:

       Center              X                  Y                   Z               Mass
    ------------   -----------------  -----------------  -----------------  -----------------
         O           -0.803455944316     1.285430755644    -0.286277810590    15.994914619570
         N            0.373350055684    -0.699132244356    -0.117560810590    14.003074004430
         N           -1.940588944316    -0.695808244356     0.023747189410    14.003074004430
         C            1.665806455684    -0.180618644356    -0.462685310590    12.000000000000
         C            2.299183055684     0.745898755644     0.569713189410    12.000000000000
         C            2.858933055684    -0.580873244356     0.134602189410    12.000000000000
         C           -0.792594944316     0.066226755644    -0.135682810590    12.000000000000
         C           -3.190262944316     0.016771755644     0.249670189410    12.000000000000
         H            1.657515055684     0.329585755644    -1.506535810590     1.007825032230
         H            1.812398055684     0.795081755644     1.536699189410     1.007825032230
         H            2.805899055684     1.654473755644     0.263897189410     1.007825032230
         H            3.758529055684    -0.595703244356    -0.471604810590     1.007825032230
         H            2.755309055684    -1.416688244356     0.818318189410     1.007825032230
         H            0.266024055684    -1.644163244356    -0.474328810590     1.007825032230
         H           -1.817346944316    -1.540438244356     0.570685189410     1.007825032230
         H           -3.227910944316     0.511170755644     1.227189189410     1.007825032230
         H           -4.015243944316    -0.693413244356     0.169504189410     1.007825032230
         H           -3.296047944316     0.778582755644    -0.521183810590     1.007825032230

  Basis Set: AUG-CC-PVTZ
    Blend: AUG-CC-PVTZ
  Basis Set: (AUG-CC-PVTZ AUX)
    Blend: AUG-CC-PVTZ-JKFIT
	 Reference Energy          =    -379.0338193511225882 [Eh]
	 Singles Energy            =      -0.0000000000000000 [Eh]
	 Same-Spin Energy          =      -0.3916076801164070 [Eh]
	 Opposite-Spin Energy      =      -1.2610913466738269 [Eh]
	 Correlation Energy        =      -1.6526990267902339 [Eh]
	 Total Energy              =    -380.6865183779128188 [Eh]

	 ================> DF-SCS-MP2 Energies <==================
	-----------------------------------------------------------
	 SCS Same-Spin Scale       =       0.3333333333333333 [-]
	 SCS Opposite-Spin Scale   =       1.2000000000000000 [-]
	 SCS Same-Spin Energy      =      -0.1305358933721357 [Eh]
	 SCS Opposite-Spin Energy  =      -1.5133096160085924 [Eh]
	 SCS Correlation Energy    =      -1.6438455093807280 [Eh]
	 SCS Total Energy          =    -380.6776648605033415 [Eh]
	-----------------------------------------------------------

  Dipole Moment: [D]
     X:    -0.0598      Y:    -3.3076      Z:     0.5105     Total:     3.3473

*** Psi4 exiting successfully. Buy a developer a beer!
