                               Psi4 1.3.2 release

  ==> Input File <==

--------------------------------------------------------------------------
#psi4
#
memory 32 gb

molecule  {
0 1
  O       -0.8024720     1.2871770    -0.2968200
  N        0.3495460    -0.6657532    -0.1579824
  N       -1.9396050    -0.6940620     0.0132050
  C        1.5987580    -0.0472160    -0.4975290
  C        2.3001670     0.7476450     0.5591710
  C        2.8599170    -0.5791270     0.1240600
  C       -0.7916110     0.0679730    -0.1462250
  C       -3.1892790     0.0185180     0.2391280
  H        1.6584990     0.3313320    -1.5170780
  H        1.8133820     0.7968280     1.5261570
  H        2.8068830     1.6562200     0.2533550
  H        3.7595130    -0.5939570    -0.4821470
  H        2.7562930    -1.4149420     0.8077760
  H        0.2670080    -1.6424170    -0.4848710
  H       -1.8163630    -1.5386920     0.5601430
  H       -3.2269270     0.5129170     1.2166470
  H       -4.0142600    -0.6916670     0.1589620
  H       -3.2950640     0.7803290    -0.5317260
units angstrom
no_reorient  #important for SAPT in psi4, default
symmetry c1  #important for SAPT in psi4, default
}

set PROPERTIES_ORIGIN ["COM"]
properties('MP2/aug-cc-pvtz', properties = ['dipole'])
--------------------------------------------------------------------------

    Molecular point group: c1
  Charge       = 0
  Multiplicity = 1
  Basis Set: AUG-CC-PVTZ
    Blend: AUG-CC-PVTZ
  Basis Set: (AUG-CC-PVTZ AUX)
    Blend: AUG-CC-PVTZ-JKFIT

    Orbital Energies [Eh]
    ---------------------

    Doubly Occupied:

       1A    -20.506837     2A    -15.582764     3A    -15.578270
       4A    -11.366365     5A    -11.266081     6A    -11.253373
       7A    -11.231601     8A    -11.224376     9A     -1.384663
      10A     -1.246690    11A     -1.212575    12A     -1.118632
      13A     -0.942211    14A     -0.835366    15A     -0.828428
      16A     -0.772886    17A     -0.741540    18A     -0.697849
      19A     -0.659633    20A     -0.625907    21A     -0.612180
      22A     -0.599007    23A     -0.561315    24A     -0.543628
      25A     -0.536580    26A     -0.516901    27A     -0.451967
      28A     -0.436896    29A     -0.425342    30A     -0.401424
      31A     -0.385608

  @DF-RHF Final Energy:  -379.05180572216619

   => Energetics <=

    Nuclear Repulsion Energy =            380.4947724423240061
    One-Electron Energy =               -1269.9993689463890405
    Two-Electron Energy =                 510.4527907818988410
    Total Energy =                       -379.0518057221661934
  Basis Set: (AUG-CC-PVTZ AUX)
    Blend: AUG-CC-PVTZ-RI
    Molecular point group: c1

    Geometry (in Angstrom), charge = 0, multiplicity = 1:

       Center              X                  Y                   Z               Mass
    ------------   -----------------  -----------------  -----------------  -----------------
         O           -0.793256926034     1.267698940935    -0.280053882420    15.994914619570
         N            0.358761073966    -0.685231259065    -0.141216282420    14.003074004430
         N           -1.930389926034    -0.713540059065     0.029971117580    14.003074004430
         C            1.607973073966    -0.066694059065    -0.480762882420    12.000000000000
         C            2.309382073966     0.728166940935     0.575937117580    12.000000000000
         C            2.869132073966    -0.598605059065     0.140826117580    12.000000000000
         C           -0.782395926034     0.048494940935    -0.129458882420    12.000000000000
         C           -3.180063926034    -0.000960059065     0.255894117580    12.000000000000
         H            1.667714073966     0.311853940935    -1.500311882420     1.007825032230
         H            1.822597073966     0.777349940935     1.542923117580     1.007825032230
         H            2.816098073966     1.636741940935     0.270121117580     1.007825032230
         H            3.768728073966    -0.613435059065    -0.465380882420     1.007825032230
         H            2.765508073966    -1.434420059065     0.824542117580     1.007825032230
         H            0.276223073966    -1.661895059065    -0.468104882420     1.007825032230
         H           -1.807147926034    -1.558170059065     0.576909117580     1.007825032230
         H           -3.217711926034     0.493438940935     1.233413117580     1.007825032230
         H           -4.005044926034    -0.711145059065     0.175728117580     1.007825032230
         H           -3.285848926034     0.760850940935    -0.514959882420     1.007825032230

  Basis Set: AUG-CC-PVTZ
    Blend: AUG-CC-PVTZ
  Basis Set: (AUG-CC-PVTZ AUX)
    Blend: AUG-CC-PVTZ-JKFIT
	 Reference Energy          =    -379.0518057221661934 [Eh]
	 Singles Energy            =      -0.0000000000000000 [Eh]
	 Same-Spin Energy          =      -0.3906734508987161 [Eh]
	 Opposite-Spin Energy      =      -1.2594681086763710 [Eh]
	 Correlation Energy        =      -1.6501415595750872 [Eh]
	 Total Energy              =    -380.7019472817412975 [Eh]

	 ================> DF-SCS-MP2 Energies <==================
	-----------------------------------------------------------
	 SCS Same-Spin Scale       =       0.3333333333333333 [-]
	 SCS Opposite-Spin Scale   =       1.2000000000000000 [-]
	 SCS Same-Spin Energy      =      -0.1302244836329054 [Eh]
	 SCS Opposite-Spin Energy  =      -1.5113617304116451 [Eh]
	 SCS Correlation Energy    =      -1.6415862140445505 [Eh]
	 SCS Total Energy          =    -380.6933919362107304 [Eh]
	-----------------------------------------------------------

  Dipole Moment: [D]
     X:     0.1372      Y:    -3.3175      Z:     0.5670     Total:     3.3684

*** Psi4 exiting successfully. Buy a developer a beer!
