                               Psi4 1.3.2 release

  ==> Input File <==

--------------------------------------------------------------------------
#psi4
#
memory 32 gb

molecule  {
0 1
  O       -0.8024720     1.2871770    -0.2968200
  N        0.3743340    -0.6973860    -0.1281030
  N       -1.9396050    -0.6940620     0.0132050
  C        1.5860927    -0.0259279    -0.5011923
  C        2.3001670     0.7476450     0.5591710
  C        2.8599170    -0.5791270     0.1240600
  C       -0.7916110     0.0679730    -0.1462250
  C       -3.1892790     0.0185180     0.2391280
  H        1.6584990     0.3313320    -1.5170780
  H        1.8133820     0.7968280     1.5261570
  H        2.8068830     1.6562200     0.2533550
  H        3.7595130    -0.5939570    -0.4821470
  H        2.7562930    -1.4149420     0.8077760
  H        0.2670080    -1.6424170    -0.4848710
  H       -1.8163630    -1.5386920     0.5601430
  H       -3.2269270     0.5129170     1.2166470
  H       -4.0142600    -0.6916670     0.1589620
  H       -3.2950640     0.7803290    -0.5317260
units angstrom
no_reorient  #important for SAPT in psi4, default
symmetry c1  #important for SAPT in psi4, default
}

set PROPERTIES_ORIGIN ["COM"]
properties('MP2/aug-cc-pvtz', properties = ['dipole'])
--------------------------------------------------------------------------

    Molecular point group: c1
  Charge       = 0
  Multiplicity = 1
  Basis Set: AUG-CC-PVTZ
    Blend: AUG-CC-PVTZ
  Basis Set: (AUG-CC-PVTZ AUX)
    Blend: AUG-CC-PVTZ-JKFIT

    Orbital Energies [Eh]
    ---------------------

    Doubly Occupied:

       1A    -20.513371     2A    -15.581759     3A    -15.580634
       4A    -11.371062     5A    -11.264090     6A    -11.254891
       7A    -11.228511     8A    -11.224103     9A     -1.384897
      10A     -1.245234    11A     -1.212828    12A     -1.111873
      13A     -0.942724    14A     -0.829385    15A     -0.825822
      16A     -0.776078    17A     -0.738024    18A     -0.699658
      19A     -0.655900    20A     -0.624434    21A     -0.615780
      22A     -0.599762    23A     -0.560509    24A     -0.544433
      25A     -0.539455    26A     -0.515067    27A     -0.453468
      28A     -0.441264    29A     -0.417113    30A     -0.403189
      31A     -0.388442

  @DF-RHF Final Energy:  -379.05167131578048

   => Energetics <=

    Nuclear Repulsion Energy =            379.8473777838403294
    One-Electron Energy =               -1268.7105744710202089
    Two-Electron Energy =                 509.8115253713993980
    Total Energy =                       -379.0516713157804816
  Basis Set: (AUG-CC-PVTZ AUX)
    Blend: AUG-CC-PVTZ-RI
    Molecular point group: c1

    Geometry (in Angstrom), charge = 0, multiplicity = 1:

       Center              X                  Y                   Z               Mass
    ------------   -----------------  -----------------  -----------------  -----------------
         O           -0.794967355325     1.269342527616    -0.283336193996    15.994914619570
         N            0.381838644675    -0.715220472384    -0.114619193996    14.003074004430
         N           -1.932100355325    -0.711896472384     0.026688806004    14.003074004430
         C            1.593597344675    -0.043762372384    -0.487708493996    12.000000000000
         C            2.307671644675     0.729810527616     0.572654806004    12.000000000000
         C            2.867421644675    -0.596961472384     0.137543806004    12.000000000000
         C           -0.784106355325     0.050138527616    -0.132741193996    12.000000000000
         C           -3.181774355325     0.000683527616     0.252611806004    12.000000000000
         H            1.666003644675     0.313497527616    -1.503594193996     1.007825032230
         H            1.820886644675     0.778993527616     1.539640806004     1.007825032230
         H            2.814387644675     1.638385527616     0.266838806004     1.007825032230
         H            3.767017644675    -0.611791472384    -0.468663193996     1.007825032230
         H            2.763797644675    -1.432776472384     0.821259806004     1.007825032230
         H            0.274512644675    -1.660251472384    -0.471387193996     1.007825032230
         H           -1.808858355325    -1.556526472384     0.573626806004     1.007825032230
         H           -3.219422355325     0.495082527616     1.230130806004     1.007825032230
         H           -4.006755355325    -0.709501472384     0.172445806004     1.007825032230
         H           -3.287559355325     0.762494527616    -0.518242193996     1.007825032230

  Basis Set: AUG-CC-PVTZ
    Blend: AUG-CC-PVTZ
  Basis Set: (AUG-CC-PVTZ AUX)
    Blend: AUG-CC-PVTZ-JKFIT
	 Reference Energy          =    -379.0516713157804816 [Eh]
	 Singles Energy            =      -0.0000000000000000 [Eh]
	 Same-Spin Energy          =      -0.3907768643376029 [Eh]
	 Opposite-Spin Energy      =      -1.2601790499709611 [Eh]
	 Correlation Energy        =      -1.6509559143085641 [Eh]
	 Total Energy              =    -380.7026272300890355 [Eh]

	 ================> DF-SCS-MP2 Energies <==================
	-----------------------------------------------------------
	 SCS Same-Spin Scale       =       0.3333333333333333 [-]
	 SCS Opposite-Spin Scale   =       1.2000000000000000 [-]
	 SCS Same-Spin Energy      =      -0.1302589547792010 [Eh]
	 SCS Opposite-Spin Energy  =      -1.5122148599651533 [Eh]
	 SCS Correlation Energy    =      -1.6424738147443543 [Eh]
	 SCS Total Energy          =    -380.6941451305248165 [Eh]
	-----------------------------------------------------------

  Dipole Moment: [D]
     X:    -0.1175      Y:    -3.1637      Z:     0.4945     Total:     3.2042

*** Psi4 exiting successfully. Buy a developer a beer!
