                               Psi4 1.3.2 release

  ==> Input File <==

--------------------------------------------------------------------------
#psi4
#
memory 32 gb

molecule  {
0 1
  O       -0.8024720     1.2871770    -0.2968200
  N        0.3743340    -0.6973860    -0.1281030
  N       -1.9396050    -0.6940620     0.0132050
  C        1.7694432     0.0434179    -0.5490271
  C        2.3001670     0.7476450     0.5591710
  C        2.8599170    -0.5791270     0.1240600
  C       -0.7916110     0.0679730    -0.1462250
  C       -3.1892790     0.0185180     0.2391280
  H        1.6584990     0.3313320    -1.5170780
  H        1.8133820     0.7968280     1.5261570
  H        2.8068830     1.6562200     0.2533550
  H        3.7595130    -0.5939570    -0.4821470
  H        2.7562930    -1.4149420     0.8077760
  H        0.2670080    -1.6424170    -0.4848710
  H       -1.8163630    -1.5386920     0.5601430
  H       -3.2269270     0.5129170     1.2166470
  H       -4.0142600    -0.6916670     0.1589620
  H       -3.2950640     0.7803290    -0.5317260
units angstrom
no_reorient  #important for SAPT in psi4, default
symmetry c1  #important for SAPT in psi4, default
}

set PROPERTIES_ORIGIN ["COM"]
properties('MP2/aug-cc-pvtz', properties = ['dipole'])
--------------------------------------------------------------------------

    Molecular point group: c1
  Charge       = 0
  Multiplicity = 1
  Basis Set: AUG-CC-PVTZ
    Blend: AUG-CC-PVTZ
  Basis Set: (AUG-CC-PVTZ AUX)
    Blend: AUG-CC-PVTZ-JKFIT

    Orbital Energies [Eh]
    ---------------------

    Doubly Occupied:

       1A    -20.505027     2A    -15.573866     3A    -15.569488
       4A    -11.362717     5A    -11.272276     6A    -11.250272
       7A    -11.230795     8A    -11.225577     9A     -1.374378
      10A     -1.229012    11A     -1.205272    12A     -1.131443
      13A     -0.931667    14A     -0.841083    15A     -0.824548
      16A     -0.774704    17A     -0.723291    18A     -0.693916
      19A     -0.667077    20A     -0.628912    21A     -0.613002
      22A     -0.593682    23A     -0.545609    24A     -0.538997
      25A     -0.526834    26A     -0.513381    27A     -0.458301
      28A     -0.444014    29A     -0.424149    30A     -0.398641
      31A     -0.389073

  @DF-RHF Final Energy:  -379.01721066201588

   => Energetics <=

    Nuclear Repulsion Energy =            378.2120835970872008
    One-Electron Energy =               -1265.5365786833697257
    Two-Electron Energy =                 508.3072844242665838
    Total Energy =                       -379.0172106620158843
  Basis Set: (AUG-CC-PVTZ AUX)
    Blend: AUG-CC-PVTZ-RI
    Molecular point group: c1

    Geometry (in Angstrom), charge = 0, multiplicity = 1:

       Center              X                  Y                   Z               Mass
    ------------   -----------------  -----------------  -----------------  -----------------
         O           -0.814253989712     1.262048044695    -0.278304452612    15.994914619570
         N            0.362552010288    -0.722514955305    -0.109587452612    14.003074004430
         N           -1.951386989712    -0.719190955305     0.031720547388    14.003074004430
         C            1.757661210288     0.018288944695    -0.530511552612    12.000000000000
         C            2.288385010288     0.722516044695     0.577686547388    12.000000000000
         C            2.848135010288    -0.604255955305     0.142575547388    12.000000000000
         C           -0.803392989712     0.042844044695    -0.127709452612    12.000000000000
         C           -3.201060989712    -0.006610955305     0.257643547388    12.000000000000
         H            1.646717010288     0.306203044695    -1.498562452612     1.007825032230
         H            1.801600010288     0.771699044695     1.544672547388     1.007825032230
         H            2.795101010288     1.631091044695     0.271870547388     1.007825032230
         H            3.747731010288    -0.619085955305    -0.463631452612     1.007825032230
         H            2.744511010288    -1.440070955305     0.826291547388     1.007825032230
         H            0.255226010288    -1.667545955305    -0.466355452612     1.007825032230
         H           -1.828144989712    -1.563820955305     0.578658547388     1.007825032230
         H           -3.238708989712     0.487788044695     1.235162547388     1.007825032230
         H           -4.026041989712    -0.716795955305     0.177477547388     1.007825032230
         H           -3.306845989712     0.755200044695    -0.513210452612     1.007825032230

  Basis Set: AUG-CC-PVTZ
    Blend: AUG-CC-PVTZ
  Basis Set: (AUG-CC-PVTZ AUX)
    Blend: AUG-CC-PVTZ-JKFIT
	 Reference Energy          =    -379.0172106620158843 [Eh]
	 Singles Energy            =      -0.0000000000000000 [Eh]
	 Same-Spin Energy          =      -0.3910460076173271 [Eh]
	 Opposite-Spin Energy      =      -1.2608164955500811 [Eh]
	 Correlation Energy        =      -1.6518625031674081 [Eh]
	 Total Energy              =    -380.6690731651833062 [Eh]

	 ================> DF-SCS-MP2 Energies <==================
	-----------------------------------------------------------
	 SCS Same-Spin Scale       =       0.3333333333333333 [-]
	 SCS Opposite-Spin Scale   =       1.2000000000000000 [-]
	 SCS Same-Spin Energy      =      -0.1303486692057757 [Eh]
	 SCS Opposite-Spin Energy  =      -1.5129797946600974 [Eh]
	 SCS Correlation Energy    =      -1.6433284638658732 [Eh]
	 SCS Total Energy          =    -380.6605391258817690 [Eh]
	-----------------------------------------------------------

  Dipole Moment: [D]
     X:     0.4990      Y:    -3.0434      Z:     0.4057     Total:     3.1106

*** Psi4 exiting successfully. Buy a developer a beer!
