                               Psi4 1.3.2 release

  ==> Input File <==

--------------------------------------------------------------------------
#psi4
#
memory 32 gb

molecule  {
0 1
  O       -0.8024720     1.2871770    -0.2968200
  N        0.3743340    -0.6973860    -0.1281030
  N       -1.9396050    -0.6940620     0.0132050
  C        1.5500625     0.0714885    -0.4194882
  C        2.3001670     0.7476450     0.5591710
  C        2.8599170    -0.5791270     0.1240600
  C       -0.7916110     0.0679730    -0.1462250
  C       -3.1892790     0.0185180     0.2391280
  H        1.6584990     0.3313320    -1.5170780
  H        1.8133820     0.7968280     1.5261570
  H        2.8068830     1.6562200     0.2533550
  H        3.7595130    -0.5939570    -0.4821470
  H        2.7562930    -1.4149420     0.8077760
  H        0.2670080    -1.6424170    -0.4848710
  H       -1.8163630    -1.5386920     0.5601430
  H       -3.2269270     0.5129170     1.2166470
  H       -4.0142600    -0.6916670     0.1589620
  H       -3.2950640     0.7803290    -0.5317260
units angstrom
no_reorient  #important for SAPT in psi4, default
symmetry c1  #important for SAPT in psi4, default
}

set PROPERTIES_ORIGIN ["COM"]
properties('MP2/aug-cc-pvtz', properties = ['dipole'])
--------------------------------------------------------------------------

    Molecular point group: c1
  Charge       = 0
  Multiplicity = 1
  Basis Set: AUG-CC-PVTZ
    Blend: AUG-CC-PVTZ
  Basis Set: (AUG-CC-PVTZ AUX)
    Blend: AUG-CC-PVTZ-JKFIT

    Orbital Energies [Eh]
    ---------------------

    Doubly Occupied:

       1A    -20.514591     2A    -15.583315     3A    -15.580648
       4A    -11.370648     5A    -11.269321     6A    -11.255100
       7A    -11.225317     8A    -11.223371     9A     -1.386831
      10A     -1.246892    11A     -1.215146    12A     -1.122298
      13A     -0.942703    14A     -0.833599    15A     -0.821449
      16A     -0.774276    17A     -0.739360    18A     -0.699962
      19A     -0.660108    20A     -0.625884    21A     -0.617673
      22A     -0.598685    23A     -0.559722    24A     -0.543516
      25A     -0.533897    26A     -0.515335    27A     -0.473267
      28A     -0.442152    29A     -0.413610    30A     -0.400146
      31A     -0.380114

  @DF-RHF Final Energy:  -379.03675010268995

   => Energetics <=

    Nuclear Repulsion Energy =            380.7906201933507759
    One-Electron Energy =               -1270.5168700717531465
    Two-Electron Energy =                 510.6894997757123633
    Total Energy =                       -379.0367501026899504
  Basis Set: (AUG-CC-PVTZ AUX)
    Blend: AUG-CC-PVTZ-RI
    Molecular point group: c1

    Geometry (in Angstrom), charge = 0, multiplicity = 1:

       Center              X                  Y                   Z               Mass
    ------------   -----------------  -----------------  -----------------  -----------------
         O           -0.791177339512     1.259095299002    -0.291930646177    15.994914619570
         N            0.385628660488    -0.725467700998    -0.123213646177    14.003074004430
         N           -1.928310339512    -0.722143700998     0.018094353823    14.003074004430
         C            1.561357160488     0.043406799002    -0.414598846177    12.000000000000
         C            2.311461660488     0.719563299002     0.564060353823    12.000000000000
         C            2.871211660488    -0.607208700998     0.128949353823    12.000000000000
         C           -0.780316339512     0.039891299002    -0.141335646177    12.000000000000
         C           -3.177984339512    -0.009563700998     0.244017353823    12.000000000000
         H            1.669793660488     0.303250299002    -1.512188646177     1.007825032230
         H            1.824676660488     0.768746299002     1.531046353823     1.007825032230
         H            2.818177660488     1.628138299002     0.258244353823     1.007825032230
         H            3.770807660488    -0.622038700998    -0.477257646177     1.007825032230
         H            2.767587660488    -1.443023700998     0.812665353823     1.007825032230
         H            0.278302660488    -1.670498700998    -0.479981646177     1.007825032230
         H           -1.805068339512    -1.566773700998     0.565032353823     1.007825032230
         H           -3.215632339512     0.484835299002     1.221536353823     1.007825032230
         H           -4.002965339512    -0.719748700998     0.163851353823     1.007825032230
         H           -3.283769339512     0.752247299002    -0.526836646177     1.007825032230

  Basis Set: AUG-CC-PVTZ
    Blend: AUG-CC-PVTZ
  Basis Set: (AUG-CC-PVTZ AUX)
    Blend: AUG-CC-PVTZ-JKFIT
	 Reference Energy          =    -379.0367501026899504 [Eh]
	 Singles Energy            =      -0.0000000000000000 [Eh]
	 Same-Spin Energy          =      -0.3917037803168796 [Eh]
	 Opposite-Spin Energy      =      -1.2613689754423412 [Eh]
	 Correlation Energy        =      -1.6530727557592209 [Eh]
	 Total Energy              =    -380.6898228584491903 [Eh]

	 ================> DF-SCS-MP2 Energies <==================
	-----------------------------------------------------------
	 SCS Same-Spin Scale       =       0.3333333333333333 [-]
	 SCS Opposite-Spin Scale   =       1.2000000000000000 [-]
	 SCS Same-Spin Energy      =      -0.1305679267722932 [Eh]
	 SCS Opposite-Spin Energy  =      -1.5136427705308093 [Eh]
	 SCS Correlation Energy    =      -1.6442106973031025 [Eh]
	 SCS Total Energy          =    -380.6809607999930449 [Eh]
	-----------------------------------------------------------

  Dipole Moment: [D]
     X:    -0.1892      Y:    -3.0808      Z:     0.5518     Total:     3.1356

*** Psi4 exiting successfully. Buy a developer a beer!
