                               Psi4 1.3.2 release

  ==> Input File <==

--------------------------------------------------------------------------
#psi4
#
memory 32 gb

molecule  {
0 1
  O       -0.8024720     1.2871770    -0.2968200
  N        0.3743340    -0.6973860    -0.1281030
  N       -1.9396050    -0.6940620     0.0132050
  C        1.6110503    -0.0687021    -0.4937532
  C        2.3001670     0.7476450     0.5591710
  C        2.8599170    -0.5791270     0.1240600
  C       -0.7916110     0.0679730    -0.1462250
  C       -3.1892790     0.0185180     0.2391280
  H        1.6584990     0.3313320    -1.5170780
  H        1.8133820     0.7968280     1.5261570
  H        2.8068830     1.6562200     0.2533550
  H        3.7595130    -0.5939570    -0.4821470
  H        2.7562930    -1.4149420     0.8077760
  H        0.2670080    -1.6424170    -0.4848710
  H       -1.8163630    -1.5386920     0.5601430
  H       -3.2269270     0.5129170     1.2166470
  H       -4.0142600    -0.6916670     0.1589620
  H       -3.2950640     0.7803290    -0.5317260
units angstrom
no_reorient  #important for SAPT in psi4, default
symmetry c1  #important for SAPT in psi4, default
}

set PROPERTIES_ORIGIN ["COM"]
properties('MP2/aug-cc-pvtz', properties = ['dipole'])
--------------------------------------------------------------------------

    Molecular point group: c1
  Charge       = 0
  Multiplicity = 1
  Basis Set: AUG-CC-PVTZ
    Blend: AUG-CC-PVTZ
  Basis Set: (AUG-CC-PVTZ AUX)
    Blend: AUG-CC-PVTZ-JKFIT

    Orbital Energies [Eh]
    ---------------------

    Doubly Occupied:

       1A    -20.513190     2A    -15.581587     3A    -15.580842
       4A    -11.371865     5A    -11.264490     6A    -11.255003
       7A    -11.229064     8A    -11.222355     9A     -1.384450
      10A     -1.245723    11A     -1.213555    12A     -1.117000
      13A     -0.943077    14A     -0.831595    15A     -0.824295
      16A     -0.774698    17A     -0.738028    18A     -0.698303
      19A     -0.658162    20A     -0.625705    21A     -0.615572
      22A     -0.599738    23A     -0.559701    24A     -0.543758
      25A     -0.537092    26A     -0.515499    27A     -0.452000
      28A     -0.440380    29A     -0.427156    30A     -0.402967
      31A     -0.384833

  @DF-RHF Final Energy:  -379.05178350702516

   => Energetics <=

    Nuclear Repulsion Energy =            379.8415501676983581
    One-Electron Energy =               -1268.6833061784720940
    Two-Electron Energy =                 509.7899725037485155
    Total Energy =                       -379.0517835070251635
  Basis Set: (AUG-CC-PVTZ AUX)
    Blend: AUG-CC-PVTZ-RI
    Molecular point group: c1

    Geometry (in Angstrom), charge = 0, multiplicity = 1:

       Center              X                  Y                   Z               Mass
    ------------   -----------------  -----------------  -----------------  -----------------
         O           -0.797592644628     1.273841944616    -0.284118712734    15.994914619570
         N            0.379213355372    -0.710721055384    -0.115401712734    14.003074004430
         N           -1.934725644628    -0.707397055384     0.025906287266    14.003074004430
         C            1.615929655372    -0.082037155384    -0.481051912734    12.000000000000
         C            2.305046355372     0.734309944616     0.571872287266    12.000000000000
         C            2.864796355372    -0.592462055384     0.136761287266    12.000000000000
         C           -0.786731644628     0.054637944616    -0.133523712734    12.000000000000
         C           -3.184399644628     0.005182944616     0.251829287266    12.000000000000
         H            1.663378355372     0.317996944616    -1.504376712734     1.007825032230
         H            1.818261355372     0.783492944616     1.538858287266     1.007825032230
         H            2.811762355372     1.642884944616     0.266056287266     1.007825032230
         H            3.764392355372    -0.607292055384    -0.469445712734     1.007825032230
         H            2.761172355372    -1.428277055384     0.820477287266     1.007825032230
         H            0.271887355372    -1.655752055384    -0.472169712734     1.007825032230
         H           -1.811483644628    -1.552027055384     0.572844287266     1.007825032230
         H           -3.222047644628     0.499581944616     1.229348287266     1.007825032230
         H           -4.009380644628    -0.705002055384     0.171663287266     1.007825032230
         H           -3.290184644628     0.766993944616    -0.519024712734     1.007825032230

  Basis Set: AUG-CC-PVTZ
    Blend: AUG-CC-PVTZ
  Basis Set: (AUG-CC-PVTZ AUX)
    Blend: AUG-CC-PVTZ-JKFIT
	 Reference Energy          =    -379.0517835070251635 [Eh]
	 Singles Energy            =      -0.0000000000000000 [Eh]
	 Same-Spin Energy          =      -0.3907964552722027 [Eh]
	 Opposite-Spin Energy      =      -1.2599819769664835 [Eh]
	 Correlation Energy        =      -1.6507784322386863 [Eh]
	 Total Energy              =    -380.7025619392638305 [Eh]

	 ================> DF-SCS-MP2 Energies <==================
	-----------------------------------------------------------
	 SCS Same-Spin Scale       =       0.3333333333333333 [-]
	 SCS Opposite-Spin Scale   =       1.2000000000000000 [-]
	 SCS Same-Spin Energy      =      -0.1302654850907342 [Eh]
	 SCS Opposite-Spin Energy  =      -1.5119783723597802 [Eh]
	 SCS Correlation Energy    =      -1.6422438574505145 [Eh]
	 SCS Total Energy          =    -380.6940273644756871 [Eh]
	-----------------------------------------------------------

  Dipole Moment: [D]
     X:    -0.0913      Y:    -3.2016      Z:     0.4969     Total:     3.2412

*** Psi4 exiting successfully. Buy a developer a beer!
