                               Psi4 1.4a3.dev225

  ==> Input File <==

--------------------------------------------------------------------------
#psi4
#
memory 32 gb

molecule  {
0 1
  O       -0.8024720     1.2871770    -0.2968200
  N        0.3743340    -0.6973860    -0.1281030
  N       -1.9396050    -0.6940620     0.0132050
  C        1.6414293    -0.0245575    -0.5104035
  C        2.3001670     0.7476450     0.5591710
  C        2.8599170    -0.5791270     0.1240600
  C       -0.7916110     0.0679730    -0.1462250
  C       -3.1892790     0.0185180     0.2391280
  H        1.6584990     0.3313320    -1.5170780
  H        1.8133820     0.7968280     1.5261570
  H        2.8068830     1.6562200     0.2533550
  H        3.7595130    -0.5939570    -0.4821470
  H        2.7562930    -1.4149420     0.8077760
  H        0.2670080    -1.6424170    -0.4848710
  H       -1.8163630    -1.5386920     0.5601430
  H       -3.2269270     0.5129170     1.2166470
  H       -4.0142600    -0.6916670     0.1589620
  H       -3.2950640     0.7803290    -0.5317260
units angstrom
no_reorient  #important for SAPT in psi4, default
symmetry c1  #important for SAPT in psi4, default
}

set PROPERTIES_ORIGIN ["COM"]
properties('MP2/aug-cc-pvtz', properties = ['dipole'])
--------------------------------------------------------------------------

    Molecular point group: c1
  Charge       = 0
  Multiplicity = 1
  Basis Set: AUG-CC-PVTZ
    Blend: AUG-CC-PVTZ
  Basis Set: (AUG-CC-PVTZ AUX)
    Blend: AUG-CC-PVTZ-JKFIT

    Orbital Energies [Eh]
    ---------------------

    Doubly Occupied:

       1A    -20.511291     2A    -15.579602     3A    -15.579178
       4A    -11.369508     5A    -11.265229     6A    -11.253897
       7A    -11.228729     8A    -11.223266     9A     -1.381994
      10A     -1.239673    11A     -1.209073    12A     -1.120926
      13A     -0.939828    14A     -0.831665    15A     -0.823404
      16A     -0.775821    17A     -0.734321    18A     -0.697212
      19A     -0.657629    20A     -0.625957    21A     -0.615300
      22A     -0.598768    23A     -0.555325    24A     -0.543200
      25A     -0.535079    26A     -0.516848    27A     -0.449520
      28A     -0.439926    29A     -0.430131    30A     -0.402286
      31A     -0.389346

  @DF-RHF Final Energy:  -379.05015121716860

   => Energetics <=

    Nuclear Repulsion Energy =            379.4072321869579127
    One-Electron Energy =               -1267.8668981683706534
    Two-Electron Energy =                 509.4095147642441361
    Total Energy =                       -379.0501512171686045
  Basis Set: (AUG-CC-PVTZ AUX)
    Blend: AUG-CC-PVTZ-RI
    Molecular point group: c1

    Geometry (in Angstrom), charge = 0, multiplicity = 1:

       Center              X                  Y                   Z               Mass
    ------------   -----------------  -----------------  -----------------  -----------------
         O           -0.800788210858     1.269198375275    -0.282367268104    15.994914619570
         N            0.376017789142    -0.715364624725    -0.113650268104    14.003074004430
         N           -1.937921210858    -0.712040624725     0.027657731896    14.003074004430
         C            1.643113089142    -0.042536124725    -0.495950768104    12.000000000000
         C            2.301850789142     0.729666375275     0.573623731896    12.000000000000
         C            2.861600789142    -0.597105624725     0.138512731896    12.000000000000
         C           -0.789927210858     0.049994375275    -0.131772268104    12.000000000000
         C           -3.187595210858     0.000539375275     0.253580731896    12.000000000000
         H            1.660182789142     0.313353375275    -1.502625268104     1.007825032230
         H            1.815065789142     0.778849375275     1.540609731896     1.007825032230
         H            2.808566789142     1.638241375275     0.267807731896     1.007825032230
         H            3.761196789142    -0.611935624725    -0.467694268104     1.007825032230
         H            2.757976789142    -1.432920624725     0.822228731896     1.007825032230
         H            0.268691789142    -1.660395624725    -0.470418268104     1.007825032230
         H           -1.814679210858    -1.556670624725     0.574595731896     1.007825032230
         H           -3.225243210858     0.494938375275     1.231099731896     1.007825032230
         H           -4.012576210858    -0.709645624725     0.173414731896     1.007825032230
         H           -3.293380210858     0.762350375275    -0.517273268104     1.007825032230

  Basis Set: AUG-CC-PVTZ
    Blend: AUG-CC-PVTZ
  Basis Set: (AUG-CC-PVTZ AUX)
    Blend: AUG-CC-PVTZ-JKFIT
	 Reference Energy          =    -379.0501512171686045 [Eh]
	 Singles Energy            =      -0.0000000000000000 [Eh]
	 Same-Spin Energy          =      -0.3905409781683212 [Eh]
	 Opposite-Spin Energy      =      -1.2597401692836021 [Eh]
	 Correlation Energy        =      -1.6502811474519232 [Eh]
	 Total Energy              =    -380.7004323646205535 [Eh]

	 ================> DF-SCS-MP2 Energies <==================
	-----------------------------------------------------------
	 SCS Same-Spin Scale       =       0.3333333333333333 [-]
	 SCS Opposite-Spin Scale   =       1.2000000000000000 [-]
	 SCS Same-Spin Energy      =      -0.1301803260561070 [Eh]
	 SCS Opposite-Spin Energy  =      -1.5116882031403225 [Eh]
	 SCS Correlation Energy    =      -1.6418685291964294 [Eh]
	 SCS Total Energy          =    -380.6920197463650197 [Eh]
	-----------------------------------------------------------

  Dipole Moment: [D]
     X:     0.0409      Y:    -3.1490      Z:     0.4644     Total:     3.1833

*** Psi4 exiting successfully. Buy a developer a beer!
