                               Psi4 1.3.2 release

  ==> Input File <==

--------------------------------------------------------------------------
#psi4
#
memory 32 gb

molecule  {
0 1
  O       -0.8024720     1.2871770    -0.2968200
  N        0.3743340    -0.6973860    -0.1281030
  N       -1.9396050    -0.6940620     0.0132050
  C        1.5677549     0.0327939    -0.4458995
  C        2.3001670     0.7476450     0.5591710
  C        2.8599170    -0.5791270     0.1240600
  C       -0.7916110     0.0679730    -0.1462250
  C       -3.1892790     0.0185180     0.2391280
  H        1.6584990     0.3313320    -1.5170780
  H        1.8133820     0.7968280     1.5261570
  H        2.8068830     1.6562200     0.2533550
  H        3.7595130    -0.5939570    -0.4821470
  H        2.7562930    -1.4149420     0.8077760
  H        0.2670080    -1.6424170    -0.4848710
  H       -1.8163630    -1.5386920     0.5601430
  H       -3.2269270     0.5129170     1.2166470
  H       -4.0142600    -0.6916670     0.1589620
  H       -3.2950640     0.7803290    -0.5317260
units angstrom
no_reorient  #important for SAPT in psi4, default
symmetry c1  #important for SAPT in psi4, default
}

set PROPERTIES_ORIGIN ["COM"]
properties('MP2/aug-cc-pvtz', properties = ['dipole'])
--------------------------------------------------------------------------

    Molecular point group: c1
  Charge       = 0
  Multiplicity = 1
  Basis Set: AUG-CC-PVTZ
    Blend: AUG-CC-PVTZ
  Basis Set: (AUG-CC-PVTZ AUX)
    Blend: AUG-CC-PVTZ-JKFIT

    Orbital Energies [Eh]
    ---------------------

    Doubly Occupied:

       1A    -20.513997     2A    -15.582479     3A    -15.580586
       4A    -11.370776     5A    -11.266717     6A    -11.254986
       7A    -11.225213     8A    -11.224349     9A     -1.385924
      10A     -1.246224    11A     -1.214360    12A     -1.119633
      13A     -0.942674    14A     -0.831789    15A     -0.823167
      16A     -0.774487    17A     -0.738597    18A     -0.699907
      19A     -0.659172    20A     -0.625655    21A     -0.616939
      22A     -0.599054    23A     -0.559734    24A     -0.543550
      25A     -0.535606    26A     -0.515386    27A     -0.463980
      28A     -0.441994    29A     -0.415340    30A     -0.401599
      31A     -0.385889

  @DF-RHF Final Energy:  -379.04548148890154

   => Energetics <=

    Nuclear Repulsion Energy =            380.4917764596871166
    One-Electron Energy =               -1269.9549912841114292
    Two-Electron Energy =                 510.4177333355227688
    Total Energy =                       -379.0454814889015438
  Basis Set: (AUG-CC-PVTZ AUX)
    Blend: AUG-CC-PVTZ-RI
    Molecular point group: c1

    Geometry (in Angstrom), charge = 0, multiplicity = 1:

       Center              X                  Y                   Z               Mass
    ------------   -----------------  -----------------  -----------------  -----------------
         O           -0.793038402614     1.263165582982    -0.289152442208    15.994914619570
         N            0.383767597386    -0.721397417018    -0.120435442208    14.003074004430
         N           -1.930171402614    -0.718073417018     0.020872557792    14.003074004430
         C            1.577188497386     0.008782482982    -0.438231942208    12.000000000000
         C            2.309600597386     0.723633582982     0.566838557792    12.000000000000
         C            2.869350597386    -0.603138417018     0.131727557792    12.000000000000
         C           -0.782177402614     0.043961582982    -0.138557442208    12.000000000000
         C           -3.179845402614    -0.005493417018     0.246795557792    12.000000000000
         H            1.667932597386     0.307320582982    -1.509410442208     1.007825032230
         H            1.822815597386     0.772816582982     1.533824557792     1.007825032230
         H            2.816316597386     1.632208582982     0.261022557792     1.007825032230
         H            3.768946597386    -0.617968417018    -0.474479442208     1.007825032230
         H            2.765726597386    -1.438953417018     0.815443557792     1.007825032230
         H            0.276441597386    -1.666428417018    -0.477203442208     1.007825032230
         H           -1.806929402614    -1.562703417018     0.567810557792     1.007825032230
         H           -3.217493402614     0.488905582982     1.224314557792     1.007825032230
         H           -4.004826402614    -0.715678417018     0.166629557792     1.007825032230
         H           -3.285630402614     0.756317582982    -0.524058442208     1.007825032230

  Basis Set: AUG-CC-PVTZ
    Blend: AUG-CC-PVTZ
  Basis Set: (AUG-CC-PVTZ AUX)
    Blend: AUG-CC-PVTZ-JKFIT
	 Reference Energy          =    -379.0454814889015438 [Eh]
	 Singles Energy            =      -0.0000000000000000 [Eh]
	 Same-Spin Energy          =      -0.3912165263500514 [Eh]
	 Opposite-Spin Energy      =      -1.2605701298531093 [Eh]
	 Correlation Energy        =      -1.6517866562031607 [Eh]
	 Total Energy              =    -380.6972681451047151 [Eh]

	 ================> DF-SCS-MP2 Energies <==================
	-----------------------------------------------------------
	 SCS Same-Spin Scale       =       0.3333333333333333 [-]
	 SCS Opposite-Spin Scale   =       1.2000000000000000 [-]
	 SCS Same-Spin Energy      =      -0.1304055087833505 [Eh]
	 SCS Opposite-Spin Energy  =      -1.5126841558237312 [Eh]
	 SCS Correlation Energy    =      -1.6430896646070816 [Eh]
	 SCS Total Energy          =    -380.6885711535086330 [Eh]
	-----------------------------------------------------------

  Dipole Moment: [D]
     X:    -0.1513      Y:    -3.1149      Z:     0.5314     Total:     3.1635

*** Psi4 exiting successfully. Buy a developer a beer!
