                               Psi4 1.4a3.dev225

  ==> Input File <==

--------------------------------------------------------------------------
#psi4
#
memory 32 gb

molecule  {
0 1
  O       -0.8024720     1.2871770    -0.2968200
  N        0.3743340    -0.6973860    -0.1281030
  N       -1.9396050    -0.6940620     0.0132050
  C        1.5816895    -0.0562794    -0.4923792
  C        2.3001670     0.7476450     0.5591710
  C        2.8599170    -0.5791270     0.1240600
  C       -0.7916110     0.0679730    -0.1462250
  C       -3.1892790     0.0185180     0.2391280
  H        1.6584990     0.3313320    -1.5170780
  H        1.8133820     0.7968280     1.5261570
  H        2.8068830     1.6562200     0.2533550
  H        3.7595130    -0.5939570    -0.4821470
  H        2.7562930    -1.4149420     0.8077760
  H        0.2670080    -1.6424170    -0.4848710
  H       -1.8163630    -1.5386920     0.5601430
  H       -3.2269270     0.5129170     1.2166470
  H       -4.0142600    -0.6916670     0.1589620
  H       -3.2950640     0.7803290    -0.5317260
units angstrom
no_reorient  #important for SAPT in psi4, default
symmetry c1  #important for SAPT in psi4, default
}

set PROPERTIES_ORIGIN ["COM"]
properties('MP2/aug-cc-pvtz', properties = ['dipole'])
--------------------------------------------------------------------------

    Molecular point group: c1
  Charge       = 0
  Multiplicity = 1
  Basis Set: AUG-CC-PVTZ
    Blend: AUG-CC-PVTZ
  Basis Set: (AUG-CC-PVTZ AUX)
    Blend: AUG-CC-PVTZ-JKFIT

    Orbital Energies [Eh]
    ---------------------

    Doubly Occupied:

       1A    -20.514058     2A    -15.582300     3A    -15.581335
       4A    -11.372190     5A    -11.263920     6A    -11.255346
       7A    -11.228893     8A    -11.223253     9A     -1.385774
      10A     -1.248317    11A     -1.214912    12A     -1.111587
      13A     -0.944190    14A     -0.830824    15A     -0.825337
      16A     -0.775254    17A     -0.739494    18A     -0.699634
      19A     -0.657080    20A     -0.624932    21A     -0.615930
      22A     -0.600032    23A     -0.562013    24A     -0.544230
      25A     -0.539230    26A     -0.514793    27A     -0.453391
      28A     -0.441809    29A     -0.418652    30A     -0.403463
      31A     -0.385366

  @DF-RHF Final Energy:  -379.05145794936300

   => Energetics <=

    Nuclear Repulsion Energy =            380.0290467196672353
    One-Electron Energy =               -1269.0459285485683267
    Two-Electron Energy =                 509.9654238795380934
    Total Energy =                       -379.0514579493629981
  Basis Set: (AUG-CC-PVTZ AUX)
    Blend: AUG-CC-PVTZ-RI
    Molecular point group: c1

    Geometry (in Angstrom), charge = 0, multiplicity = 1:

       Center              X                  Y                   Z               Mass
    ------------   -----------------  -----------------  -----------------  -----------------
         O           -0.794504182830     1.272535201122    -0.284263243759    15.994914619570
         N            0.382301817170    -0.712027798878    -0.115546243759    14.003074004430
         N           -1.931637182830    -0.708703798878     0.025761756241    14.003074004430
         C            1.589657317170    -0.070921198878    -0.479822443759    12.000000000000
         C            2.308134817170     0.733003201122     0.571727756241    12.000000000000
         C            2.867884817170    -0.593768798878     0.136616756241    12.000000000000
         C           -0.783643182830     0.053331201122    -0.133668243759    12.000000000000
         C           -3.181311182830     0.003876201122     0.251684756241    12.000000000000
         H            1.666466817170     0.316690201122    -1.504521243759     1.007825032230
         H            1.821349817170     0.782186201122     1.538713756241     1.007825032230
         H            2.814850817170     1.641578201122     0.265911756241     1.007825032230
         H            3.767480817170    -0.608598798878    -0.469590243759     1.007825032230
         H            2.764260817170    -1.429583798878     0.820332756241     1.007825032230
         H            0.274975817170    -1.657058798878    -0.472314243759     1.007825032230
         H           -1.808395182830    -1.553333798878     0.572699756241     1.007825032230
         H           -3.218959182830     0.498275201122     1.229203756241     1.007825032230
         H           -4.006292182830    -0.706308798878     0.171518756241     1.007825032230
         H           -3.287096182830     0.765687201122    -0.519169243759     1.007825032230

  Basis Set: AUG-CC-PVTZ
    Blend: AUG-CC-PVTZ
  Basis Set: (AUG-CC-PVTZ AUX)
    Blend: AUG-CC-PVTZ-JKFIT
	 Reference Energy          =    -379.0514579493629981 [Eh]
	 Singles Energy            =      -0.0000000000000000 [Eh]
	 Same-Spin Energy          =      -0.3909172932929346 [Eh]
	 Opposite-Spin Energy      =      -1.2602597406135012 [Eh]
	 Correlation Energy        =      -1.6511770339064358 [Eh]
	 Total Energy              =    -380.7026349832694336 [Eh]

	 ================> DF-SCS-MP2 Energies <==================
	-----------------------------------------------------------
	 SCS Same-Spin Scale       =       0.3333333333333333 [-]
	 SCS Opposite-Spin Scale   =       1.2000000000000000 [-]
	 SCS Same-Spin Energy      =      -0.1303057644309782 [Eh]
	 SCS Opposite-Spin Energy  =      -1.5123116887362014 [Eh]
	 SCS Correlation Energy    =      -1.6426174531671796 [Eh]
	 SCS Total Energy          =    -380.6940754025301885 [Eh]
	-----------------------------------------------------------

  Dipole Moment: [D]
     X:    -0.1614      Y:    -3.1957      Z:     0.5100     Total:     3.2402

*** Psi4 exiting successfully. Buy a developer a beer!
