                               Psi4 1.3.2 release

  ==> Input File <==

--------------------------------------------------------------------------
#psi4
#
memory 32 gb

molecule  {
0 1
  O       -0.8024720     1.2871770    -0.2968200
  N        0.3743340    -0.6973860    -0.1281030
  N       -1.9396050    -0.6940620     0.0132050
  C        1.5134154    -0.0925330    -0.4717799
  C        2.3001670     0.7476450     0.5591710
  C        2.8599170    -0.5791270     0.1240600
  C       -0.7916110     0.0679730    -0.1462250
  C       -3.1892790     0.0185180     0.2391280
  H        1.6584990     0.3313320    -1.5170780
  H        1.8133820     0.7968280     1.5261570
  H        2.8068830     1.6562200     0.2533550
  H        3.7595130    -0.5939570    -0.4821470
  H        2.7562930    -1.4149420     0.8077760
  H        0.2670080    -1.6424170    -0.4848710
  H       -1.8163630    -1.5386920     0.5601430
  H       -3.2269270     0.5129170     1.2166470
  H       -4.0142600    -0.6916670     0.1589620
  H       -3.2950640     0.7803290    -0.5317260
units angstrom
no_reorient  #important for SAPT in psi4, default
symmetry c1  #important for SAPT in psi4, default
}

set PROPERTIES_ORIGIN ["COM"]
properties('MP2/aug-cc-pvtz', properties = ['dipole'])
--------------------------------------------------------------------------

    Molecular point group: c1
  Charge       = 0
  Multiplicity = 1
  Basis Set: AUG-CC-PVTZ
    Blend: AUG-CC-PVTZ
  Basis Set: (AUG-CC-PVTZ AUX)
    Blend: AUG-CC-PVTZ-JKFIT

    Orbital Energies [Eh]
    ---------------------

    Doubly Occupied:

       1A    -20.517350     2A    -15.584288     3A    -15.583782
       4A    -11.375137     5A    -11.263545     6A    -11.256967
       7A    -11.229668     8A    -11.223745     9A     -1.390855
      10A     -1.263907    11A     -1.221545    12A     -1.099308
      13A     -0.949955    14A     -0.837287    15A     -0.824330
      16A     -0.775354    17A     -0.745740    18A     -0.701447
      19A     -0.658642    20A     -0.625247    21A     -0.618033
      22A     -0.601270    23A     -0.568947    24A     -0.545003
      25A     -0.539900    26A     -0.513355    27A     -0.459628
      28A     -0.445331    29A     -0.405638    30A     -0.401621
      31A     -0.376686

  @DF-RHF Final Energy:  -379.03809903285713

   => Energetics <=

    Nuclear Repulsion Energy =            380.8241776549728570
    One-Electron Energy =               -1270.5175290032041175
    Two-Electron Energy =                 510.6552523153741845
    Total Energy =                       -379.0380990328571329
  Basis Set: (AUG-CC-PVTZ AUX)
    Blend: AUG-CC-PVTZ-RI
    Molecular point group: c1

    Geometry (in Angstrom), charge = 0, multiplicity = 1:

       Center              X                  Y                   Z               Mass
    ------------   -----------------  -----------------  -----------------  -----------------
         O           -0.787322432004     1.276348716375    -0.286430083597    15.994914619570
         N            0.389483567996    -0.708214283625    -0.117713083597    14.003074004430
         N           -1.924455432004    -0.704890283625     0.023594916403    14.003074004430
         C            1.528564967996    -0.103361283625    -0.461389983597    12.000000000000
         C            2.315316567996     0.736816716375     0.569560916403    12.000000000000
         C            2.875066567996    -0.589955283625     0.134449916403    12.000000000000
         C           -0.776461432004     0.057144716375    -0.135835083597    12.000000000000
         C           -3.174129432004     0.007689716375     0.249517916403    12.000000000000
         H            1.673648567996     0.320503716375    -1.506688083597     1.007825032230
         H            1.828531567996     0.785999716375     1.536546916403     1.007825032230
         H            2.822032567996     1.645391716375     0.263744916403     1.007825032230
         H            3.774662567996    -0.604785283625    -0.471757083597     1.007825032230
         H            2.771442567996    -1.425770283625     0.818165916403     1.007825032230
         H            0.282157567996    -1.653245283625    -0.474481083597     1.007825032230
         H           -1.801213432004    -1.549520283625     0.570532916403     1.007825032230
         H           -3.211777432004     0.502088716375     1.227036916403     1.007825032230
         H           -3.999110432004    -0.702495283625     0.169351916403     1.007825032230
         H           -3.279914432004     0.769500716375    -0.521336083597     1.007825032230

  Basis Set: AUG-CC-PVTZ
    Blend: AUG-CC-PVTZ
  Basis Set: (AUG-CC-PVTZ AUX)
    Blend: AUG-CC-PVTZ-JKFIT
	 Reference Energy          =    -379.0380990328571329 [Eh]
	 Singles Energy            =      -0.0000000000000000 [Eh]
	 Same-Spin Energy          =      -0.3919123479336414 [Eh]
	 Opposite-Spin Energy      =      -1.2618143243840156 [Eh]
	 Correlation Energy        =      -1.6537266723176569 [Eh]
	 Total Energy              =    -380.6918257051747787 [Eh]

	 ================> DF-SCS-MP2 Energies <==================
	-----------------------------------------------------------
	 SCS Same-Spin Scale       =       0.3333333333333333 [-]
	 SCS Opposite-Spin Scale   =       1.2000000000000000 [-]
	 SCS Same-Spin Energy      =      -0.1306374493112138 [Eh]
	 SCS Opposite-Spin Energy  =      -1.5141771892608187 [Eh]
	 SCS Correlation Energy    =      -1.6448146385720324 [Eh]
	 SCS Total Energy          =    -380.6829136714291622 [Eh]
	-----------------------------------------------------------

  Dipole Moment: [D]
     X:    -0.4016      Y:    -3.2522      Z:     0.5808     Total:     3.3279

*** Psi4 exiting successfully. Buy a developer a beer!
