                               Psi4 1.3.2 release

  ==> Input File <==

--------------------------------------------------------------------------
#psi4
#
memory 32 gb

molecule  {
0 1
  O       -0.8024720     1.2871770    -0.2968200
  N        0.4006138    -0.7282267    -0.0986737
  N       -1.9396050    -0.6940620     0.0132050
  C        1.5987580    -0.0472160    -0.4975290
  C        2.3001670     0.7476450     0.5591710
  C        2.8599170    -0.5791270     0.1240600
  C       -0.7916110     0.0679730    -0.1462250
  C       -3.1892790     0.0185180     0.2391280
  H        1.6584990     0.3313320    -1.5170780
  H        1.8133820     0.7968280     1.5261570
  H        2.8068830     1.6562200     0.2533550
  H        3.7595130    -0.5939570    -0.4821470
  H        2.7562930    -1.4149420     0.8077760
  H        0.2670080    -1.6424170    -0.4848710
  H       -1.8163630    -1.5386920     0.5601430
  H       -3.2269270     0.5129170     1.2166470
  H       -4.0142600    -0.6916670     0.1589620
  H       -3.2950640     0.7803290    -0.5317260
units angstrom
no_reorient  #important for SAPT in psi4, default
symmetry c1  #important for SAPT in psi4, default
}

set PROPERTIES_ORIGIN ["COM"]
properties('MP2/aug-cc-pvtz', properties = ['dipole'])
--------------------------------------------------------------------------

    Molecular point group: c1
  Charge       = 0
  Multiplicity = 1
  Basis Set: AUG-CC-PVTZ
    Blend: AUG-CC-PVTZ
  Basis Set: (AUG-CC-PVTZ AUX)
    Blend: AUG-CC-PVTZ-JKFIT

    Orbital Energies [Eh]
    ---------------------

    Doubly Occupied:

       1A    -20.519219     2A    -15.583170     3A    -15.581049
       4A    -11.375956     5A    -11.262513     6A    -11.256454
       7A    -11.226135     8A    -11.222170     9A     -1.385147
      10A     -1.244173    11A     -1.213667    12A     -1.110344
      13A     -0.943688    14A     -0.827795    15A     -0.820398
      16A     -0.777577    17A     -0.733250    18A     -0.700156
      19A     -0.654758    20A     -0.624359    21A     -0.619044
      22A     -0.599841    23A     -0.559017    24A     -0.544749
      25A     -0.539694    26A     -0.513749    27A     -0.452234
      28A     -0.444872    29A     -0.419320    30A     -0.404369
      31A     -0.388141

  @DF-RHF Final Energy:  -379.04928870784983

   => Energetics <=

    Nuclear Repulsion Energy =            379.1964069072135999
    One-Electron Energy =               -1267.3973736360187559
    Two-Electron Energy =                 509.1516780209553303
    Total Energy =                       -379.0492887078498256
  Basis Set: (AUG-CC-PVTZ AUX)
    Blend: AUG-CC-PVTZ-RI
    Molecular point group: c1

    Geometry (in Angstrom), charge = 0, multiplicity = 1:

       Center              X                  Y                   Z               Mass
    ------------   -----------------  -----------------  -----------------  -----------------
         O           -0.799525426116     1.275367474530    -0.287333941300    15.994914619570
         N            0.403560373884    -0.740036225470    -0.089187641300    14.003074004430
         N           -1.936658426116    -0.705871525470     0.022691058700    14.003074004430
         C            1.601704573884    -0.059025525470    -0.488042941300    12.000000000000
         C            2.303113573884     0.735835474530     0.568657058700    12.000000000000
         C            2.862863573884    -0.590936525470     0.133546058700    12.000000000000
         C           -0.788664426116     0.056163474530    -0.136738941300    12.000000000000
         C           -3.186332426116     0.006708474530     0.248614058700    12.000000000000
         H            1.661445573884     0.319522474530    -1.507591941300     1.007825032230
         H            1.816328573884     0.785018474530     1.535643058700     1.007825032230
         H            2.809829573884     1.644410474530     0.262841058700     1.007825032230
         H            3.762459573884    -0.605766525470    -0.472660941300     1.007825032230
         H            2.759239573884    -1.426751525470     0.817262058700     1.007825032230
         H            0.269954573884    -1.654226525470    -0.475384941300     1.007825032230
         H           -1.813416426116    -1.550501525470     0.569629058700     1.007825032230
         H           -3.223980426116     0.501107474530     1.226133058700     1.007825032230
         H           -4.011313426116    -0.703476525470     0.168448058700     1.007825032230
         H           -3.292117426116     0.768519474530    -0.522239941300     1.007825032230

  Basis Set: AUG-CC-PVTZ
    Blend: AUG-CC-PVTZ
  Basis Set: (AUG-CC-PVTZ AUX)
    Blend: AUG-CC-PVTZ-JKFIT
	 Reference Energy          =    -379.0492887078498256 [Eh]
	 Singles Energy            =      -0.0000000000000000 [Eh]
	 Same-Spin Energy          =      -0.3909552270721389 [Eh]
	 Opposite-Spin Energy      =      -1.2608628577894430 [Eh]
	 Correlation Energy        =      -1.6518180848615818 [Eh]
	 Total Energy              =    -380.7011067927114141 [Eh]

	 ================> DF-SCS-MP2 Energies <==================
	-----------------------------------------------------------
	 SCS Same-Spin Scale       =       0.3333333333333333 [-]
	 SCS Opposite-Spin Scale   =       1.2000000000000000 [-]
	 SCS Same-Spin Energy      =      -0.1303184090240463 [Eh]
	 SCS Opposite-Spin Energy  =      -1.5130354293473316 [Eh]
	 SCS Correlation Energy    =      -1.6433538383713779 [Eh]
	 SCS Total Energy          =    -380.6926425462211796 [Eh]
	-----------------------------------------------------------

  Dipole Moment: [D]
     X:    -0.3394      Y:    -3.0472      Z:     0.4242     Total:     3.0953

*** Psi4 exiting successfully. Buy a developer a beer!
