                               Psi4 1.3.2 release

  ==> Input File <==

--------------------------------------------------------------------------
#psi4
#
memory 32 gb

molecule  {
0 1
  O       -0.8024720     1.2871770    -0.2968200
  N        0.4283533    -0.7582376    -0.0697303
  N       -1.9396050    -0.6940620     0.0132050
  C        1.5987580    -0.0472160    -0.4975290
  C        2.3001670     0.7476450     0.5591710
  C        2.8599170    -0.5791270     0.1240600
  C       -0.7916110     0.0679730    -0.1462250
  C       -3.1892790     0.0185180     0.2391280
  H        1.6584990     0.3313320    -1.5170780
  H        1.8133820     0.7968280     1.5261570
  H        2.8068830     1.6562200     0.2533550
  H        3.7595130    -0.5939570    -0.4821470
  H        2.7562930    -1.4149420     0.8077760
  H        0.2670080    -1.6424170    -0.4848710
  H       -1.8163630    -1.5386920     0.5601430
  H       -3.2269270     0.5129170     1.2166470
  H       -4.0142600    -0.6916670     0.1589620
  H       -3.2950640     0.7803290    -0.5317260
units angstrom
no_reorient  #important for SAPT in psi4, default
symmetry c1  #important for SAPT in psi4, default
}

set PROPERTIES_ORIGIN ["COM"]
properties('MP2/aug-cc-pvtz', properties = ['dipole'])
--------------------------------------------------------------------------

    Molecular point group: c1
  Charge       = 0
  Multiplicity = 1
  Basis Set: AUG-CC-PVTZ
    Blend: AUG-CC-PVTZ
  Basis Set: (AUG-CC-PVTZ AUX)
    Blend: AUG-CC-PVTZ-JKFIT

    Orbital Energies [Eh]
    ---------------------

    Doubly Occupied:

       1A    -20.524622     2A    -15.585527     3A    -15.581076
       4A    -11.379832     5A    -11.261074     6A    -11.257881
       7A    -11.223678     8A    -11.221275     9A     -1.385938
      10A     -1.242974    11A     -1.214081    12A     -1.106378
      13A     -0.944546    14A     -0.826003    15A     -0.816026
      16A     -0.779428    17A     -0.727457    18A     -0.701419
      19A     -0.652882    20A     -0.623704    21A     -0.621905
      22A     -0.599397    23A     -0.558143    24A     -0.545821
      25A     -0.540421    26A     -0.512333    27A     -0.452182
      28A     -0.448619    29A     -0.416435    30A     -0.404846
      31A     -0.389435

  @DF-RHF Final Energy:  -379.04353826218136

   => Energetics <=

    Nuclear Repulsion Energy =            378.5509363623883701
    One-Electron Energy =               -1266.0982690234277470
    Two-Electron Energy =                 508.5037943988580196
    Total Energy =                       -379.0435382621813574
  Basis Set: (AUG-CC-PVTZ AUX)
    Blend: AUG-CC-PVTZ-RI
    Molecular point group: c1

    Geometry (in Angstrom), charge = 0, multiplicity = 1:

       Center              X                  Y                   Z               Mass
    ------------   -----------------  -----------------  -----------------  -----------------
         O           -0.802930410432     1.279051269977    -0.290886702635    15.994914619570
         N            0.427894889568    -0.766363330023    -0.063797002635    14.003074004430
         N           -1.940063410432    -0.702187730023     0.019138297365    14.003074004430
         C            1.598299589568    -0.055341730023    -0.491595702635    12.000000000000
         C            2.299708589568     0.739519269977     0.565104297365    12.000000000000
         C            2.859458589568    -0.587252730023     0.129993297365    12.000000000000
         C           -0.792069410432     0.059847269977    -0.140291702635    12.000000000000
         C           -3.189737410432     0.010392269977     0.245061297365    12.000000000000
         H            1.658040589568     0.323206269977    -1.511144702635     1.007825032230
         H            1.812923589568     0.788702269977     1.532090297365     1.007825032230
         H            2.806424589568     1.648094269977     0.259288297365     1.007825032230
         H            3.759054589568    -0.602082730023    -0.476213702635     1.007825032230
         H            2.755834589568    -1.423067730023     0.813709297365     1.007825032230
         H            0.266549589568    -1.650542730023    -0.478937702635     1.007825032230
         H           -1.816821410432    -1.546817730023     0.566076297365     1.007825032230
         H           -3.227385410432     0.504791269977     1.222580297365     1.007825032230
         H           -4.014718410432    -0.699792730023     0.164895297365     1.007825032230
         H           -3.295522410432     0.772203269977    -0.525792702635     1.007825032230

  Basis Set: AUG-CC-PVTZ
    Blend: AUG-CC-PVTZ
  Basis Set: (AUG-CC-PVTZ AUX)
    Blend: AUG-CC-PVTZ-JKFIT
	 Reference Energy          =    -379.0435382621813574 [Eh]
	 Singles Energy            =      -0.0000000000000000 [Eh]
	 Same-Spin Energy          =      -0.3912558748262957 [Eh]
	 Opposite-Spin Energy      =      -1.2619580150163892 [Eh]
	 Correlation Energy        =      -1.6532138898426849 [Eh]
	 Total Energy              =    -380.6967521520240325 [Eh]

	 ================> DF-SCS-MP2 Energies <==================
	-----------------------------------------------------------
	 SCS Same-Spin Scale       =       0.3333333333333333 [-]
	 SCS Opposite-Spin Scale   =       1.2000000000000000 [-]
	 SCS Same-Spin Energy      =      -0.1304186249420985 [Eh]
	 SCS Opposite-Spin Energy  =      -1.5143496180196669 [Eh]
	 SCS Correlation Energy    =      -1.6447682429617654 [Eh]
	 SCS Total Energy          =    -380.6883065051431458 [Eh]
	-----------------------------------------------------------

  Dipole Moment: [D]
     X:    -0.5666      Y:    -2.9151      Z:     0.3541     Total:     2.9907

*** Psi4 exiting successfully. Buy a developer a beer!
