                               Psi4 1.3.2 release

  ==> Input File <==

--------------------------------------------------------------------------
#psi4
#
memory 32 gb

molecule  {
0 1
  O       -0.8024720     1.2871770    -0.2968200
  N        0.3743340    -0.6973860    -0.1281030
  N       -1.9396050    -0.6940620     0.0132050
  C        1.6237958    -0.1303934    -0.5473586
  C        2.3001670     0.7476450     0.5591710
  C        2.8599170    -0.5791270     0.1240600
  C       -0.7916110     0.0679730    -0.1462250
  C       -3.1892790     0.0185180     0.2391280
  H        1.6584990     0.3313320    -1.5170780
  H        1.8133820     0.7968280     1.5261570
  H        2.8068830     1.6562200     0.2533550
  H        3.7595130    -0.5939570    -0.4821470
  H        2.7562930    -1.4149420     0.8077760
  H        0.2670080    -1.6424170    -0.4848710
  H       -1.8163630    -1.5386920     0.5601430
  H       -3.2269270     0.5129170     1.2166470
  H       -4.0142600    -0.6916670     0.1589620
  H       -3.2950640     0.7803290    -0.5317260
units angstrom
no_reorient  #important for SAPT in psi4, default
symmetry c1  #important for SAPT in psi4, default
}

set PROPERTIES_ORIGIN ["COM"]
properties('MP2/aug-cc-pvtz', properties = ['dipole'])
--------------------------------------------------------------------------

    Molecular point group: c1
  Charge       = 0
  Multiplicity = 1
  Basis Set: AUG-CC-PVTZ
    Blend: AUG-CC-PVTZ
  Basis Set: (AUG-CC-PVTZ AUX)
    Blend: AUG-CC-PVTZ-JKFIT

    Orbital Energies [Eh]
    ---------------------

    Doubly Occupied:

       1A    -20.513089     2A    -15.581811     3A    -15.581173
       4A    -11.372559     5A    -11.265194     6A    -11.255108
       7A    -11.233026     8A    -11.222421     9A     -1.384026
      10A     -1.245391    11A     -1.212506    12A     -1.109436
      13A     -0.943444    14A     -0.833529    15A     -0.823303
      16A     -0.776564    17A     -0.738657    18A     -0.696850
      19A     -0.654606    20A     -0.624242    21A     -0.614503
      22A     -0.600432    23A     -0.560492    24A     -0.544940
      25A     -0.539997    26A     -0.514999    27A     -0.459496
      28A     -0.439970    29A     -0.423498    30A     -0.402165
      31A     -0.375225

  @DF-RHF Final Energy:  -379.04610132320181

   => Energetics <=

    Nuclear Repulsion Energy =            379.1325441584044711
    One-Electron Energy =               -1267.2719850424423385
    Two-Electron Energy =                 509.0933395608360570
    Total Energy =                       -379.0461013232018104
  Basis Set: (AUG-CC-PVTZ AUX)
    Blend: AUG-CC-PVTZ-RI
    Molecular point group: c1

    Geometry (in Angstrom), charge = 0, multiplicity = 1:

       Center              X                  Y                   Z               Mass
    ------------   -----------------  -----------------  -----------------  -----------------
         O           -0.798933343446     1.280331250879    -0.278479962084    15.994914619570
         N            0.377872656554    -0.704231749121    -0.109762962084    14.003074004430
         N           -1.936066343446    -0.700907749121     0.031545037916    14.003074004430
         C            1.627334456554    -0.137239149121    -0.529018562084    12.000000000000
         C            2.303705656554     0.740799250879     0.577511037916    12.000000000000
         C            2.863455656554    -0.585972749121     0.142400037916    12.000000000000
         C           -0.788072343446     0.061127250879    -0.127884962084    12.000000000000
         C           -3.185740343446     0.011672250879     0.257468037916    12.000000000000
         H            1.662037656554     0.324486250879    -1.498737962084     1.007825032230
         H            1.816920656554     0.789982250879     1.544497037916     1.007825032230
         H            2.810421656554     1.649374250879     0.271695037916     1.007825032230
         H            3.763051656554    -0.600802749121    -0.463806962084     1.007825032230
         H            2.759831656554    -1.421787749121     0.826116037916     1.007825032230
         H            0.270546656554    -1.649262749121    -0.466530962084     1.007825032230
         H           -1.812824343446    -1.545537749121     0.578483037916     1.007825032230
         H           -3.223388343446     0.506071250879     1.234987037916     1.007825032230
         H           -4.010721343446    -0.698512749121     0.177302037916     1.007825032230
         H           -3.291525343446     0.773483250879    -0.513385962084     1.007825032230

  Basis Set: AUG-CC-PVTZ
    Blend: AUG-CC-PVTZ
  Basis Set: (AUG-CC-PVTZ AUX)
    Blend: AUG-CC-PVTZ-JKFIT
	 Reference Energy          =    -379.0461013232018104 [Eh]
	 Singles Energy            =      -0.0000000000000000 [Eh]
	 Same-Spin Energy          =      -0.3909919536203027 [Eh]
	 Opposite-Spin Energy      =      -1.2608895874402086 [Eh]
	 Correlation Energy        =      -1.6518815410605114 [Eh]
	 Total Energy              =    -380.6979828642623147 [Eh]

	 ================> DF-SCS-MP2 Energies <==================
	-----------------------------------------------------------
	 SCS Same-Spin Scale       =       0.3333333333333333 [-]
	 SCS Opposite-Spin Scale   =       1.2000000000000000 [-]
	 SCS Same-Spin Energy      =      -0.1303306512067676 [Eh]
	 SCS Opposite-Spin Energy  =      -1.5130675049282503 [Eh]
	 SCS Correlation Energy    =      -1.6433981561350177 [Eh]
	 SCS Total Energy          =    -380.6894994793368028 [Eh]
	-----------------------------------------------------------

  Dipole Moment: [D]
     X:    -0.0900      Y:    -3.2407      Z:     0.4698     Total:     3.2758

*** Psi4 exiting successfully. Buy a developer a beer!
