                               Psi4 1.3.2 release

  ==> Input File <==

--------------------------------------------------------------------------
#psi4
#
memory 32 gb

molecule  {
0 1
  O       -0.8024720     1.2871770    -0.2968200
  N        0.3743340    -0.6973860    -0.1281030
  N       -1.9396050    -0.6940620     0.0132050
  C        1.5730583    -0.0048444    -0.5047420
  C        2.3001670     0.7476450     0.5591710
  C        2.8599170    -0.5791270     0.1240600
  C       -0.7916110     0.0679730    -0.1462250
  C       -3.1892790     0.0185180     0.2391280
  H        1.6584990     0.3313320    -1.5170780
  H        1.8133820     0.7968280     1.5261570
  H        2.8068830     1.6562200     0.2533550
  H        3.7595130    -0.5939570    -0.4821470
  H        2.7562930    -1.4149420     0.8077760
  H        0.2670080    -1.6424170    -0.4848710
  H       -1.8163630    -1.5386920     0.5601430
  H       -3.2269270     0.5129170     1.2166470
  H       -4.0142600    -0.6916670     0.1589620
  H       -3.2950640     0.7803290    -0.5317260
units angstrom
no_reorient  #important for SAPT in psi4, default
symmetry c1  #important for SAPT in psi4, default
}

set PROPERTIES_ORIGIN ["COM"]
properties('MP2/aug-cc-pvtz', properties = ['dipole'])
--------------------------------------------------------------------------

    Molecular point group: c1
  Charge       = 0
  Multiplicity = 1
  Basis Set: AUG-CC-PVTZ
    Blend: AUG-CC-PVTZ
  Basis Set: (AUG-CC-PVTZ AUX)
    Blend: AUG-CC-PVTZ-JKFIT

    Orbital Energies [Eh]
    ---------------------

    Doubly Occupied:

       1A    -20.513509     2A    -15.581946     3A    -15.580562
       4A    -11.370726     5A    -11.264193     6A    -11.254856
       7A    -11.228235     8A    -11.225047     9A     -1.385185
      10A     -1.245077    11A     -1.212545    12A     -1.109319
      13A     -0.942583    14A     -0.828410    15A     -0.826664
      16A     -0.776715    17A     -0.738119    18A     -0.700331
      19A     -0.654800    20A     -0.623745    21A     -0.615849
      22A     -0.599816    23A     -0.560980    24A     -0.544976
      25A     -0.540234    26A     -0.514854    27A     -0.455494
      28A     -0.441434    29A     -0.412055    30A     -0.402808
      31A     -0.389548

  @DF-RHF Final Energy:  -379.05025093669559

   => Energetics <=

    Nuclear Repulsion Energy =            379.8477088358854417
    One-Electron Energy =               -1268.7146846451785223
    Two-Electron Energy =                 509.8167248725974900
    Total Energy =                       -379.0502509366955906
  Basis Set: (AUG-CC-PVTZ AUX)
    Blend: AUG-CC-PVTZ-RI
    Molecular point group: c1

    Geometry (in Angstrom), charge = 0, multiplicity = 1:

       Center              X                  Y                   Z               Mass
    ------------   -----------------  -----------------  -----------------  -----------------
         O           -0.793596267124     1.267124754793    -0.282962801144    15.994914619570
         N            0.383209732876    -0.717438245207    -0.114245801144    14.003074004430
         N           -1.930729267124    -0.714114245207     0.027062198856    14.003074004430
         C            1.581934032876    -0.024896645207    -0.490884801144    12.000000000000
         C            2.309042732876     0.727592754793     0.573028198856    12.000000000000
         C            2.868792732876    -0.599179245207     0.137917198856    12.000000000000
         C           -0.782735267124     0.047920754793    -0.132367801144    12.000000000000
         C           -3.180403267124    -0.001534245207     0.252985198856    12.000000000000
         H            1.667374732876     0.311279754793    -1.503220801144     1.007825032230
         H            1.822257732876     0.776775754793     1.540014198856     1.007825032230
         H            2.815758732876     1.636167754793     0.267212198856     1.007825032230
         H            3.768388732876    -0.614009245207    -0.468289801144     1.007825032230
         H            2.765168732876    -1.434994245207     0.821633198856     1.007825032230
         H            0.275883732876    -1.662469245207    -0.471013801144     1.007825032230
         H           -1.807487267124    -1.558744245207     0.574000198856     1.007825032230
         H           -3.218051267124     0.492864754793     1.230504198856     1.007825032230
         H           -4.005384267124    -0.711719245207     0.172819198856     1.007825032230
         H           -3.286188267124     0.760276754793    -0.517868801144     1.007825032230

  Basis Set: AUG-CC-PVTZ
    Blend: AUG-CC-PVTZ
  Basis Set: (AUG-CC-PVTZ AUX)
    Blend: AUG-CC-PVTZ-JKFIT
	 Reference Energy          =    -379.0502509366955906 [Eh]
	 Singles Energy            =      -0.0000000000000000 [Eh]
	 Same-Spin Energy          =      -0.3908318942308611 [Eh]
	 Opposite-Spin Energy      =      -1.2604128761128683 [Eh]
	 Correlation Energy        =      -1.6512447703437294 [Eh]
	 Total Energy              =    -380.7014957070393280 [Eh]

	 ================> DF-SCS-MP2 Energies <==================
	-----------------------------------------------------------
	 SCS Same-Spin Scale       =       0.3333333333333333 [-]
	 SCS Opposite-Spin Scale   =       1.2000000000000000 [-]
	 SCS Same-Spin Energy      =      -0.1302772980769537 [Eh]
	 SCS Opposite-Spin Energy  =      -1.5124954513354421 [Eh]
	 SCS Correlation Energy    =      -1.6427727494123958 [Eh]
	 SCS Total Energy          =    -380.6930236861080061 [Eh]
	-----------------------------------------------------------

  Dipole Moment: [D]
     X:    -0.1331      Y:    -3.1459      Z:     0.4938     Total:     3.1872

*** Psi4 exiting successfully. Buy a developer a beer!
