                               Psi4 1.3.2 release

  ==> Input File <==

--------------------------------------------------------------------------
#psi4
#
memory 32 gb

molecule  {
0 1
  O       -0.8024720     1.2871770    -0.2968200
  N        0.3743340    -0.6973860    -0.1281030
  N       -1.9396050    -0.6940620     0.0132050
  C        1.6340385    -0.1730439    -0.5715223
  C        2.3001670     0.7476450     0.5591710
  C        2.8599170    -0.5791270     0.1240600
  C       -0.7916110     0.0679730    -0.1462250
  C       -3.1892790     0.0185180     0.2391280
  H        1.6584990     0.3313320    -1.5170780
  H        1.8133820     0.7968280     1.5261570
  H        2.8068830     1.6562200     0.2533550
  H        3.7595130    -0.5939570    -0.4821470
  H        2.7562930    -1.4149420     0.8077760
  H        0.2670080    -1.6424170    -0.4848710
  H       -1.8163630    -1.5386920     0.5601430
  H       -3.2269270     0.5129170     1.2166470
  H       -4.0142600    -0.6916670     0.1589620
  H       -3.2950640     0.7803290    -0.5317260
units angstrom
no_reorient  #important for SAPT in psi4, default
symmetry c1  #important for SAPT in psi4, default
}

set PROPERTIES_ORIGIN ["COM"]
properties('MP2/aug-cc-pvtz', properties = ['dipole'])
--------------------------------------------------------------------------

    Molecular point group: c1
  Charge       = 0
  Multiplicity = 1
  Basis Set: AUG-CC-PVTZ
    Blend: AUG-CC-PVTZ
  Basis Set: (AUG-CC-PVTZ AUX)
    Blend: AUG-CC-PVTZ-JKFIT

    Orbital Energies [Eh]
    ---------------------

    Doubly Occupied:

       1A    -20.513175     2A    -15.582183     3A    -15.581477
       4A    -11.373232     5A    -11.266855     6A    -11.255252
       7A    -11.235286     8A    -11.222362     9A     -1.383913
      10A     -1.245592    11A     -1.212361    12A     -1.106969
      13A     -0.943828    14A     -0.835596    15A     -0.822200
      16A     -0.777072    17A     -0.739357    18A     -0.695347
      19A     -0.653348    20A     -0.623695    21A     -0.613783
      22A     -0.600809    23A     -0.560574    24A     -0.545416
      25A     -0.540453    26A     -0.514892    27A     -0.466612
      28A     -0.440488    29A     -0.422523    30A     -0.401859
      31A     -0.365953

  @DF-RHF Final Energy:  -379.03911941312163

   => Energetics <=

    Nuclear Repulsion Energy =            378.7504244733043492
    One-Electron Energy =               -1266.4941636628923334
    Two-Electron Energy =                 508.7046197764664157
    Total Energy =                       -379.0391194131216253
  Basis Set: (AUG-CC-PVTZ AUX)
    Blend: AUG-CC-PVTZ-RI
    Molecular point group: c1

    Geometry (in Angstrom), charge = 0, multiplicity = 1:

       Center              X                  Y                   Z               Mass
    ------------   -----------------  -----------------  -----------------  -----------------
         O           -0.800010772796     1.284817655879    -0.275938183102    15.994914619570
         N            0.376795227204    -0.699745344121    -0.107221183102    14.003074004430
         N           -1.937143772796    -0.696421344121     0.034086816898    14.003074004430
         C            1.636499727204    -0.175403244121    -0.550640483102    12.000000000000
         C            2.302628227204     0.745285655879     0.580052816898    12.000000000000
         C            2.862378227204    -0.581486344121     0.144941816898    12.000000000000
         C           -0.789149772796     0.065613655879    -0.125343183102    12.000000000000
         C           -3.186817772796     0.016158655879     0.260009816898    12.000000000000
         H            1.660960227204     0.328972655879    -1.496196183102     1.007825032230
         H            1.815843227204     0.794468655879     1.547038816898     1.007825032230
         H            2.809344227204     1.653860655879     0.274236816898     1.007825032230
         H            3.761974227204    -0.596316344121    -0.461265183102     1.007825032230
         H            2.758754227204    -1.417301344121     0.828657816898     1.007825032230
         H            0.269469227204    -1.644776344121    -0.463989183102     1.007825032230
         H           -1.813901772796    -1.541051344121     0.581024816898     1.007825032230
         H           -3.224465772796     0.510557655879     1.237528816898     1.007825032230
         H           -4.011798772796    -0.694026344121     0.179843816898     1.007825032230
         H           -3.292602772796     0.777969655879    -0.510844183102     1.007825032230

  Basis Set: AUG-CC-PVTZ
    Blend: AUG-CC-PVTZ
  Basis Set: (AUG-CC-PVTZ AUX)
    Blend: AUG-CC-PVTZ-JKFIT
	 Reference Energy          =    -379.0391194131216253 [Eh]
	 Singles Energy            =      -0.0000000000000000 [Eh]
	 Same-Spin Energy          =      -0.3913426032694610 [Eh]
	 Opposite-Spin Energy      =      -1.2618103246291783 [Eh]
	 Correlation Energy        =      -1.6531529278986392 [Eh]
	 Total Energy              =    -380.6922723410202707 [Eh]

	 ================> DF-SCS-MP2 Energies <==================
	-----------------------------------------------------------
	 SCS Same-Spin Scale       =       0.3333333333333333 [-]
	 SCS Opposite-Spin Scale   =       1.2000000000000000 [-]
	 SCS Same-Spin Energy      =      -0.1304475344231537 [Eh]
	 SCS Opposite-Spin Energy  =      -1.5141723895550139 [Eh]
	 SCS Correlation Energy    =      -1.6446199239781676 [Eh]
	 SCS Total Energy          =    -380.6837393370997802 [Eh]
	-----------------------------------------------------------

  Dipole Moment: [D]
     X:    -0.0929      Y:    -3.2627      Z:     0.4643     Total:     3.2968

*** Psi4 exiting successfully. Buy a developer a beer!
