                               Psi4 1.3.2 release

  ==> Input File <==

--------------------------------------------------------------------------
#psi4
#
memory 32 gb

molecule  {
0 1
  O       -0.8024720     1.2871770    -0.2968200
  N        0.3743340    -0.6973860    -0.1281030
  N       -1.9396050    -0.6940620     0.0132050
  C        1.6456526    -0.1342831    -0.4817622
  C        2.3001670     0.7476450     0.5591710
  C        2.8599170    -0.5791270     0.1240600
  C       -0.7916110     0.0679730    -0.1462250
  C       -3.1892790     0.0185180     0.2391280
  H        1.6584990     0.3313320    -1.5170780
  H        1.8133820     0.7968280     1.5261570
  H        2.8068830     1.6562200     0.2533550
  H        3.7595130    -0.5939570    -0.4821470
  H        2.7562930    -1.4149420     0.8077760
  H        0.2670080    -1.6424170    -0.4848710
  H       -1.8163630    -1.5386920     0.5601430
  H       -3.2269270     0.5129170     1.2166470
  H       -4.0142600    -0.6916670     0.1589620
  H       -3.2950640     0.7803290    -0.5317260
units angstrom
no_reorient  #important for SAPT in psi4, default
symmetry c1  #important for SAPT in psi4, default
}

set PROPERTIES_ORIGIN ["COM"]
properties('MP2/aug-cc-pvtz', properties = ['dipole'])
--------------------------------------------------------------------------

    Molecular point group: c1
  Charge       = 0
  Multiplicity = 1
  Basis Set: AUG-CC-PVTZ
    Blend: AUG-CC-PVTZ
  Basis Set: (AUG-CC-PVTZ AUX)
    Blend: AUG-CC-PVTZ-JKFIT

    Orbital Energies [Eh]
    ---------------------

    Doubly Occupied:

       1A    -20.513150     2A    -15.581882     3A    -15.581313
       4A    -11.373382     5A    -11.266649     6A    -11.255277
       7A    -11.229897     8A    -11.220144     9A     -1.384089
      10A     -1.246918    11A     -1.215029    12A     -1.124721
      13A     -0.943787    14A     -0.835329    15A     -0.822764
      16A     -0.772406    17A     -0.738436    18A     -0.696486
      19A     -0.661564    20A     -0.627366    21A     -0.615188
      22A     -0.599931    23A     -0.558907    24A     -0.543490
      25A     -0.532095    26A     -0.516177    27A     -0.461137
      28A     -0.438914    29A     -0.431966    30A     -0.402535
      31A     -0.376968

  @DF-RHF Final Energy:  -379.04433110220720

   => Energetics <=

    Nuclear Repulsion Energy =            379.8187934300255506
    One-Electron Energy =               -1268.5904538831237005
    Two-Electron Energy =                 509.7273293508908978
    Total Energy =                       -379.0443311022071953
  Basis Set: (AUG-CC-PVTZ AUX)
    Blend: AUG-CC-PVTZ-RI
    Molecular point group: c1

    Geometry (in Angstrom), charge = 0, multiplicity = 1:

       Center              X                  Y                   Z               Mass
    ------------   -----------------  -----------------  -----------------  -----------------
         O           -0.801232459677     1.280740408322    -0.285380045716    15.994914619570
         N            0.375573540323    -0.703822591678    -0.116663045716    14.003074004430
         N           -1.938365459677    -0.700498591678     0.024644954284    14.003074004430
         C            1.646892140323    -0.140719691678    -0.470322245716    12.000000000000
         C            2.301406540323     0.741208408322     0.570610954284    12.000000000000
         C            2.861156540323    -0.585563591678     0.135499954284    12.000000000000
         C           -0.790371459677     0.061536408322    -0.134785045716    12.000000000000
         C           -3.188039459677     0.012081408322     0.250567954284    12.000000000000
         H            1.659738540323     0.324895408322    -1.505638045716     1.007825032230
         H            1.814621540323     0.790391408322     1.537596954284     1.007825032230
         H            2.808122540323     1.649783408322     0.264794954284     1.007825032230
         H            3.760752540323    -0.600393591678    -0.470707045716     1.007825032230
         H            2.757532540323    -1.421378591678     0.819215954284     1.007825032230
         H            0.268247540323    -1.648853591678    -0.473431045716     1.007825032230
         H           -1.815123459677    -1.545128591678     0.571582954284     1.007825032230
         H           -3.225687459677     0.506480408322     1.228086954284     1.007825032230
         H           -4.013020459677    -0.698103591678     0.170401954284     1.007825032230
         H           -3.293824459677     0.773892408322    -0.520286045716     1.007825032230

  Basis Set: AUG-CC-PVTZ
    Blend: AUG-CC-PVTZ
  Basis Set: (AUG-CC-PVTZ AUX)
    Blend: AUG-CC-PVTZ-JKFIT
	 Reference Energy          =    -379.0443311022071953 [Eh]
	 Singles Energy            =      -0.0000000000000000 [Eh]
	 Same-Spin Energy          =      -0.3911527163667873 [Eh]
	 Opposite-Spin Energy      =      -1.2603719030362579 [Eh]
	 Correlation Energy        =      -1.6515246194030453 [Eh]
	 Total Energy              =    -380.6958557216102577 [Eh]

	 ================> DF-SCS-MP2 Energies <==================
	-----------------------------------------------------------
	 SCS Same-Spin Scale       =       0.3333333333333333 [-]
	 SCS Opposite-Spin Scale   =       1.2000000000000000 [-]
	 SCS Same-Spin Energy      =      -0.1303842387889291 [Eh]
	 SCS Opposite-Spin Energy  =      -1.5124462836435095 [Eh]
	 SCS Correlation Energy    =      -1.6428305224324387 [Eh]
	 SCS Total Energy          =    -380.6871616246396570 [Eh]
	-----------------------------------------------------------

  Dipole Moment: [D]
     X:    -0.0663      Y:    -3.2634      Z:     0.5034     Total:     3.3027

*** Psi4 exiting successfully. Buy a developer a beer!
