                               Psi4 1.3.2 release

  ==> Input File <==

--------------------------------------------------------------------------
#psi4
#
memory 32 gb

molecule  {
0 1
  O       -0.8024720     1.2871770    -0.2968200
  N        0.3743340    -0.6973860    -0.1281030
  N       -1.9396050    -0.6940620     0.0132050
  C        1.5173106     0.0773170    -0.5177830
  C        2.3001670     0.7476450     0.5591710
  C        2.8599170    -0.5791270     0.1240600
  C       -0.7916110     0.0679730    -0.1462250
  C       -3.1892790     0.0185180     0.2391280
  H        1.6584990     0.3313320    -1.5170780
  H        1.8133820     0.7968280     1.5261570
  H        2.8068830     1.6562200     0.2533550
  H        3.7595130    -0.5939570    -0.4821470
  H        2.7562930    -1.4149420     0.8077760
  H        0.2670080    -1.6424170    -0.4848710
  H       -1.8163630    -1.5386920     0.5601430
  H       -3.2269270     0.5129170     1.2166470
  H       -4.0142600    -0.6916670     0.1589620
  H       -3.2950640     0.7803290    -0.5317260
units angstrom
no_reorient  #important for SAPT in psi4, default
symmetry c1  #important for SAPT in psi4, default
}

set PROPERTIES_ORIGIN ["COM"]
properties('MP2/aug-cc-pvtz', properties = ['dipole'])
--------------------------------------------------------------------------

    Molecular point group: c1
  Charge       = 0
  Multiplicity = 1
  Basis Set: AUG-CC-PVTZ
    Blend: AUG-CC-PVTZ
  Basis Set: (AUG-CC-PVTZ AUX)
    Blend: AUG-CC-PVTZ-JKFIT

    Orbital Energies [Eh]
    ---------------------

    Doubly Occupied:

       1A    -20.514376     2A    -15.583255     3A    -15.580473
       4A    -11.369817     5A    -11.266468     6A    -11.254851
       7A    -11.229344     8A    -11.226984     9A     -1.386789
      10A     -1.244979    11A     -1.211948    12A     -1.099152
      13A     -0.942237    14A     -0.831060    15A     -0.824561
      16A     -0.778898    17A     -0.739284    18A     -0.702520
      19A     -0.650842    20A     -0.621048    21A     -0.615285
      22A     -0.600257    23A     -0.563026    24A     -0.547610
      25A     -0.541622    26A     -0.514018    27A     -0.465968
      28A     -0.442069    29A     -0.408287    30A     -0.397388
      31A     -0.378295

  @DF-RHF Final Energy:  -379.03696131255708

   => Energetics <=

    Nuclear Repulsion Energy =            379.8333101489595833
    One-Electron Energy =               -1268.6751267161919259
    Two-Electron Energy =                 509.8048552546753172
    Total Energy =                       -379.0369613125570822
  Basis Set: (AUG-CC-PVTZ AUX)
    Blend: AUG-CC-PVTZ-RI
    Molecular point group: c1

    Geometry (in Angstrom), charge = 0, multiplicity = 1:

       Center              X                  Y                   Z               Mass
    ------------   -----------------  -----------------  -----------------  -----------------
         O           -0.787732167992     1.258482199236    -0.281591018689    15.994914619570
         N            0.389073832008    -0.726080800764    -0.112874018689    14.003074004430
         N           -1.924865167992    -0.722756800764     0.028433981311    14.003074004430
         C            1.532050432008     0.048622199236    -0.502554018689    12.000000000000
         C            2.314906832008     0.718950199236     0.574399981311    12.000000000000
         C            2.874656832008    -0.607821800764     0.139288981311    12.000000000000
         C           -0.776871167992     0.039278199236    -0.130996018689    12.000000000000
         C           -3.174539167992    -0.010176800764     0.254356981311    12.000000000000
         H            1.673238832008     0.302637199236    -1.501849018689     1.007825032230
         H            1.828121832008     0.768133199236     1.541385981311     1.007825032230
         H            2.821622832008     1.627525199236     0.268583981311     1.007825032230
         H            3.774252832008    -0.622651800764    -0.466918018689     1.007825032230
         H            2.771032832008    -1.443636800764     0.823004981311     1.007825032230
         H            0.281747832008    -1.671111800764    -0.469642018689     1.007825032230
         H           -1.801623167992    -1.567386800764     0.575371981311     1.007825032230
         H           -3.212187167992     0.484222199236     1.231875981311     1.007825032230
         H           -3.999520167992    -0.720361800764     0.174190981311     1.007825032230
         H           -3.280324167992     0.751634199236    -0.516497018689     1.007825032230

  Basis Set: AUG-CC-PVTZ
    Blend: AUG-CC-PVTZ
  Basis Set: (AUG-CC-PVTZ AUX)
    Blend: AUG-CC-PVTZ-JKFIT
	 Reference Energy          =    -379.0369613125570822 [Eh]
	 Singles Energy            =      -0.0000000000000000 [Eh]
	 Same-Spin Energy          =      -0.3914739113859229 [Eh]
	 Opposite-Spin Energy      =      -1.2622218774093841 [Eh]
	 Correlation Energy        =      -1.6536957887953070 [Eh]
	 Total Energy              =    -380.6906571013523717 [Eh]

	 ================> DF-SCS-MP2 Energies <==================
	-----------------------------------------------------------
	 SCS Same-Spin Scale       =       0.3333333333333333 [-]
	 SCS Opposite-Spin Scale   =       1.2000000000000000 [-]
	 SCS Same-Spin Energy      =      -0.1304913037953076 [Eh]
	 SCS Opposite-Spin Energy  =      -1.5146662528912609 [Eh]
	 SCS Correlation Energy    =      -1.6451575566865686 [Eh]
	 SCS Total Energy          =    -380.6821188692436522 [Eh]
	-----------------------------------------------------------

  Dipole Moment: [D]
     X:    -0.2085      Y:    -3.0839      Z:     0.4940     Total:     3.1301

*** Psi4 exiting successfully. Buy a developer a beer!
