                               Psi4 1.3.2 release

  ==> Input File <==

--------------------------------------------------------------------------
#psi4
#
memory 32 gb

molecule  {
0 1
  O       -0.8024720     1.2871770    -0.2968200
  N        0.3743340    -0.6973860    -0.1281030
  N       -1.9396050    -0.6940620     0.0132050
  C        1.6841006    -0.0018990    -0.5232781
  C        2.3001670     0.7476450     0.5591710
  C        2.8599170    -0.5791270     0.1240600
  C       -0.7916110     0.0679730    -0.1462250
  C       -3.1892790     0.0185180     0.2391280
  H        1.6584990     0.3313320    -1.5170780
  H        1.8133820     0.7968280     1.5261570
  H        2.8068830     1.6562200     0.2533550
  H        3.7595130    -0.5939570    -0.4821470
  H        2.7562930    -1.4149420     0.8077760
  H        0.2670080    -1.6424170    -0.4848710
  H       -1.8163630    -1.5386920     0.5601430
  H       -3.2269270     0.5129170     1.2166470
  H       -4.0142600    -0.6916670     0.1589620
  H       -3.2950640     0.7803290    -0.5317260
units angstrom
no_reorient  #important for SAPT in psi4, default
symmetry c1  #important for SAPT in psi4, default
}

set PROPERTIES_ORIGIN ["COM"]
properties('MP2/aug-cc-pvtz', properties = ['dipole'])
--------------------------------------------------------------------------

    Molecular point group: c1
  Charge       = 0
  Multiplicity = 1
  Basis Set: AUG-CC-PVTZ
    Blend: AUG-CC-PVTZ
  Basis Set: (AUG-CC-PVTZ AUX)
    Blend: AUG-CC-PVTZ-JKFIT

    Orbital Energies [Eh]
    ---------------------

    Doubly Occupied:

       1A    -20.509288     2A    -15.577545     3A    -15.576942
       4A    -11.367438     5A    -11.266875     6A    -11.252789
       7A    -11.229012     8A    -11.223646     9A     -1.379450
      10A     -1.235338    11A     -1.206006    12A     -1.126190
      13A     -0.936983    14A     -0.834197    15A     -0.822442
      16A     -0.776003    17A     -0.730688    18A     -0.695559
      19A     -0.659506    20A     -0.627262    21A     -0.614852
      22A     -0.597400    23A     -0.551306    24A     -0.541971
      25A     -0.529635    26A     -0.519042    27A     -0.447504
      28A     -0.444454    29A     -0.431129    30A     -0.401359
      31A     -0.390394

  @DF-RHF Final Energy:  -379.04315101855093

   => Energetics <=

    Nuclear Repulsion Energy =            378.9935652872326273
    One-Electron Energy =               -1267.0690163948179361
    Two-Electron Energy =                 509.0323000890343792
    Total Energy =                       -379.0431510185509296
  Basis Set: (AUG-CC-PVTZ AUX)
    Blend: AUG-CC-PVTZ-RI
    Molecular point group: c1

    Geometry (in Angstrom), charge = 0, multiplicity = 1:

       Center              X                  Y                   Z               Mass
    ------------   -----------------  -----------------  -----------------  -----------------
         O           -0.805276803810     1.266814928242    -0.281012989261    15.994914619570
         N            0.371529196190    -0.717748071758    -0.112295989261    14.003074004430
         N           -1.942409803810    -0.714424071758     0.029012010739    14.003074004430
         C            1.681295796190    -0.022261071758    -0.507471089261    12.000000000000
         C            2.297362196190     0.727282928242     0.574978010739    12.000000000000
         C            2.857112196190    -0.599489071758     0.139867010739    12.000000000000
         C           -0.794415803810     0.047610928242    -0.130417989261    12.000000000000
         C           -3.192083803810    -0.001844071758     0.254935010739    12.000000000000
         H            1.655694196190     0.310969928242    -1.501270989261     1.007825032230
         H            1.810577196190     0.776465928242     1.541964010739     1.007825032230
         H            2.804078196190     1.635857928242     0.269162010739     1.007825032230
         H            3.756708196190    -0.614319071758    -0.466339989261     1.007825032230
         H            2.753488196190    -1.435304071758     0.823583010739     1.007825032230
         H            0.264203196190    -1.662779071758    -0.469063989261     1.007825032230
         H           -1.819167803810    -1.559054071758     0.575950010739     1.007825032230
         H           -3.229731803810     0.492554928242     1.232454010739     1.007825032230
         H           -4.017064803810    -0.712029071758     0.174769010739     1.007825032230
         H           -3.297868803810     0.759966928242    -0.515918989261     1.007825032230

  Basis Set: AUG-CC-PVTZ
    Blend: AUG-CC-PVTZ
  Basis Set: (AUG-CC-PVTZ AUX)
    Blend: AUG-CC-PVTZ-JKFIT
	 Reference Energy          =    -379.0431510185509296 [Eh]
	 Singles Energy            =      -0.0000000000000000 [Eh]
	 Same-Spin Energy          =      -0.3905263900817619 [Eh]
	 Opposite-Spin Energy      =      -1.2597970000794223 [Eh]
	 Correlation Energy        =      -1.6503233901611842 [Eh]
	 Total Energy              =    -380.6934744087121203 [Eh]

	 ================> DF-SCS-MP2 Energies <==================
	-----------------------------------------------------------
	 SCS Same-Spin Scale       =       0.3333333333333333 [-]
	 SCS Opposite-Spin Scale   =       1.2000000000000000 [-]
	 SCS Same-Spin Energy      =      -0.1301754633605873 [Eh]
	 SCS Opposite-Spin Energy  =      -1.5117564000953068 [Eh]
	 SCS Correlation Energy    =      -1.6419318634558939 [Eh]
	 SCS Total Energy          =    -380.6850828820068386 [Eh]
	-----------------------------------------------------------

  Dipole Moment: [D]
     X:     0.1878      Y:    -3.1153      Z:     0.4396     Total:     3.1517

*** Psi4 exiting successfully. Buy a developer a beer!
