                               Psi4 1.3.2 release

  ==> Input File <==

--------------------------------------------------------------------------
#psi4
#
memory 32 gb

molecule  {
0 1
  O       -0.8024720     1.2871770    -0.2968200
  N        0.4575187    -0.7873823    -0.0413082
  N       -1.9396050    -0.6940620     0.0132050
  C        1.5987580    -0.0472160    -0.4975290
  C        2.3001670     0.7476450     0.5591710
  C        2.8599170    -0.5791270     0.1240600
  C       -0.7916110     0.0679730    -0.1462250
  C       -3.1892790     0.0185180     0.2391280
  H        1.6584990     0.3313320    -1.5170780
  H        1.8133820     0.7968280     1.5261570
  H        2.8068830     1.6562200     0.2533550
  H        3.7595130    -0.5939570    -0.4821470
  H        2.7562930    -1.4149420     0.8077760
  H        0.2670080    -1.6424170    -0.4848710
  H       -1.8163630    -1.5386920     0.5601430
  H       -3.2269270     0.5129170     1.2166470
  H       -4.0142600    -0.6916670     0.1589620
  H       -3.2950640     0.7803290    -0.5317260
units angstrom
no_reorient  #important for SAPT in psi4, default
symmetry c1  #important for SAPT in psi4, default
}

set PROPERTIES_ORIGIN ["COM"]
properties('MP2/aug-cc-pvtz', properties = ['dipole'])
--------------------------------------------------------------------------

    Molecular point group: c1
  Charge       = 0
  Multiplicity = 1
  Basis Set: AUG-CC-PVTZ
    Blend: AUG-CC-PVTZ
  Basis Set: (AUG-CC-PVTZ AUX)
    Blend: AUG-CC-PVTZ-JKFIT

    Orbital Energies [Eh]
    ---------------------

    Doubly Occupied:

       1A    -20.529441     2A    -15.587746     3A    -15.581771
       4A    -11.383042     5A    -11.259876     6A    -11.259193
       7A    -11.221485     8A    -11.220465     9A     -1.386860
      10A     -1.241911    11A     -1.214427    12A     -1.102520
      13A     -0.945409    14A     -0.824526    15A     -0.812368
      16A     -0.780987    17A     -0.720977    18A     -0.702763
      19A     -0.651420    20A     -0.624062    21A     -0.623128
      22A     -0.598386    23A     -0.557444    24A     -0.547075
      25A     -0.540760    26A     -0.511061    27A     -0.452973
      28A     -0.451193    29A     -0.414459    30A     -0.404112
      31A     -0.390446

  @DF-RHF Final Energy:  -379.03541314279556

   => Energetics <=

    Nuclear Repulsion Energy =            377.9114611332609002
    One-Electron Energy =               -1264.8091777477536652
    Two-Electron Energy =                 507.8623034716972029
    Total Energy =                       -379.0354131427955622
  Basis Set: (AUG-CC-PVTZ AUX)
    Blend: AUG-CC-PVTZ-RI
    Molecular point group: c1

    Geometry (in Angstrom), charge = 0, multiplicity = 1:

       Center              X                  Y                   Z               Mass
    ------------   -----------------  -----------------  -----------------  -----------------
         O           -0.806510421952     1.282628740601    -0.294375475133    15.994914619570
         N            0.453480278048    -0.791930559399    -0.038863675133    14.003074004430
         N           -1.943643421952    -0.698610259399     0.015649524867    14.003074004430
         C            1.594719578048    -0.051764259399    -0.495084475133    12.000000000000
         C            2.296128578048     0.743096740601     0.561615524867    12.000000000000
         C            2.855878578048    -0.583675259399     0.126504524867    12.000000000000
         C           -0.795649421952     0.063424740601    -0.143780475133    12.000000000000
         C           -3.193317421952     0.013969740601     0.241572524867    12.000000000000
         H            1.654460578048     0.326783740601    -1.514633475133     1.007825032230
         H            1.809343578048     0.792279740601     1.528601524867     1.007825032230
         H            2.802844578048     1.651671740601     0.255799524867     1.007825032230
         H            3.755474578048    -0.598505259399    -0.479702475133     1.007825032230
         H            2.752254578048    -1.419490259399     0.810220524867     1.007825032230
         H            0.262969578048    -1.646965259399    -0.482426475133     1.007825032230
         H           -1.820401421952    -1.543240259399     0.562587524867     1.007825032230
         H           -3.230965421952     0.508368740601     1.219091524867     1.007825032230
         H           -4.018298421952    -0.696215259399     0.161406524867     1.007825032230
         H           -3.299102421952     0.775780740601    -0.529281475133     1.007825032230

  Basis Set: AUG-CC-PVTZ
    Blend: AUG-CC-PVTZ
  Basis Set: (AUG-CC-PVTZ AUX)
    Blend: AUG-CC-PVTZ-JKFIT
	 Reference Energy          =    -379.0354131427955622 [Eh]
	 Singles Energy            =      -0.0000000000000000 [Eh]
	 Same-Spin Energy          =      -0.3916805429745378 [Eh]
	 Opposite-Spin Energy      =      -1.2633332074552133 [Eh]
	 Correlation Energy        =      -1.6550137504297511 [Eh]
	 Total Energy              =    -380.6904268932253217 [Eh]

	 ================> DF-SCS-MP2 Energies <==================
	-----------------------------------------------------------
	 SCS Same-Spin Scale       =       0.3333333333333333 [-]
	 SCS Opposite-Spin Scale   =       1.2000000000000000 [-]
	 SCS Same-Spin Energy      =      -0.1305601809915126 [Eh]
	 SCS Opposite-Spin Energy  =      -1.5159998489462558 [Eh]
	 SCS Correlation Energy    =      -1.6465600299377685 [Eh]
	 SCS Total Energy          =    -380.6819731727333078 [Eh]
	-----------------------------------------------------------

  Dipole Moment: [D]
     X:    -0.7819      Y:    -2.7880      Z:     0.2864     Total:     2.9097

*** Psi4 exiting successfully. Buy a developer a beer!
