                               Psi4 1.3.2 release

  ==> Input File <==

--------------------------------------------------------------------------
#psi4
#
memory 32 gb

molecule  {
0 1
  O       -0.8024720     1.2871770    -0.2968200
  N        0.3743340    -0.6973860    -0.1281030
  N       -1.9396050    -0.6940620     0.0132050
  C        1.5458981     0.0366835    -0.5114960
  C        2.3001670     0.7476450     0.5591710
  C        2.8599170    -0.5791270     0.1240600
  C       -0.7916110     0.0679730    -0.1462250
  C       -3.1892790     0.0185180     0.2391280
  H        1.6584990     0.3313320    -1.5170780
  H        1.8133820     0.7968280     1.5261570
  H        2.8068830     1.6562200     0.2533550
  H        3.7595130    -0.5939570    -0.4821470
  H        2.7562930    -1.4149420     0.8077760
  H        0.2670080    -1.6424170    -0.4848710
  H       -1.8163630    -1.5386920     0.5601430
  H       -3.2269270     0.5129170     1.2166470
  H       -4.0142600    -0.6916670     0.1589620
  H       -3.2950640     0.7803290    -0.5317260
units angstrom
no_reorient  #important for SAPT in psi4, default
symmetry c1  #important for SAPT in psi4, default
}

set PROPERTIES_ORIGIN ["COM"]
properties('MP2/aug-cc-pvtz', properties = ['dipole'])
--------------------------------------------------------------------------

    Molecular point group: c1
  Charge       = 0
  Multiplicity = 1
  Basis Set: AUG-CC-PVTZ
    Blend: AUG-CC-PVTZ
  Basis Set: (AUG-CC-PVTZ AUX)
    Blend: AUG-CC-PVTZ-JKFIT

    Orbital Energies [Eh]
    ---------------------

    Doubly Occupied:

       1A    -20.513879     2A    -15.582500     3A    -15.580479
       4A    -11.370184     5A    -11.264976     6A    -11.254828
       7A    -11.227789     8A    -11.226949     9A     -1.385896
      10A     -1.244927    11A     -1.212142    12A     -1.104227
      13A     -0.942368    14A     -0.828892    15A     -0.826270
      16A     -0.777880    17A     -0.738534    18A     -0.701567
      19A     -0.652712    20A     -0.622312    21A     -0.615823
      22A     -0.600000    23A     -0.561999    24A     -0.546307
      25A     -0.541153    26A     -0.514431    27A     -0.460510
      28A     -0.441704    29A     -0.407747    30A     -0.398667
      31A     -0.388158

  @DF-RHF Final Energy:  -379.04499449520665

   => Energetics <=

    Nuclear Repulsion Energy =            379.8435195312941346
    One-Electron Energy =               -1268.7054112430337227
    Two-Electron Energy =                 509.8168972165329933
    Total Energy =                       -379.0449944952066517
  Basis Set: (AUG-CC-PVTZ AUX)
    Blend: AUG-CC-PVTZ-RI
    Molecular point group: c1

    Geometry (in Angstrom), charge = 0, multiplicity = 1:

       Center              X                  Y                   Z               Mass
    ------------   -----------------  -----------------  -----------------  -----------------
         O           -0.790739286383     1.262756436058    -0.282252348057    15.994914619570
         N            0.386066713617    -0.721806563942    -0.113535348057    14.003074004430
         N           -1.927872286383    -0.718482563942     0.027772651943    14.003074004430
         C            1.557630813617     0.012262936058    -0.496928348057    12.000000000000
         C            2.311899713617     0.723224436058     0.573738651943    12.000000000000
         C            2.871649713617    -0.603547563942     0.138627651943    12.000000000000
         C           -0.779878286383     0.043552436058    -0.131657348057    12.000000000000
         C           -3.177546286383    -0.005902563942     0.253695651943    12.000000000000
         H            1.670231713617     0.306911436058    -1.502510348057     1.007825032230
         H            1.825114713617     0.772407436058     1.540724651943     1.007825032230
         H            2.818615713617     1.631799436058     0.267922651943     1.007825032230
         H            3.771245713617    -0.618377563942    -0.467579348057     1.007825032230
         H            2.768025713617    -1.439362563942     0.822343651943     1.007825032230
         H            0.278740713617    -1.666837563942    -0.470303348057     1.007825032230
         H           -1.804630286383    -1.563112563942     0.574710651943     1.007825032230
         H           -3.215194286383     0.488496436058     1.231214651943     1.007825032230
         H           -4.002527286383    -0.716087563942     0.173529651943     1.007825032230
         H           -3.283331286383     0.755908436058    -0.517158348057     1.007825032230

  Basis Set: AUG-CC-PVTZ
    Blend: AUG-CC-PVTZ
  Basis Set: (AUG-CC-PVTZ AUX)
    Blend: AUG-CC-PVTZ-JKFIT
	 Reference Energy          =    -379.0449944952066517 [Eh]
	 Singles Energy            =      -0.0000000000000000 [Eh]
	 Same-Spin Energy          =      -0.3910696285437250 [Eh]
	 Opposite-Spin Energy      =      -1.2611455485681475 [Eh]
	 Correlation Energy        =      -1.6522151771118725 [Eh]
	 Total Energy              =    -380.6972096723185359 [Eh]

	 ================> DF-SCS-MP2 Energies <==================
	-----------------------------------------------------------
	 SCS Same-Spin Scale       =       0.3333333333333333 [-]
	 SCS Opposite-Spin Scale   =       1.2000000000000000 [-]
	 SCS Same-Spin Energy      =      -0.1303565428479083 [Eh]
	 SCS Opposite-Spin Energy  =      -1.5133746582817771 [Eh]
	 SCS Correlation Energy    =      -1.6437312011296854 [Eh]
	 SCS Total Energy          =    -380.6887256963363484 [Eh]
	-----------------------------------------------------------

  Dipole Moment: [D]
     X:    -0.1686      Y:    -3.1129      Z:     0.4932     Total:     3.1562

*** Psi4 exiting successfully. Buy a developer a beer!
