                               Psi4 1.3.2 release

  ==> Input File <==

--------------------------------------------------------------------------
#psi4
#
memory 32 gb

molecule  {
0 1
  O       -0.8024720     1.2871770    -0.2968200
  N        0.3743340    -0.6973860    -0.1281030
  N       -1.9396050    -0.6940620     0.0132050
  C        1.6120309    -0.0884338    -0.5226842
  C        2.3001670     0.7476450     0.5591710
  C        2.8599170    -0.5791270     0.1240600
  C       -0.7916110     0.0679730    -0.1462250
  C       -3.1892790     0.0185180     0.2391280
  H        1.6584990     0.3313320    -1.5170780
  H        1.8133820     0.7968280     1.5261570
  H        2.8068830     1.6562200     0.2533550
  H        3.7595130    -0.5939570    -0.4821470
  H        2.7562930    -1.4149420     0.8077760
  H        0.2670080    -1.6424170    -0.4848710
  H       -1.8163630    -1.5386920     0.5601430
  H       -3.2269270     0.5129170     1.2166470
  H       -4.0142600    -0.6916670     0.1589620
  H       -3.2950640     0.7803290    -0.5317260
units angstrom
no_reorient  #important for SAPT in psi4, default
symmetry c1  #important for SAPT in psi4, default
}

set PROPERTIES_ORIGIN ["COM"]
properties('MP2/aug-cc-pvtz', properties = ['dipole'])
--------------------------------------------------------------------------

    Molecular point group: c1
  Charge       = 0
  Multiplicity = 1
  Basis Set: AUG-CC-PVTZ
    Blend: AUG-CC-PVTZ
  Basis Set: (AUG-CC-PVTZ AUX)
    Blend: AUG-CC-PVTZ-JKFIT

    Orbital Energies [Eh]
    ---------------------

    Doubly Occupied:

       1A    -20.513113     2A    -15.581612     3A    -15.580918
       4A    -11.371954     5A    -11.264272     6A    -11.255001
       7A    -11.230849     8A    -11.222728     9A     -1.384266
      10A     -1.245337    11A     -1.212769    12A     -1.111915
      13A     -0.943127    14A     -0.831690    15A     -0.824366
      16A     -0.775985    17A     -0.738183    18A     -0.698064
      19A     -0.655840    20A     -0.624707    21A     -0.615109
      22A     -0.600076    23A     -0.560308    24A     -0.544454
      25A     -0.539338    26A     -0.515145    27A     -0.453955
      28A     -0.439929    29A     -0.424043    30A     -0.402672
      31A     -0.382476

  @DF-RHF Final Energy:  -379.05059328111520

   => Energetics <=

    Nuclear Repulsion Energy =            379.4974088502570453
    One-Electron Energy =               -1268.0076010151872197
    Two-Electron Energy =                 509.4595988838150333
    Total Energy =                       -379.0505932811151979
  Basis Set: (AUG-CC-PVTZ AUX)
    Blend: AUG-CC-PVTZ-RI
    Molecular point group: c1

    Geometry (in Angstrom), charge = 0, multiplicity = 1:

       Center              X                  Y                   Z               Mass
    ------------   -----------------  -----------------  -----------------  -----------------
         O           -0.797695793917     1.275917521632    -0.281075461587    15.994914619570
         N            0.379110206083    -0.708645478368    -0.112358461587    14.003074004430
         N           -1.934828793917    -0.705321478368     0.028949538413    14.003074004430
         C            1.616807106083    -0.099693278368    -0.506939661587    12.000000000000
         C            2.304943206083     0.736385521632     0.574915538413    12.000000000000
         C            2.864693206083    -0.590386478368     0.139804538413    12.000000000000
         C           -0.786834793917     0.056713521632    -0.130480461587    12.000000000000
         C           -3.184502793917     0.007258521632     0.254872538413    12.000000000000
         H            1.663275206083     0.320072521632    -1.501333461587     1.007825032230
         H            1.818158206083     0.785568521632     1.541901538413     1.007825032230
         H            2.811659206083     1.644960521632     0.269099538413     1.007825032230
         H            3.764289206083    -0.605216478368    -0.466402461587     1.007825032230
         H            2.761069206083    -1.426201478368     0.823520538413     1.007825032230
         H            0.271784206083    -1.653676478368    -0.469126461587     1.007825032230
         H           -1.811586793917    -1.549951478368     0.575887538413     1.007825032230
         H           -3.222150793917     0.501657521632     1.232391538413     1.007825032230
         H           -4.009483793917    -0.702926478368     0.174706538413     1.007825032230
         H           -3.290287793917     0.769069521632    -0.515981461587     1.007825032230

  Basis Set: AUG-CC-PVTZ
    Blend: AUG-CC-PVTZ
  Basis Set: (AUG-CC-PVTZ AUX)
    Blend: AUG-CC-PVTZ-JKFIT
	 Reference Energy          =    -379.0505932811151979 [Eh]
	 Singles Energy            =      -0.0000000000000000 [Eh]
	 Same-Spin Energy          =      -0.3907964674786870 [Eh]
	 Opposite-Spin Energy      =      -1.2602935507782349 [Eh]
	 Correlation Energy        =      -1.6510900182569219 [Eh]
	 Total Energy              =    -380.7016832993721209 [Eh]

	 ================> DF-SCS-MP2 Energies <==================
	-----------------------------------------------------------
	 SCS Same-Spin Scale       =       0.3333333333333333 [-]
	 SCS Opposite-Spin Scale   =       1.2000000000000000 [-]
	 SCS Same-Spin Energy      =      -0.1302654891595623 [Eh]
	 SCS Opposite-Spin Energy  =      -1.5123522609338818 [Eh]
	 SCS Correlation Energy    =      -1.6426177500934440 [Eh]
	 SCS Total Energy          =    -380.6932110312086479 [Eh]
	-----------------------------------------------------------

  Dipole Moment: [D]
     X:    -0.0930      Y:    -3.2133      Z:     0.4809     Total:     3.2504

*** Psi4 exiting successfully. Buy a developer a beer!
