                               Psi4 1.3.2 release

  ==> Input File <==

--------------------------------------------------------------------------
#psi4
#
memory 32 gb

molecule  {
0 1
  O       -0.8024720     1.2871770    -0.2968200
  N        0.3743340    -0.6973860    -0.1281030
  N       -1.9396050    -0.6940620     0.0132050
  C        1.4280728    -0.1378499    -0.4460309
  C        2.3001670     0.7476450     0.5591710
  C        2.8599170    -0.5791270     0.1240600
  C       -0.7916110     0.0679730    -0.1462250
  C       -3.1892790     0.0185180     0.2391280
  H        1.6584990     0.3313320    -1.5170780
  H        1.8133820     0.7968280     1.5261570
  H        2.8068830     1.6562200     0.2533550
  H        3.7595130    -0.5939570    -0.4821470
  H        2.7562930    -1.4149420     0.8077760
  H        0.2670080    -1.6424170    -0.4848710
  H       -1.8163630    -1.5386920     0.5601430
  H       -3.2269270     0.5129170     1.2166470
  H       -4.0142600    -0.6916670     0.1589620
  H       -3.2950640     0.7803290    -0.5317260
units angstrom
no_reorient  #important for SAPT in psi4, default
symmetry c1  #important for SAPT in psi4, default
}

set PROPERTIES_ORIGIN ["COM"]
properties('MP2/aug-cc-pvtz', properties = ['dipole'])
--------------------------------------------------------------------------

    Molecular point group: c1
  Charge       = 0
  Multiplicity = 1
  Basis Set: AUG-CC-PVTZ
    Blend: AUG-CC-PVTZ
  Basis Set: (AUG-CC-PVTZ AUX)
    Blend: AUG-CC-PVTZ-JKFIT

    Orbital Energies [Eh]
    ---------------------

    Doubly Occupied:

       1A    -20.522088     2A    -15.587191     3A    -15.586095
       4A    -11.379063     5A    -11.264173     6A    -11.259184
       7A    -11.231066     8A    -11.224633     9A     -1.399872
      10A     -1.293096    11A     -1.228240    12A     -1.083079
      13A     -0.958711    14A     -0.850043    15A     -0.823832
      16A     -0.778466    17A     -0.754100    18A     -0.700911
      19A     -0.663004    20A     -0.626996    21A     -0.623017
      22A     -0.604234    23A     -0.575979    24A     -0.547186
      25A     -0.535968    26A     -0.512132    27A     -0.469768
      28A     -0.449805    29A     -0.407628    30A     -0.380092
      31A     -0.359477

  @DF-RHF Final Energy:  -378.99261037978283

   => Energetics <=

    Nuclear Repulsion Energy =            381.9923728710605815
    One-Electron Energy =               -1272.6117039347611808
    Two-Electron Energy =                 511.6267206839178243
    Total Energy =                       -378.9926103797828318
  Basis Set: (AUG-CC-PVTZ AUX)
    Blend: AUG-CC-PVTZ-RI
    Molecular point group: c1

    Geometry (in Angstrom), charge = 0, multiplicity = 1:

       Center              X                  Y                   Z               Mass
    ------------   -----------------  -----------------  -----------------  -----------------
         O           -0.778345246102     1.281115599922    -0.289138620245    15.994914619570
         N            0.398460753898    -0.703447400078    -0.120421620245    14.003074004430
         N           -1.915478246102    -0.700123400078     0.020886379755    14.003074004430
         C            1.452199553898    -0.143911300078    -0.438349520245    12.000000000000
         C            2.324293753898     0.741583599922     0.566852379755    12.000000000000
         C            2.884043753898    -0.585188400078     0.131741379755    12.000000000000
         C           -0.767484246102     0.061911599922    -0.138543620245    12.000000000000
         C           -3.165152246102     0.012456599922     0.246809379755    12.000000000000
         H            1.682625753898     0.325270599922    -1.509396620245     1.007825032230
         H            1.837508753898     0.790766599922     1.533838379755     1.007825032230
         H            2.831009753898     1.650158599922     0.261036379755     1.007825032230
         H            3.783639753898    -0.600018400078    -0.474465620245     1.007825032230
         H            2.780419753898    -1.421003400078     0.815457379755     1.007825032230
         H            0.291134753898    -1.648478400078    -0.477189620245     1.007825032230
         H           -1.792236246102    -1.544753400078     0.567824379755     1.007825032230
         H           -3.202800246102     0.506855599922     1.224328379755     1.007825032230
         H           -3.990133246102    -0.697728400078     0.166643379755     1.007825032230
         H           -3.270937246102     0.774267599922    -0.524044620245     1.007825032230

  Basis Set: AUG-CC-PVTZ
    Blend: AUG-CC-PVTZ
  Basis Set: (AUG-CC-PVTZ AUX)
    Blend: AUG-CC-PVTZ-JKFIT
	 Reference Energy          =    -378.9926103797828318 [Eh]
	 Singles Energy            =      -0.0000000000000000 [Eh]
	 Same-Spin Energy          =      -0.3940912117784300 [Eh]
	 Opposite-Spin Energy      =      -1.2652889260293525 [Eh]
	 Correlation Energy        =      -1.6593801378077826 [Eh]
	 Total Energy              =    -380.6519905175906047 [Eh]

	 ================> DF-SCS-MP2 Energies <==================
	-----------------------------------------------------------
	 SCS Same-Spin Scale       =       0.3333333333333333 [-]
	 SCS Opposite-Spin Scale   =       1.2000000000000000 [-]
	 SCS Same-Spin Energy      =      -0.1313637372594766 [Eh]
	 SCS Opposite-Spin Energy  =      -1.5183467112352229 [Eh]
	 SCS Correlation Energy    =      -1.6497104484946996 [Eh]
	 SCS Total Energy          =    -380.6423208282775477 [Eh]
	-----------------------------------------------------------

  Dipole Moment: [D]
     X:    -0.7475      Y:    -3.3341      Z:     0.7030     Total:     3.4884

*** Psi4 exiting successfully. Buy a developer a beer!
