                               Psi4 1.4a3.dev225

  ==> Input File <==

--------------------------------------------------------------------------
#psi4
#
memory 32 gb

molecule  {
0 1
  O       -0.8024720     1.2871770    -0.2968200
  N        0.3743340    -0.6973860    -0.1281030
  N       -1.9396050    -0.6940620     0.0132050
  C        1.5560867    -0.0698745    -0.4846545
  C        2.3001670     0.7476450     0.5591710
  C        2.8599170    -0.5791270     0.1240600
  C       -0.7916110     0.0679730    -0.1462250
  C       -3.1892790     0.0185180     0.2391280
  H        1.6584990     0.3313320    -1.5170780
  H        1.8133820     0.7968280     1.5261570
  H        2.8068830     1.6562200     0.2533550
  H        3.7595130    -0.5939570    -0.4821470
  H        2.7562930    -1.4149420     0.8077760
  H        0.2670080    -1.6424170    -0.4848710
  H       -1.8163630    -1.5386920     0.5601430
  H       -3.2269270     0.5129170     1.2166470
  H       -4.0142600    -0.6916670     0.1589620
  H       -3.2950640     0.7803290    -0.5317260
units angstrom
no_reorient  #important for SAPT in psi4, default
symmetry c1  #important for SAPT in psi4, default
}

set PROPERTIES_ORIGIN ["COM"]
properties('MP2/aug-cc-pvtz', properties = ['dipole'])
--------------------------------------------------------------------------

    Molecular point group: c1
  Charge       = 0
  Multiplicity = 1
  Basis Set: AUG-CC-PVTZ
    Blend: AUG-CC-PVTZ
  Basis Set: (AUG-CC-PVTZ AUX)
    Blend: AUG-CC-PVTZ-JKFIT

    Orbital Energies [Eh]
    ---------------------

    Doubly Occupied:

       1A    -20.515264     2A    -15.583155     3A    -15.582243
       4A    -11.373297     5A    -11.263659     6A    -11.255951
       7A    -11.229124     8A    -11.223390     9A     -1.387548
      10A     -1.253349    11A     -1.217511    12A     -1.107121
      13A     -0.946240    14A     -0.832533    15A     -0.825184
      16A     -0.775124    17A     -0.741784    18A     -0.700499
      19A     -0.657433    20A     -0.624893    21A     -0.616491
      22A     -0.600444    23A     -0.564796    24A     -0.544460
      25A     -0.539988    26A     -0.514172    27A     -0.455503
      28A     -0.443142    29A     -0.412746    30A     -0.403935
      31A     -0.382649

  @DF-RHF Final Energy:  -379.04849261874591

   => Energetics <=

    Nuclear Repulsion Energy =            380.3151403461301925
    One-Electron Energy =               -1269.5800105297994378
    Two-Electron Energy =                 510.2163775649233344
    Total Energy =                       -379.0484926187459109
  Basis Set: (AUG-CC-PVTZ AUX)
    Blend: AUG-CC-PVTZ-RI
    Molecular point group: c1

    Geometry (in Angstrom), charge = 0, multiplicity = 1:

       Center              X                  Y                   Z               Mass
    ------------   -----------------  -----------------  -----------------  -----------------
         O           -0.791811024956     1.273965269342    -0.285075804753    15.994914619570
         N            0.384994975044    -0.710597730658    -0.116358804753    14.003074004430
         N           -1.928944024956    -0.707273730658     0.024949195247    14.003074004430
         C            1.566747675044    -0.083086230658    -0.472910304753    12.000000000000
         C            2.310827975044     0.734433269342     0.570915195247    12.000000000000
         C            2.870577975044    -0.592338730658     0.135804195247    12.000000000000
         C           -0.780950024956     0.054761269342    -0.134480804753    12.000000000000
         C           -3.178618024956     0.005306269342     0.250872195247    12.000000000000
         H            1.669159975044     0.318120269342    -1.505333804753     1.007825032230
         H            1.824042975044     0.783616269342     1.537901195247     1.007825032230
         H            2.817543975044     1.643008269342     0.265099195247     1.007825032230
         H            3.770173975044    -0.607168730658    -0.470402804753     1.007825032230
         H            2.766953975044    -1.428153730658     0.819520195247     1.007825032230
         H            0.277668975044    -1.655628730658    -0.473126804753     1.007825032230
         H           -1.805702024956    -1.551903730658     0.571887195247     1.007825032230
         H           -3.216266024956     0.499705269342     1.228391195247     1.007825032230
         H           -4.003599024956    -0.704878730658     0.170706195247     1.007825032230
         H           -3.284403024956     0.767117269342    -0.519981804753     1.007825032230

  Basis Set: AUG-CC-PVTZ
    Blend: AUG-CC-PVTZ
  Basis Set: (AUG-CC-PVTZ AUX)
    Blend: AUG-CC-PVTZ-JKFIT
	 Reference Energy          =    -379.0484926187459109 [Eh]
	 Singles Energy            =      -0.0000000000000000 [Eh]
	 Same-Spin Energy          =      -0.3912165090859749 [Eh]
	 Opposite-Spin Energy      =      -1.2607173089588242 [Eh]
	 Correlation Energy        =      -1.6519338180447991 [Eh]
	 Total Energy              =    -380.7004264367907354 [Eh]

	 ================> DF-SCS-MP2 Energies <==================
	-----------------------------------------------------------
	 SCS Same-Spin Scale       =       0.3333333333333333 [-]
	 SCS Opposite-Spin Scale   =       1.2000000000000000 [-]
	 SCS Same-Spin Energy      =      -0.1304055030286583 [Eh]
	 SCS Opposite-Spin Energy  =      -1.5128607707505890 [Eh]
	 SCS Correlation Energy    =      -1.6432662737792474 [Eh]
	 SCS Total Energy          =    -380.6917588925251721 [Eh]
	-----------------------------------------------------------

  Dipole Moment: [D]
     X:    -0.2493      Y:    -3.2163      Z:     0.5340     Total:     3.2698

*** Psi4 exiting successfully. Buy a developer a beer!
