                               Psi4 1.3.2 release

  ==> Input File <==

--------------------------------------------------------------------------
#psi4
#
memory 32 gb

molecule  {
0 1
  O       -0.8024720     1.2871770    -0.2968200
  N        0.3617516    -0.6816662    -0.1429887
  N       -1.9396050    -0.6940620     0.0132050
  C        1.5987580    -0.0472160    -0.4975290
  C        2.3001670     0.7476450     0.5591710
  C        2.8599170    -0.5791270     0.1240600
  C       -0.7916110     0.0679730    -0.1462250
  C       -3.1892790     0.0185180     0.2391280
  H        1.6584990     0.3313320    -1.5170780
  H        1.8133820     0.7968280     1.5261570
  H        2.8068830     1.6562200     0.2533550
  H        3.7595130    -0.5939570    -0.4821470
  H        2.7562930    -1.4149420     0.8077760
  H        0.2670080    -1.6424170    -0.4848710
  H       -1.8163630    -1.5386920     0.5601430
  H       -3.2269270     0.5129170     1.2166470
  H       -4.0142600    -0.6916670     0.1589620
  H       -3.2950640     0.7803290    -0.5317260
units angstrom
no_reorient  #important for SAPT in psi4, default
symmetry c1  #important for SAPT in psi4, default
}

set PROPERTIES_ORIGIN ["COM"]
properties('MP2/aug-cc-pvtz', properties = ['dipole'])
--------------------------------------------------------------------------

    Molecular point group: c1
  Charge       = 0
  Multiplicity = 1
  Basis Set: AUG-CC-PVTZ
    Blend: AUG-CC-PVTZ
  Basis Set: (AUG-CC-PVTZ AUX)
    Blend: AUG-CC-PVTZ-JKFIT

    Orbital Energies [Eh]
    ---------------------

    Doubly Occupied:

       1A    -20.510104     2A    -15.582139     3A    -15.579496
       4A    -11.368968     5A    -11.265108     6A    -11.254161
       7A    -11.230176     8A    -11.223773     9A     -1.384580
      10A     -1.246083    11A     -1.212879    12A     -1.116522
      13A     -0.942530    14A     -0.832580    15A     -0.826938
      16A     -0.774189    17A     -0.739919    18A     -0.698409
      19A     -0.658290    20A     -0.625484    21A     -0.613920
      22A     -0.599460    23A     -0.560678    24A     -0.543797
      25A     -0.537549    26A     -0.516084    27A     -0.452053
      28A     -0.438943    29A     -0.423929    30A     -0.402325
      31A     -0.386204

  @DF-RHF Final Energy:  -379.05244611949490

   => Energetics <=

    Nuclear Repulsion Energy =            380.1702074749616145
    One-Electron Energy =               -1269.3507666767225146
    Two-Electron Energy =                 510.1281130822659406
    Total Energy =                       -379.0524461194949026
  Basis Set: (AUG-CC-PVTZ AUX)
    Blend: AUG-CC-PVTZ-RI
    Molecular point group: c1

    Geometry (in Angstrom), charge = 0, multiplicity = 1:

       Center              X                  Y                   Z               Mass
    ------------   -----------------  -----------------  -----------------  -----------------
         O           -0.794755146137     1.269652239135    -0.281894337848    15.994914619570
         N            0.369468453863    -0.699190960865    -0.128063037848    14.003074004430
         N           -1.931888146137    -0.711586760865     0.028130662152    14.003074004430
         C            1.606474853863    -0.064740760865    -0.482603337848    12.000000000000
         C            2.307883853863     0.730120239135     0.574096662152    12.000000000000
         C            2.867633853863    -0.596651760865     0.138985662152    12.000000000000
         C           -0.783894146137     0.050448239135    -0.131299337848    12.000000000000
         C           -3.181562146137     0.000993239135     0.254053662152    12.000000000000
         H            1.666215853863     0.313807239135    -1.502152337848     1.007825032230
         H            1.821098853863     0.779303239135     1.541082662152     1.007825032230
         H            2.814599853863     1.638695239135     0.268280662152     1.007825032230
         H            3.767229853863    -0.611481760865    -0.467221337848     1.007825032230
         H            2.764009853863    -1.432466760865     0.822701662152     1.007825032230
         H            0.274724853863    -1.659941760865    -0.469945337848     1.007825032230
         H           -1.808646146137    -1.556216760865     0.575068662152     1.007825032230
         H           -3.219210146137     0.495392239135     1.231572662152     1.007825032230
         H           -4.006543146137    -0.709191760865     0.173887662152     1.007825032230
         H           -3.287347146137     0.762804239135    -0.516800337848     1.007825032230

  Basis Set: AUG-CC-PVTZ
    Blend: AUG-CC-PVTZ
  Basis Set: (AUG-CC-PVTZ AUX)
    Blend: AUG-CC-PVTZ-JKFIT
	 Reference Energy          =    -379.0524461194949026 [Eh]
	 Singles Energy            =      -0.0000000000000000 [Eh]
	 Same-Spin Energy          =      -0.3907074498419426 [Eh]
	 Opposite-Spin Energy      =      -1.2597191913486427 [Eh]
	 Correlation Energy        =      -1.6504266411905852 [Eh]
	 Total Energy              =    -380.7028727606854659 [Eh]

	 ================> DF-SCS-MP2 Energies <==================
	-----------------------------------------------------------
	 SCS Same-Spin Scale       =       0.3333333333333333 [-]
	 SCS Opposite-Spin Scale   =       1.2000000000000000 [-]
	 SCS Same-Spin Energy      =      -0.1302358166139808 [Eh]
	 SCS Opposite-Spin Energy  =      -1.5116630296183713 [Eh]
	 SCS Correlation Energy    =      -1.6418988462323520 [Eh]
	 SCS Total Energy          =    -380.6943449657272822 [Eh]
	-----------------------------------------------------------

  Dipole Moment: [D]
     X:     0.0166      Y:    -3.2501      Z:     0.5313     Total:     3.2932

*** Psi4 exiting successfully. Buy a developer a beer!
