                               Psi4 1.3.2 release

  ==> Input File <==

--------------------------------------------------------------------------
#psi4
#
memory 32 gb

molecule  {
0 1
  O       -0.8024720     1.2871770    -0.2968200
  N        0.3262800    -0.6333668    -0.1882755
  N       -1.9396050    -0.6940620     0.0132050
  C        1.5987580    -0.0472160    -0.4975290
  C        2.3001670     0.7476450     0.5591710
  C        2.8599170    -0.5791270     0.1240600
  C       -0.7916110     0.0679730    -0.1462250
  C       -3.1892790     0.0185180     0.2391280
  H        1.6584990     0.3313320    -1.5170780
  H        1.8133820     0.7968280     1.5261570
  H        2.8068830     1.6562200     0.2533550
  H        3.7595130    -0.5939570    -0.4821470
  H        2.7562930    -1.4149420     0.8077760
  H        0.2670080    -1.6424170    -0.4848710
  H       -1.8163630    -1.5386920     0.5601430
  H       -3.2269270     0.5129170     1.2166470
  H       -4.0142600    -0.6916670     0.1589620
  H       -3.2950640     0.7803290    -0.5317260
units angstrom
no_reorient  #important for SAPT in psi4, default
symmetry c1  #important for SAPT in psi4, default
}

set PROPERTIES_ORIGIN ["COM"]
properties('MP2/aug-cc-pvtz', properties = ['dipole'])
--------------------------------------------------------------------------

    Molecular point group: c1
  Charge       = 0
  Multiplicity = 1
  Basis Set: AUG-CC-PVTZ
    Blend: AUG-CC-PVTZ
  Basis Set: (AUG-CC-PVTZ AUX)
    Blend: AUG-CC-PVTZ-JKFIT

    Orbital Energies [Eh]
    ---------------------

    Doubly Occupied:

       1A    -20.500057     2A    -15.584332     3A    -15.575878
       4A    -11.360845     5A    -11.268169     6A    -11.251799
       7A    -11.234534     8A    -11.225669     9A     -1.385409
      10A     -1.247739    11A     -1.211923    12A     -1.122897
      13A     -0.941725    14A     -0.842224    15A     -0.830667
      16A     -0.770013    17A     -0.743934    18A     -0.696728
      19A     -0.662516    20A     -0.626868    21A     -0.609094
      22A     -0.597393    23A     -0.562676    24A     -0.543393
      25A     -0.534395    26A     -0.518558    27A     -0.451886
      28A     -0.432706    29A     -0.427789    30A     -0.399397
      31A     -0.384507

  @DF-RHF Final Energy:  -379.04766133436527

   => Energetics <=

    Nuclear Repulsion Energy =            381.1410847657650152
    One-Electron Energy =               -1271.2860513434304721
    Two-Electron Energy =                 511.0973052433001271
    Total Energy =                       -379.0476613343652730
  Basis Set: (AUG-CC-PVTZ AUX)
    Blend: AUG-CC-PVTZ-RI
    Molecular point group: c1

    Geometry (in Angstrom), charge = 0, multiplicity = 1:

       Center              X                  Y                   Z               Mass
    ------------   -----------------  -----------------  -----------------  -----------------
         O           -0.790401057504     1.263723556229    -0.276335447323    15.994914619570
         N            0.338350942496    -0.656820243771    -0.167790947323    14.003074004430
         N           -1.927534057504    -0.717515443771     0.033689552677    14.003074004430
         C            1.610828942496    -0.070669443771    -0.477044447323    12.000000000000
         C            2.312237942496     0.724191556229     0.579655552677    12.000000000000
         C            2.871987942496    -0.602580443771     0.144544552677    12.000000000000
         C           -0.779540057504     0.044519556229    -0.125740447323    12.000000000000
         C           -3.177208057504    -0.004935443771     0.259612552677    12.000000000000
         H            1.670569942496     0.307878556229    -1.496593447323     1.007825032230
         H            1.825452942496     0.773374556229     1.546641552677     1.007825032230
         H            2.818953942496     1.632766556229     0.273839552677     1.007825032230
         H            3.771583942496    -0.617410443771    -0.461662447323     1.007825032230
         H            2.768363942496    -1.438395443771     0.828260552677     1.007825032230
         H            0.279078942496    -1.665870443771    -0.464386447323     1.007825032230
         H           -1.804292057504    -1.562145443771     0.580627552677     1.007825032230
         H           -3.214856057504     0.489463556229     1.237131552677     1.007825032230
         H           -4.002189057504    -0.715120443771     0.179446552677     1.007825032230
         H           -3.282993057504     0.756875556229    -0.511241447323     1.007825032230

  Basis Set: AUG-CC-PVTZ
    Blend: AUG-CC-PVTZ
  Basis Set: (AUG-CC-PVTZ AUX)
    Blend: AUG-CC-PVTZ-JKFIT
	 Reference Energy          =    -379.0476613343652730 [Eh]
	 Singles Energy            =      -0.0000000000000000 [Eh]
	 Same-Spin Energy          =      -0.3906729545546839 [Eh]
	 Opposite-Spin Energy      =      -1.2591616742180496 [Eh]
	 Correlation Energy        =      -1.6498346287727335 [Eh]
	 Total Energy              =    -380.6974959631380102 [Eh]

	 ================> DF-SCS-MP2 Energies <==================
	-----------------------------------------------------------
	 SCS Same-Spin Scale       =       0.3333333333333333 [-]
	 SCS Opposite-Spin Scale   =       1.2000000000000000 [-]
	 SCS Same-Spin Energy      =      -0.1302243181848946 [Eh]
	 SCS Opposite-Spin Energy  =      -1.5109940090616594 [Eh]
	 SCS Correlation Energy    =      -1.6412183272465539 [Eh]
	 SCS Total Energy          =    -380.6888796616118498 [Eh]
	-----------------------------------------------------------

  Dipole Moment: [D]
     X:     0.3777      Y:    -3.4497      Z:     0.6374     Total:     3.5284

*** Psi4 exiting successfully. Buy a developer a beer!
