                               Psi4 1.3.2 release

  ==> Input File <==

--------------------------------------------------------------------------
#psi4
#
memory 32 gb

molecule  {
0 1
  O       -0.8024720     1.2871770    -0.2968200
  N        0.3743340    -0.6973860    -0.1281030
  N       -1.9396050    -0.6940620     0.0132050
  C        1.5915611    -0.0269011    -0.4847807
  C        2.3001670     0.7476450     0.5591710
  C        2.8599170    -0.5791270     0.1240600
  C       -0.7916110     0.0679730    -0.1462250
  C       -3.1892790     0.0185180     0.2391280
  H        1.6584990     0.3313320    -1.5170780
  H        1.8133820     0.7968280     1.5261570
  H        2.8068830     1.6562200     0.2533550
  H        3.7595130    -0.5939570    -0.4821470
  H        2.7562930    -1.4149420     0.8077760
  H        0.2670080    -1.6424170    -0.4848710
  H       -1.8163630    -1.5386920     0.5601430
  H       -3.2269270     0.5129170     1.2166470
  H       -4.0142600    -0.6916670     0.1589620
  H       -3.2950640     0.7803290    -0.5317260
units angstrom
no_reorient  #important for SAPT in psi4, default
symmetry c1  #important for SAPT in psi4, default
}

set PROPERTIES_ORIGIN ["COM"]
properties('MP2/aug-cc-pvtz', properties = ['dipole'])
--------------------------------------------------------------------------

    Molecular point group: c1
  Charge       = 0
  Multiplicity = 1
  Basis Set: AUG-CC-PVTZ
    Blend: AUG-CC-PVTZ
  Basis Set: (AUG-CC-PVTZ AUX)
    Blend: AUG-CC-PVTZ-JKFIT

    Orbital Energies [Eh]
    ---------------------

    Doubly Occupied:

       1A    -20.513393     2A    -15.581746     3A    -15.580661
       4A    -11.371228     5A    -11.264479     6A    -11.254929
       7A    -11.227809     8A    -11.223487     9A     -1.384905
      10A     -1.245573    11A     -1.213414    12A     -1.115713
      13A     -0.942801    14A     -0.830308    15A     -0.824954
      16A     -0.775133    17A     -0.738022    18A     -0.699318
      19A     -0.657592    20A     -0.625250    21A     -0.615978
      22A     -0.599567    23A     -0.559968    24A     -0.543857
      25A     -0.537817    26A     -0.515335    27A     -0.453380
      28A     -0.441504    29A     -0.420673    30A     -0.403145
      31A     -0.387832

  @DF-RHF Final Energy:  -379.05181464158306

   => Energetics <=

    Nuclear Repulsion Energy =            380.0130797682555226
    One-Electron Energy =               -1269.0302497390666758
    Two-Electron Energy =                 509.9653553292281458
    Total Energy =                       -379.0518146415830643
  Basis Set: (AUG-CC-PVTZ AUX)
    Blend: AUG-CC-PVTZ-RI
    Molecular point group: c1

    Geometry (in Angstrom), charge = 0, multiplicity = 1:

       Center              X                  Y                   Z               Mass
    ------------   -----------------  -----------------  -----------------  -----------------
         O           -0.795542576181     1.269444898499    -0.285062529778    15.994914619570
         N            0.381263423819    -0.715118101501    -0.116345529778    14.003074004430
         N           -1.932675576181    -0.711794101501     0.024962470222    14.003074004430
         C            1.598490523819    -0.044633201501    -0.473023229778    12.000000000000
         C            2.307096423819     0.729912898499     0.570928470222    12.000000000000
         C            2.866846423819    -0.596859101501     0.135817470222    12.000000000000
         C           -0.784681576181     0.050240898499    -0.134467529778    12.000000000000
         C           -3.182349576181     0.000785898499     0.250885470222    12.000000000000
         H            1.665428423819     0.313599898499    -1.505320529778     1.007825032230
         H            1.820311423819     0.779095898499     1.537914470222     1.007825032230
         H            2.813812423819     1.638487898499     0.265112470222     1.007825032230
         H            3.766442423819    -0.611689101501    -0.470389529778     1.007825032230
         H            2.763222423819    -1.432674101501     0.819533470222     1.007825032230
         H            0.273937423819    -1.660149101501    -0.473113529778     1.007825032230
         H           -1.809433576181    -1.556424101501     0.571900470222     1.007825032230
         H           -3.219997576181     0.495184898499     1.228404470222     1.007825032230
         H           -4.007330576181    -0.709399101501     0.170719470222     1.007825032230
         H           -3.288134576181     0.762596898499    -0.519968529778     1.007825032230

  Basis Set: AUG-CC-PVTZ
    Blend: AUG-CC-PVTZ
  Basis Set: (AUG-CC-PVTZ AUX)
    Blend: AUG-CC-PVTZ-JKFIT
	 Reference Energy          =    -379.0518146415830643 [Eh]
	 Singles Energy            =      -0.0000000000000000 [Eh]
	 Same-Spin Energy          =      -0.3908127961177560 [Eh]
	 Opposite-Spin Energy      =      -1.2600362002163203 [Eh]
	 Correlation Energy        =      -1.6508489963340764 [Eh]
	 Total Energy              =    -380.7026636379171123 [Eh]

	 ================> DF-SCS-MP2 Energies <==================
	-----------------------------------------------------------
	 SCS Same-Spin Scale       =       0.3333333333333333 [-]
	 SCS Opposite-Spin Scale   =       1.2000000000000000 [-]
	 SCS Same-Spin Energy      =      -0.1302709320392520 [Eh]
	 SCS Opposite-Spin Energy  =      -1.5120434402595844 [Eh]
	 SCS Correlation Energy    =      -1.6423143722988365 [Eh]
	 SCS Total Energy          =    -380.6941290138818772 [Eh]
	-----------------------------------------------------------

  Dipole Moment: [D]
     X:    -0.1119      Y:    -3.1658      Z:     0.5038     Total:     3.2076

*** Psi4 exiting successfully. Buy a developer a beer!
