                               Psi4 1.4a3.dev225

  ==> Input File <==

--------------------------------------------------------------------------
#psi4
#
memory 32 gb

molecule  {
0 1
  S        1.2860020    -0.2606930    -0.0000810
  O       -0.7962180     1.3950430     0.0000390
  C       -1.3958030    -0.9449850     0.0000720
  C       -0.4414585     0.2090308    -0.0000657
  H       -1.2289500    -1.5666810    -0.8837680
  H       -1.2314380    -1.5641210     0.8861870
  H       -2.4167280    -0.5625730    -0.0018340
  H        1.7287820     1.0048730     0.0003520
units angstrom
no_reorient  #important for SAPT in psi4, default
symmetry c1  #important for SAPT in psi4, default
}

set PROPERTIES_ORIGIN ["COM"]
properties('MP2/aug-cc-pvtz', properties = ['dipole'])
--------------------------------------------------------------------------

    Molecular point group: c1
  Charge       = 0
  Multiplicity = 1
  Basis Set: AUG-CC-PVTZ
    Blend: AUG-CC-PVTZ
  Basis Set: (AUG-CC-PVTZ AUX)
    Blend: AUG-CC-PVTZ-JKFIT

    Orbital Energies [Eh]
    ---------------------

    Doubly Occupied:

       1A    -91.985194     2A    -20.564369     3A    -11.379476
       4A    -11.254747     5A     -8.987489     6A     -6.668702
       7A     -6.667643     8A     -6.666811     9A     -1.388839
      10A     -1.064108    11A     -0.989201    12A     -0.757291
      13A     -0.656852    14A     -0.636775    15A     -0.621740
      16A     -0.558637    17A     -0.533296    18A     -0.519744
      19A     -0.422085    20A     -0.396303

  @DF-RHF Final Energy:  -550.53321270755771

   => Energetics <=

    Nuclear Repulsion Energy =            152.9841919418223029
    One-Electron Energy =               -1061.5962036534849631
    Two-Electron Energy =                 358.0787990041050648
    Total Energy =                       -550.5332127075575954
  Basis Set: (AUG-CC-PVTZ AUX)
    Blend: AUG-CC-PVTZ-RI
    Molecular point group: c1

    Geometry (in Angstrom), charge = 0, multiplicity = 1:

       Center              X                  Y                   Z               Mass
    ------------   -----------------  -----------------  -----------------  -----------------
         S            1.244414210322    -0.292768835403    -0.000068552298    31.972071174400
         O           -0.837805789678     1.362967164597     0.000051447702    15.994914619570
         C           -1.437390789678    -0.977060835403     0.000084447702    12.000000000000
         C           -0.483046289678     0.176954964597    -0.000053252298    12.000000000000
         H           -1.270537789678    -1.598756835403    -0.883755552298     1.007825032230
         H           -1.273025789678    -1.596196835403     0.886199447702     1.007825032230
         H           -2.458315789678    -0.594648835403    -0.001821552298     1.007825032230
         H            1.687194210322     0.972797164597     0.000364447702     1.007825032230

  Basis Set: AUG-CC-PVTZ
    Blend: AUG-CC-PVTZ
  Basis Set: (AUG-CC-PVTZ AUX)
    Blend: AUG-CC-PVTZ-JKFIT
	 Reference Energy          =    -550.5332127075577091 [Eh]
	 Singles Energy            =      -0.0000000000000000 [Eh]
	 Same-Spin Energy          =      -0.2045224663445522 [Eh]
	 Opposite-Spin Energy      =      -0.6451551385708045 [Eh]
	 Correlation Energy        =      -0.8496776049153567 [Eh]
	 Total Energy              =    -551.3828903124730232 [Eh]

	 ================> DF-SCS-MP2 Energies <==================
	-----------------------------------------------------------
	 SCS Same-Spin Scale       =       0.3333333333333333 [-]
	 SCS Opposite-Spin Scale   =       1.2000000000000000 [-]
	 SCS Same-Spin Energy      =      -0.0681741554481841 [Eh]
	 SCS Opposite-Spin Energy  =      -0.7741861662849654 [Eh]
	 SCS Correlation Energy    =      -0.8423603217331495 [Eh]
	 SCS Total Energy          =    -551.3755730292908765 [Eh]
	-----------------------------------------------------------

  Dipole Moment: [D]
     X:     0.0743      Y:    -1.9036      Z:     0.0005     Total:     1.9050

*** Psi4 exiting successfully. Buy a developer a beer!
