                               Psi4 1.3.2 release

  ==> Input File <==

--------------------------------------------------------------------------
#psi4
#
memory 32 gb

molecule  {
0 1
  S        1.2860020    -0.2606930    -0.0000810
  O       -0.7552829     1.4065131     0.0000318
  C       -1.3958030    -0.9449850     0.0000720
  C       -0.4471900     0.2281920    -0.0000640
  H       -1.2289500    -1.5666810    -0.8837680
  H       -1.2314380    -1.5641210     0.8861870
  H       -2.4167280    -0.5625730    -0.0018340
  H        1.7287820     1.0048730     0.0003520
units angstrom
no_reorient  #important for SAPT in psi4, default
symmetry c1  #important for SAPT in psi4, default
}

set PROPERTIES_ORIGIN ["COM"]
properties('MP2/aug-cc-pvtz', properties = ['dipole'])
--------------------------------------------------------------------------

    Molecular point group: c1
  Charge       = 0
  Multiplicity = 1
  Basis Set: AUG-CC-PVTZ
    Blend: AUG-CC-PVTZ
  Basis Set: (AUG-CC-PVTZ AUX)
    Blend: AUG-CC-PVTZ-JKFIT

    Orbital Energies [Eh]
    ---------------------

    Doubly Occupied:

       1A    -91.980241     2A    -20.567559     3A    -11.379165
       4A    -11.256723     5A     -8.982620     6A     -6.663819
       7A     -6.662779     8A     -6.661939     9A     -1.403960
      10A     -1.060497    11A     -0.986043    12A     -0.757270
      13A     -0.657877    14A     -0.642631    15A     -0.623048
      16A     -0.561601    17A     -0.532114    18A     -0.527749
      19A     -0.418489    20A     -0.393650

  @DF-RHF Final Energy:  -550.53564312201433

   => Energetics <=

    Nuclear Repulsion Energy =            153.1728957722946518
    One-Electron Energy =               -1061.9775291175847087
    Two-Electron Energy =                 358.2689902232757504
    Total Energy =                       -550.5356431220143349
  Basis Set: (AUG-CC-PVTZ AUX)
    Blend: AUG-CC-PVTZ-RI
    Molecular point group: c1

    Geometry (in Angstrom), charge = 0, multiplicity = 1:

       Center              X                  Y                   Z               Mass
    ------------   -----------------  -----------------  -----------------  -----------------
         S            1.236703833406    -0.298208401114    -0.000067305383    31.972071174400
         O           -0.804581066594     1.368997698886     0.000045494617    15.994914619570
         C           -1.445101166594    -0.982500401114     0.000085694617    12.000000000000
         C           -0.496488166594     0.190676598886    -0.000050305383    12.000000000000
         H           -1.278248166594    -1.604196401114    -0.883754305383     1.007825032230
         H           -1.280736166594    -1.601636401114     0.886200694617     1.007825032230
         H           -2.466026166594    -0.600088401114    -0.001820305383     1.007825032230
         H            1.679483833406     0.967357598886     0.000365694617     1.007825032230

  Basis Set: AUG-CC-PVTZ
    Blend: AUG-CC-PVTZ
  Basis Set: (AUG-CC-PVTZ AUX)
    Blend: AUG-CC-PVTZ-JKFIT
	 Reference Energy          =    -550.5356431220143349 [Eh]
	 Singles Energy            =      -0.0000000000000000 [Eh]
	 Same-Spin Energy          =      -0.2039686963278751 [Eh]
	 Opposite-Spin Energy      =      -0.6440085940191734 [Eh]
	 Correlation Energy        =      -0.8479772903470485 [Eh]
	 Total Energy              =    -551.3836204123614380 [Eh]

	 ================> DF-SCS-MP2 Energies <==================
	-----------------------------------------------------------
	 SCS Same-Spin Scale       =       0.3333333333333333 [-]
	 SCS Opposite-Spin Scale   =       1.2000000000000000 [-]
	 SCS Same-Spin Energy      =      -0.0679895654426250 [Eh]
	 SCS Opposite-Spin Energy  =      -0.7728103128230080 [Eh]
	 SCS Correlation Energy    =      -0.8407998782656331 [Eh]
	 SCS Total Energy          =    -551.3764430002800054 [Eh]
	-----------------------------------------------------------

  Dipole Moment: [D]
     X:    -0.1487      Y:    -1.8266      Z:     0.0005     Total:     1.8327

*** Psi4 exiting successfully. Buy a developer a beer!
