                               Psi4 1.4a3.dev225

  ==> Input File <==

--------------------------------------------------------------------------
#psi4
#
memory 32 gb

molecule  {
0 1
  S        1.2860020    -0.2606930    -0.0000810
  O       -0.7962180     1.3950430     0.0000390
  C       -1.3958030    -0.9449850     0.0000720
  C       -0.4279411     0.2227624    -0.0000642
  H       -1.2289500    -1.5666810    -0.8837680
  H       -1.2314380    -1.5641210     0.8861870
  H       -2.4167280    -0.5625730    -0.0018340
  H        1.7287820     1.0048730     0.0003520
units angstrom
no_reorient  #important for SAPT in psi4, default
symmetry c1  #important for SAPT in psi4, default
}

set PROPERTIES_ORIGIN ["COM"]
properties('MP2/aug-cc-pvtz', properties = ['dipole'])
--------------------------------------------------------------------------

    Molecular point group: c1
  Charge       = 0
  Multiplicity = 1
  Basis Set: AUG-CC-PVTZ
    Blend: AUG-CC-PVTZ
  Basis Set: (AUG-CC-PVTZ AUX)
    Blend: AUG-CC-PVTZ-JKFIT

    Orbital Energies [Eh]
    ---------------------

    Doubly Occupied:

       1A    -91.985866     2A    -20.564476     3A    -11.378031
       4A    -11.253878     5A     -8.988344     6A     -6.669559
       7A     -6.668477     8A     -6.667637     9A     -1.394486
      10A     -1.061930    11A     -0.987823    12A     -0.756382
      13A     -0.656643    14A     -0.637145    15A     -0.619534
      16A     -0.559669    17A     -0.532656    18A     -0.523009
      19A     -0.421516    20A     -0.397571

  @DF-RHF Final Energy:  -550.53444775619460

   => Energetics <=

    Nuclear Repulsion Energy =            153.1007557724309152
    One-Electron Energy =               -1061.8211423353955070
    Two-Electron Energy =                 358.1859388067699683
    Total Energy =                       -550.5344477561945951
  Basis Set: (AUG-CC-PVTZ AUX)
    Blend: AUG-CC-PVTZ-RI
    Molecular point group: c1

    Geometry (in Angstrom), charge = 0, multiplicity = 1:

       Center              X                  Y                   Z               Mass
    ------------   -----------------  -----------------  -----------------  -----------------
         S            1.242279835868    -0.294937031672    -0.000068789145    31.972071174400
         O           -0.839940164132     1.360798968328     0.000051210855    15.994914619570
         C           -1.439525164132    -0.979229031672     0.000084210855    12.000000000000
         C           -0.471663264132     0.188518368328    -0.000051989145    12.000000000000
         H           -1.272672164132    -1.600925031672    -0.883755789145     1.007825032230
         H           -1.275160164132    -1.598365031672     0.886199210855     1.007825032230
         H           -2.460450164132    -0.596817031672    -0.001821789145     1.007825032230
         H            1.685059835868     0.970628968328     0.000364210855     1.007825032230

  Basis Set: AUG-CC-PVTZ
    Blend: AUG-CC-PVTZ
  Basis Set: (AUG-CC-PVTZ AUX)
    Blend: AUG-CC-PVTZ-JKFIT
	 Reference Energy          =    -550.5344477561945951 [Eh]
	 Singles Energy            =      -0.0000000000000000 [Eh]
	 Same-Spin Energy          =      -0.2042581154212286 [Eh]
	 Opposite-Spin Energy      =      -0.6446314458552401 [Eh]
	 Correlation Energy        =      -0.8488895612764686 [Eh]
	 Total Energy              =    -551.3833373174710459 [Eh]

	 ================> DF-SCS-MP2 Energies <==================
	-----------------------------------------------------------
	 SCS Same-Spin Scale       =       0.3333333333333333 [-]
	 SCS Opposite-Spin Scale   =       1.2000000000000000 [-]
	 SCS Same-Spin Energy      =      -0.0680860384737429 [Eh]
	 SCS Opposite-Spin Energy  =      -0.7735577350262881 [Eh]
	 SCS Correlation Energy    =      -0.8416437735000309 [Eh]
	 SCS Total Energy          =    -551.3760915296945768 [Eh]
	-----------------------------------------------------------

  Dipole Moment: [D]
     X:     0.1582      Y:    -1.8547      Z:     0.0005     Total:     1.8615

*** Psi4 exiting successfully. Buy a developer a beer!
