                               Psi4 1.3.2 release

  ==> Input File <==

--------------------------------------------------------------------------
#psi4
#
memory 32 gb

molecule  {
0 1
  S        1.2860020    -0.2606930    -0.0000810
  O       -0.7962180     1.3950430     0.0000390
  C       -1.3958030    -0.9449850     0.0000720
  C       -0.4079707     0.1917431    -0.0907436
  H       -1.2289500    -1.5666810    -0.8837680
  H       -1.2314380    -1.5641210     0.8861870
  H       -2.4167280    -0.5625730    -0.0018340
  H        1.7287820     1.0048730     0.0003520
units angstrom
no_reorient  #important for SAPT in psi4, default
symmetry c1  #important for SAPT in psi4, default
}

set PROPERTIES_ORIGIN ["COM"]
properties('MP2/aug-cc-pvtz', properties = ['dipole'])
--------------------------------------------------------------------------

    Molecular point group: c1
  Charge       = 0
  Multiplicity = 1
  Basis Set: AUG-CC-PVTZ
    Blend: AUG-CC-PVTZ
  Basis Set: (AUG-CC-PVTZ AUX)
    Blend: AUG-CC-PVTZ-JKFIT

    Orbital Energies [Eh]
    ---------------------

    Doubly Occupied:

       1A    -91.991096     2A    -20.559437     3A    -11.380124
       4A    -11.254450     5A     -8.993782     6A     -6.675022
       7A     -6.673933     8A     -6.673097     9A     -1.367427
      10A     -1.068233    11A     -0.992193    12A     -0.757673
      13A     -0.652910    14A     -0.628503    15A     -0.616754
      16A     -0.558926    17A     -0.532015    18A     -0.511013
      19A     -0.424750    20A     -0.398399

  @DF-RHF Final Energy:  -550.52411744737810

   => Energetics <=

    Nuclear Repulsion Energy =            152.9626408942784224
    One-Electron Energy =               -1061.5540447865598708
    Two-Electron Energy =                 358.0672864449033455
    Total Energy =                       -550.5241174473781030
  Basis Set: (AUG-CC-PVTZ AUX)
    Blend: AUG-CC-PVTZ-RI
    Molecular point group: c1

    Geometry (in Angstrom), charge = 0, multiplicity = 1:

       Center              X                  Y                   Z               Mass
    ------------   -----------------  -----------------  -----------------  -----------------
         S            1.239126543698    -0.290039136996     0.014249333781    31.972071174400
         O           -0.843093456302     1.365696863004     0.014369333781    15.994914619570
         C           -1.442678456302    -0.974331136996     0.014402333781    12.000000000000
         C           -0.454846156302     0.162396963004    -0.076413266219    12.000000000000
         H           -1.275825456302    -1.596027136996    -0.869437666219     1.007825032230
         H           -1.278313456302    -1.593467136996     0.900517333781     1.007825032230
         H           -2.463603456302    -0.591919136996     0.012496333781     1.007825032230
         H            1.681906543698     0.975526863004     0.014682333781     1.007825032230

  Basis Set: AUG-CC-PVTZ
    Blend: AUG-CC-PVTZ
  Basis Set: (AUG-CC-PVTZ AUX)
    Blend: AUG-CC-PVTZ-JKFIT
	 Reference Energy          =    -550.5241174473781030 [Eh]
	 Singles Energy            =      -0.0000000000000000 [Eh]
	 Same-Spin Energy          =      -0.2054487270417077 [Eh]
	 Opposite-Spin Energy      =      -0.6471788976626511 [Eh]
	 Correlation Energy        =      -0.8526276247043589 [Eh]
	 Total Energy              =    -551.3767450720824854 [Eh]

	 ================> DF-SCS-MP2 Energies <==================
	-----------------------------------------------------------
	 SCS Same-Spin Scale       =       0.3333333333333333 [-]
	 SCS Opposite-Spin Scale   =       1.2000000000000000 [-]
	 SCS Same-Spin Energy      =      -0.0684829090139026 [Eh]
	 SCS Opposite-Spin Energy  =      -0.7766146771951813 [Eh]
	 SCS Correlation Energy    =      -0.8450975862090839 [Eh]
	 SCS Total Energy          =    -551.3692150335872384 [Eh]
	-----------------------------------------------------------

  Dipole Moment: [D]
     X:     0.3836      Y:    -2.0006      Z:    -0.0007     Total:     2.0370

*** Psi4 exiting successfully. Buy a developer a beer!
