                               Psi4 1.3.2 release

  ==> Input File <==

--------------------------------------------------------------------------
#psi4
#
memory 32 gb

molecule  {
0 1
  S        1.2942702    -0.2303702    -0.0000840
  O       -0.7962180     1.3950430     0.0000390
  C       -1.3958030    -0.9449850     0.0000720
  C       -0.4471900     0.2281920    -0.0000640
  H       -1.2289500    -1.5666810    -0.8837680
  H       -1.2314380    -1.5641210     0.8861870
  H       -2.4167280    -0.5625730    -0.0018340
  H        1.7287820     1.0048730     0.0003520
units angstrom
no_reorient  #important for SAPT in psi4, default
symmetry c1  #important for SAPT in psi4, default
}

set PROPERTIES_ORIGIN ["COM"]
properties('MP2/aug-cc-pvtz', properties = ['dipole'])
--------------------------------------------------------------------------

    Molecular point group: c1
  Charge       = 0
  Multiplicity = 1
  Basis Set: AUG-CC-PVTZ
    Blend: AUG-CC-PVTZ
  Basis Set: (AUG-CC-PVTZ AUX)
    Blend: AUG-CC-PVTZ-JKFIT

    Orbital Energies [Eh]
    ---------------------

    Doubly Occupied:

       1A    -91.979984     2A    -20.566716     3A    -11.378563
       4A    -11.255285     5A     -8.983067     6A     -6.664338
       7A     -6.663245     8A     -6.662360     9A     -1.403509
      10A     -1.060150    11A     -0.989540    12A     -0.758921
      13A     -0.660268    14A     -0.641820    15A     -0.622141
      16A     -0.561210    17A     -0.534825    18A     -0.526689
      19A     -0.419339    20A     -0.395113

  @DF-RHF Final Energy:  -550.53597097075487

   => Energetics <=

    Nuclear Repulsion Energy =            153.1594303130311800
    One-Electron Energy =               -1061.9366399156649550
    Two-Electron Energy =                 358.2412386318789004
    Total Energy =                       -550.5359709707548745
  Basis Set: (AUG-CC-PVTZ AUX)
    Blend: AUG-CC-PVTZ-RI
    Molecular point group: c1

    Geometry (in Angstrom), charge = 0, multiplicity = 1:

       Center              X                  Y                   Z               Mass
    ------------   -----------------  -----------------  -----------------  -----------------
         S            1.250109017034    -0.278228195556    -0.000070558641    31.972071174400
         O           -0.840379182966     1.347185004444     0.000052441359    15.994914619570
         C           -1.439964182966    -0.992842995556     0.000085441359    12.000000000000
         C           -0.491351182966     0.180334004444    -0.000050558641    12.000000000000
         H           -1.273111182966    -1.614538995556    -0.883754558641     1.007825032230
         H           -1.275599182966    -1.611978995556     0.886200441359     1.007825032230
         H           -2.460889182966    -0.610430995556    -0.001820558641     1.007825032230
         H            1.684620817034     0.957015004444     0.000365441359     1.007825032230

  Basis Set: AUG-CC-PVTZ
    Blend: AUG-CC-PVTZ
  Basis Set: (AUG-CC-PVTZ AUX)
    Blend: AUG-CC-PVTZ-JKFIT
	 Reference Energy          =    -550.5359709707548745 [Eh]
	 Singles Energy            =      -0.0000000000000000 [Eh]
	 Same-Spin Energy          =      -0.2037961890341805 [Eh]
	 Opposite-Spin Energy      =      -0.6436767626743427 [Eh]
	 Correlation Energy        =      -0.8474729517085232 [Eh]
	 Total Energy              =    -551.3834439224633570 [Eh]

	 ================> DF-SCS-MP2 Energies <==================
	-----------------------------------------------------------
	 SCS Same-Spin Scale       =       0.3333333333333333 [-]
	 SCS Opposite-Spin Scale   =       1.2000000000000000 [-]
	 SCS Same-Spin Energy      =      -0.0679320630113935 [Eh]
	 SCS Opposite-Spin Energy  =      -0.7724121152092113 [Eh]
	 SCS Correlation Energy    =      -0.8403441782206048 [Eh]
	 SCS Total Energy          =    -551.3763151489754364 [Eh]
	-----------------------------------------------------------

  Dipole Moment: [D]
     X:    -0.0473      Y:    -1.8080      Z:     0.0005     Total:     1.8087

*** Psi4 exiting successfully. Buy a developer a beer!
