                               Psi4 1.3.2 release

  ==> Input File <==

--------------------------------------------------------------------------
#psi4
#
memory 32 gb

molecule  {
0 1
  S        1.2860020    -0.2606930    -0.0000810
  O       -0.7962180     1.3950430     0.0000390
  C       -1.3958030    -0.9449850     0.0000720
  C       -0.2547011     0.1738963    -0.0000659
  H       -1.2289500    -1.5666810    -0.8837680
  H       -1.2314380    -1.5641210     0.8861870
  H       -2.4167280    -0.5625730    -0.0018340
  H        1.7287820     1.0048730     0.0003520
units angstrom
no_reorient  #important for SAPT in psi4, default
symmetry c1  #important for SAPT in psi4, default
}

set PROPERTIES_ORIGIN ["COM"]
properties('MP2/aug-cc-pvtz', properties = ['dipole'])
--------------------------------------------------------------------------

    Molecular point group: c1
  Charge       = 0
  Multiplicity = 1
  Basis Set: AUG-CC-PVTZ
    Blend: AUG-CC-PVTZ
  Basis Set: (AUG-CC-PVTZ AUX)
    Blend: AUG-CC-PVTZ-JKFIT

    Orbital Energies [Eh]
    ---------------------

    Doubly Occupied:

       1A    -92.008344     2A    -20.540017     3A    -11.374662
       4A    -11.253668     5A     -9.014751     6A     -6.696288
       7A     -6.694646     8A     -6.693875     9A     -1.317892
      10A     -1.105941    11A     -0.982735    12A     -0.761150
      13A     -0.640618    14A     -0.611143    15A     -0.604406
      16A     -0.566739    17A     -0.516586    18A     -0.507734
      19A     -0.416559    20A     -0.401835

  @DF-RHF Final Energy:  -550.48447257568182

   => Energetics <=

    Nuclear Repulsion Energy =            153.9669668358549188
    One-Electron Energy =               -1063.4836994220725046
    Two-Electron Energy =                 359.0322600105358219
    Total Energy =                       -550.4844725756818207
  Basis Set: (AUG-CC-PVTZ AUX)
    Blend: AUG-CC-PVTZ-RI
    Molecular point group: c1

    Geometry (in Angstrom), charge = 0, multiplicity = 1:

       Center              X                  Y                   Z               Mass
    ------------   -----------------  -----------------  -----------------  -----------------
         S            1.214925534719    -0.287221157651    -0.000068520718    31.972071174400
         O           -0.867294465281     1.368514842349     0.000051479282    15.994914619570
         C           -1.466879465281    -0.971513157651     0.000084479282    12.000000000000
         C           -0.325777565281     0.147368142349    -0.000053420718    12.000000000000
         H           -1.300026465281    -1.593209157651    -0.883755520718     1.007825032230
         H           -1.302514465281    -1.590649157651     0.886199479282     1.007825032230
         H           -2.487804465281    -0.589101157651    -0.001821520718     1.007825032230
         H            1.657705534719     0.978344842349     0.000364479282     1.007825032230

  Basis Set: AUG-CC-PVTZ
    Blend: AUG-CC-PVTZ
  Basis Set: (AUG-CC-PVTZ AUX)
    Blend: AUG-CC-PVTZ-JKFIT
	 Reference Energy          =    -550.4844725756818207 [Eh]
	 Singles Energy            =      -0.0000000000000000 [Eh]
	 Same-Spin Energy          =      -0.2083034284331955 [Eh]
	 Opposite-Spin Energy      =      -0.6520955212514044 [Eh]
	 Correlation Energy        =      -0.8603989496845998 [Eh]
	 Total Energy              =    -551.3448715253664432 [Eh]

	 ================> DF-SCS-MP2 Energies <==================
	-----------------------------------------------------------
	 SCS Same-Spin Scale       =       0.3333333333333333 [-]
	 SCS Opposite-Spin Scale   =       1.2000000000000000 [-]
	 SCS Same-Spin Energy      =      -0.0694344761443985 [Eh]
	 SCS Opposite-Spin Energy  =      -0.7825146255016852 [Eh]
	 SCS Correlation Energy    =      -0.8519491016460836 [Eh]
	 SCS Total Energy          =    -551.3364216773278486 [Eh]
	-----------------------------------------------------------

  Dipole Moment: [D]
     X:     1.5166      Y:    -2.2524      Z:     0.0004     Total:     2.7154

*** Psi4 exiting successfully. Buy a developer a beer!
