                               Psi4 1.3.2 release

  ==> Input File <==

--------------------------------------------------------------------------
#psi4
#
memory 32 gb

molecule  {
0 1
  S        1.2860020    -0.2606930    -0.0000810
  O       -0.7962180     1.3950430     0.0000390
  C       -1.3958030    -0.9449850     0.0000720
  C       -0.4554582     0.1978692    -0.0000742
  H       -1.2289500    -1.5666810    -0.8837680
  H       -1.2314380    -1.5641210     0.8861870
  H       -2.4167280    -0.5625730    -0.0018340
  H        1.7287820     1.0048730     0.0003520
units angstrom
no_reorient  #important for SAPT in psi4, default
symmetry c1  #important for SAPT in psi4, default
}

set PROPERTIES_ORIGIN ["COM"]
properties('MP2/aug-cc-pvtz', properties = ['dipole'])
--------------------------------------------------------------------------

    Molecular point group: c1
  Charge       = 0
  Multiplicity = 1
  Basis Set: AUG-CC-PVTZ
    Blend: AUG-CC-PVTZ
  Basis Set: (AUG-CC-PVTZ AUX)
    Blend: AUG-CC-PVTZ-JKFIT

    Orbital Energies [Eh]
    ---------------------

    Doubly Occupied:

       1A    -91.984266     2A    -20.564602     3A    -11.380815
       4A    -11.255501     5A     -8.986374     6A     -6.667584
       7A     -6.666546     8A     -6.665720     9A     -1.384974
      10A     -1.066537    11A     -0.989693    12A     -0.758148
      13A     -0.657455    14A     -0.637020    15A     -0.624067
      16A     -0.557647    17A     -0.533779    18A     -0.517230
      19A     -0.422080    20A     -0.394999

  @DF-RHF Final Energy:  -550.53162834534044

   => Energetics <=

    Nuclear Repulsion Energy =            152.8775676330342321
    One-Electron Energy =               -1061.3883195393400456
    Two-Electron Energy =                 357.9791235609653768
    Total Energy =                       -550.5316283453404367
  Basis Set: (AUG-CC-PVTZ AUX)
    Blend: AUG-CC-PVTZ-RI
    Molecular point group: c1

    Geometry (in Angstrom), charge = 0, multiplicity = 1:

       Center              X                  Y                   Z               Mass
    ------------   -----------------  -----------------  -----------------  -----------------
         S            1.246624739125    -0.291006437760    -0.000067210162    31.972071174400
         O           -0.835595260875     1.364729562240     0.000052789838    15.994914619570
         C           -1.435180260875    -0.975298437760     0.000085789838    12.000000000000
         C           -0.494835460875     0.167555762240    -0.000060410162    12.000000000000
         H           -1.268327260875    -1.596994437760    -0.883754210162     1.007825032230
         H           -1.270815260875    -1.594434437760     0.886200789838     1.007825032230
         H           -2.456105260875    -0.592886437760    -0.001820210162     1.007825032230
         H            1.689404739125     0.974559562240     0.000365789838     1.007825032230

  Basis Set: AUG-CC-PVTZ
    Blend: AUG-CC-PVTZ
  Basis Set: (AUG-CC-PVTZ AUX)
    Blend: AUG-CC-PVTZ-JKFIT
	 Reference Energy          =    -550.5316283453404367 [Eh]
	 Singles Energy            =      -0.0000000000000000 [Eh]
	 Same-Spin Energy          =      -0.2047472278525428 [Eh]
	 Opposite-Spin Energy      =      -0.6455989025447677 [Eh]
	 Correlation Energy        =      -0.8503461303973106 [Eh]
	 Total Energy              =    -551.3819744757377066 [Eh]

	 ================> DF-SCS-MP2 Energies <==================
	-----------------------------------------------------------
	 SCS Same-Spin Scale       =       0.3333333333333333 [-]
	 SCS Opposite-Spin Scale   =       1.2000000000000000 [-]
	 SCS Same-Spin Energy      =      -0.0682490759508476 [Eh]
	 SCS Opposite-Spin Energy  =      -0.7747186830537213 [Eh]
	 SCS Correlation Energy    =      -0.8429677590045689 [Eh]
	 SCS Total Energy          =    -551.3745961043449597 [Eh]
	-----------------------------------------------------------

  Dipole Moment: [D]
     X:    -0.0193      Y:    -1.9401      Z:     0.0005     Total:     1.9402

*** Psi4 exiting successfully. Buy a developer a beer!
