                               Psi4 1.3.2 release

  ==> Input File <==

--------------------------------------------------------------------------
#psi4
#
memory 32 gb

molecule  {
0 1
  S        1.2860020    -0.2606930    -0.0000810
  O       -0.7139724     1.4165476     0.0000246
  C       -1.3958030    -0.9449850     0.0000720
  C       -0.4471900     0.2281920    -0.0000640
  H       -1.2289500    -1.5666810    -0.8837680
  H       -1.2314380    -1.5641210     0.8861870
  H       -2.4167280    -0.5625730    -0.0018340
  H        1.7287820     1.0048730     0.0003520
units angstrom
no_reorient  #important for SAPT in psi4, default
symmetry c1  #important for SAPT in psi4, default
}

set PROPERTIES_ORIGIN ["COM"]
properties('MP2/aug-cc-pvtz', properties = ['dipole'])
--------------------------------------------------------------------------

    Molecular point group: c1
  Charge       = 0
  Multiplicity = 1
  Basis Set: AUG-CC-PVTZ
    Blend: AUG-CC-PVTZ
  Basis Set: (AUG-CC-PVTZ AUX)
    Blend: AUG-CC-PVTZ-JKFIT

    Orbital Energies [Eh]
    ---------------------

    Doubly Occupied:

       1A    -91.977676     2A    -20.567853     3A    -11.379892
       4A    -11.258942     5A     -8.980184     6A     -6.661379
       7A     -6.660369     8A     -6.659522     9A     -1.404588
      10A     -1.060860    11A     -0.985665    12A     -0.757815
      13A     -0.657472    14A     -0.643700    15A     -0.624149
      16A     -0.563059    17A     -0.531874    18A     -0.528993
      19A     -0.416831    20A     -0.391649

  @DF-RHF Final Energy:  -550.53478833046142

   => Energetics <=

    Nuclear Repulsion Energy =            153.3261723229340987
    One-Electron Energy =               -1062.2969738375406905
    Two-Electron Energy =                 358.4360131841451675
    Total Energy =                       -550.5347883304614243
  Basis Set: (AUG-CC-PVTZ AUX)
    Blend: AUG-CC-PVTZ-RI
    Molecular point group: c1

    Geometry (in Angstrom), charge = 0, multiplicity = 1:

       Center              X                  Y                   Z               Mass
    ------------   -----------------  -----------------  -----------------  -----------------
         S            1.228009454153    -0.300320303623    -0.000065790041    31.972071174400
         O           -0.771964945847     1.376920296377     0.000039809959    15.994914619570
         C           -1.453795545847    -0.984612303623     0.000087209959    12.000000000000
         C           -0.505182545847     0.188564696377    -0.000048790041    12.000000000000
         H           -1.286942545847    -1.606308303623    -0.883752790041     1.007825032230
         H           -1.289430545847    -1.603748303623     0.886202209959     1.007825032230
         H           -2.474720545847    -0.602200303623    -0.001818790041     1.007825032230
         H            1.670789454153     0.965245696377     0.000367209959     1.007825032230

  Basis Set: AUG-CC-PVTZ
    Blend: AUG-CC-PVTZ
  Basis Set: (AUG-CC-PVTZ AUX)
    Blend: AUG-CC-PVTZ-JKFIT
	 Reference Energy          =    -550.5347883304614243 [Eh]
	 Singles Energy            =      -0.0000000000000000 [Eh]
	 Same-Spin Energy          =      -0.2039788921086144 [Eh]
	 Opposite-Spin Energy      =      -0.6439859645105339 [Eh]
	 Correlation Energy        =      -0.8479648566191482 [Eh]
	 Total Energy              =    -551.3827531870805387 [Eh]

	 ================> DF-SCS-MP2 Energies <==================
	-----------------------------------------------------------
	 SCS Same-Spin Scale       =       0.3333333333333333 [-]
	 SCS Opposite-Spin Scale   =       1.2000000000000000 [-]
	 SCS Same-Spin Energy      =      -0.0679929640362048 [Eh]
	 SCS Opposite-Spin Energy  =      -0.7727831574126407 [Eh]
	 SCS Correlation Energy    =      -0.8407761214488455 [Eh]
	 SCS Total Energy          =    -551.3755644519102361 [Eh]
	-----------------------------------------------------------

  Dipole Moment: [D]
     X:    -0.2794      Y:    -1.8406      Z:     0.0005     Total:     1.8617

*** Psi4 exiting successfully. Buy a developer a beer!
