                               Psi4 1.4a3.dev225

  ==> Input File <==

--------------------------------------------------------------------------
#psi4
#
memory 32 gb

molecule  {
0 1
  S        1.2860020    -0.2606930    -0.0000810
  O       -0.7962180     1.3950430     0.0000390
  C       -1.3958030    -0.9449850     0.0000720
  C       -0.4471900     0.2281920    -0.0000640
  H       -1.2289500    -1.5666810    -0.8837680
  H       -1.2314380    -1.5641210     0.8861870
  H       -2.4167280    -0.5625730    -0.0018340
  H        1.7122701     0.9576781     0.0003359
units angstrom
no_reorient  #important for SAPT in psi4, default
symmetry c1  #important for SAPT in psi4, default
}

set PROPERTIES_ORIGIN ["COM"]
properties('MP2/aug-cc-pvtz', properties = ['dipole'])
--------------------------------------------------------------------------

    Molecular point group: c1
  Charge       = 0
  Multiplicity = 1
  Basis Set: AUG-CC-PVTZ
    Blend: AUG-CC-PVTZ
  Basis Set: (AUG-CC-PVTZ AUX)
    Blend: AUG-CC-PVTZ-JKFIT

    Orbital Energies [Eh]
    ---------------------

    Doubly Occupied:

       1A    -91.979238     2A    -20.567507     3A    -11.378577
       4A    -11.254405     5A     -8.982865     6A     -6.664167
       7A     -6.663014     8A     -6.662097     9A     -1.403693
      10A     -1.062132    11A     -0.990750    12A     -0.759358
      13A     -0.661261    14A     -0.641710    15A     -0.621995
      16A     -0.560645    17A     -0.537280    18A     -0.526664
      19A     -0.420061    20A     -0.396055

  @DF-RHF Final Energy:  -550.53510474442203

   => Energetics <=

    Nuclear Repulsion Energy =            153.3210875296411473
    One-Electron Energy =               -1062.2454375876097856
    Two-Electron Energy =                 358.3892453135466667
    Total Energy =                       -550.5351047444220285
  Basis Set: (AUG-CC-PVTZ AUX)
    Blend: AUG-CC-PVTZ-RI
    Molecular point group: c1

    Geometry (in Angstrom), charge = 0, multiplicity = 1:

       Center              X                  Y                   Z               Mass
    ------------   -----------------  -----------------  -----------------  -----------------
         S            1.245538171279    -0.295168497397    -0.000068607220    31.972071174400
         O           -0.836681828721     1.360567502603     0.000051392780    15.994914619570
         C           -1.436266828721    -0.979460497397     0.000084392780    12.000000000000
         C           -0.487653828721     0.193716502603    -0.000051607220    12.000000000000
         H           -1.269413828721    -1.601156497397    -0.883755607220     1.007825032230
         H           -1.271901828721    -1.598596497397     0.886199392780     1.007825032230
         H           -2.457191828721    -0.597048497397    -0.001821607220     1.007825032230
         H            1.671806271279     0.923202602603     0.000348292780     1.007825032230

  Basis Set: AUG-CC-PVTZ
    Blend: AUG-CC-PVTZ
  Basis Set: (AUG-CC-PVTZ AUX)
    Blend: AUG-CC-PVTZ-JKFIT
	 Reference Energy          =    -550.5351047444220285 [Eh]
	 Singles Energy            =      -0.0000000000000000 [Eh]
	 Same-Spin Energy          =      -0.2039568505364817 [Eh]
	 Opposite-Spin Energy      =      -0.6438568761303001 [Eh]
	 Correlation Energy        =      -0.8478137266667818 [Eh]
	 Total Energy              =    -551.3829184710888285 [Eh]

	 ================> DF-SCS-MP2 Energies <==================
	-----------------------------------------------------------
	 SCS Same-Spin Scale       =       0.3333333333333333 [-]
	 SCS Opposite-Spin Scale   =       1.2000000000000000 [-]
	 SCS Same-Spin Energy      =      -0.0679856168454939 [Eh]
	 SCS Opposite-Spin Energy  =      -0.7726282513563600 [Eh]
	 SCS Correlation Energy    =      -0.8406138682018539 [Eh]
	 SCS Total Energy          =    -551.3757186126239276 [Eh]
	-----------------------------------------------------------

  Dipole Moment: [D]
     X:    -0.0268      Y:    -1.8228      Z:     0.0005     Total:     1.8230

*** Psi4 exiting successfully. Buy a developer a beer!
