                               Psi4 1.4a3.dev225

  ==> Input File <==

--------------------------------------------------------------------------
#psi4
#
memory 32 gb

molecule  {
0 1
  S        1.2860020    -0.2606930    -0.0000810
  O       -0.7962180     1.3950430     0.0000390
  C       -1.3958030    -0.9449850     0.0000720
  C       -0.3990678     0.2146181    -0.0000645
  H       -1.2289500    -1.5666810    -0.8837680
  H       -1.2314380    -1.5641210     0.8861870
  H       -2.4167280    -0.5625730    -0.0018340
  H        1.7287820     1.0048730     0.0003520
units angstrom
no_reorient  #important for SAPT in psi4, default
symmetry c1  #important for SAPT in psi4, default
}

set PROPERTIES_ORIGIN ["COM"]
properties('MP2/aug-cc-pvtz', properties = ['dipole'])
--------------------------------------------------------------------------

    Molecular point group: c1
  Charge       = 0
  Multiplicity = 1
  Basis Set: AUG-CC-PVTZ
    Blend: AUG-CC-PVTZ
  Basis Set: (AUG-CC-PVTZ AUX)
    Blend: AUG-CC-PVTZ-JKFIT

    Orbital Energies [Eh]
    ---------------------

    Doubly Occupied:

       1A    -91.990248     2A    -20.560459     3A    -11.377525
       4A    -11.253210     5A     -8.993139     6A     -6.674382
       7A     -6.673265     8A     -6.672421     9A     -1.381205
      10A     -1.066021    11A     -0.989108    12A     -0.756173
      13A     -0.654169    14A     -0.630944    15A     -0.616200
      16A     -0.559777    17A     -0.532210    18A     -0.518281
      19A     -0.423213    20A     -0.400060

  @DF-RHF Final Energy:  -550.53084212670979

   => Energetics <=

    Nuclear Repulsion Energy =            153.2035114707891523
    One-Electron Energy =               -1062.0246873212108767
    Two-Electron Energy =                 358.2903337237119104
    Total Energy =                       -550.5308421267097856
  Basis Set: (AUG-CC-PVTZ AUX)
    Blend: AUG-CC-PVTZ-RI
    Molecular point group: c1

    Geometry (in Angstrom), charge = 0, multiplicity = 1:

       Center              X                  Y                   Z               Mass
    ------------   -----------------  -----------------  -----------------  -----------------
         S            1.237720790940    -0.293651060563    -0.000068741776    31.972071174400
         O           -0.844499209060     1.362084939437     0.000051258224    15.994914619570
         C           -1.444084209060    -0.977943060563     0.000084258224    12.000000000000
         C           -0.447349009060     0.181660039437    -0.000052241776    12.000000000000
         H           -1.277231209060    -1.599639060563    -0.883755741776     1.007825032230
         H           -1.279719209060    -1.597079060563     0.886199258224     1.007825032230
         H           -2.465009209060    -0.595531060563    -0.001821741776     1.007825032230
         H            1.680500790940     0.971914939437     0.000364258224     1.007825032230

  Basis Set: AUG-CC-PVTZ
    Blend: AUG-CC-PVTZ
  Basis Set: (AUG-CC-PVTZ AUX)
    Blend: AUG-CC-PVTZ-JKFIT
	 Reference Energy          =    -550.5308421267097856 [Eh]
	 Singles Energy            =      -0.0000000000000000 [Eh]
	 Same-Spin Energy          =      -0.2047514973434717 [Eh]
	 Opposite-Spin Energy      =      -0.6455813954836365 [Eh]
	 Correlation Energy        =      -0.8503328928271082 [Eh]
	 Total Energy              =    -551.3811750195368404 [Eh]

	 ================> DF-SCS-MP2 Energies <==================
	-----------------------------------------------------------
	 SCS Same-Spin Scale       =       0.3333333333333333 [-]
	 SCS Opposite-Spin Scale   =       1.2000000000000000 [-]
	 SCS Same-Spin Energy      =      -0.0682504991144906 [Eh]
	 SCS Opposite-Spin Energy  =      -0.7746976745803638 [Eh]
	 SCS Correlation Energy    =      -0.8429481736948543 [Eh]
	 SCS Total Energy          =    -551.3737903004046075 [Eh]
	-----------------------------------------------------------

  Dipole Moment: [D]
     X:     0.4147      Y:    -1.9230      Z:     0.0004     Total:     1.9672

*** Psi4 exiting successfully. Buy a developer a beer!
