                               Psi4 1.3.2 release

  ==> Input File <==

--------------------------------------------------------------------------
#psi4
#
memory 32 gb

molecule  {
0 1
  S        1.2860020    -0.2606930    -0.0000810
  O       -0.7962180     1.3950430     0.0000390
  C       -1.3958030    -0.9449850     0.0000720
  C       -0.4685456     0.2442831     0.0453037
  H       -1.2289500    -1.5666810    -0.8837680
  H       -1.2314380    -1.5641210     0.8861870
  H       -2.4167280    -0.5625730    -0.0018340
  H        1.7287820     1.0048730     0.0003520
units angstrom
no_reorient  #important for SAPT in psi4, default
symmetry c1  #important for SAPT in psi4, default
}

set PROPERTIES_ORIGIN ["COM"]
properties('MP2/aug-cc-pvtz', properties = ['dipole'])
--------------------------------------------------------------------------

    Molecular point group: c1
  Charge       = 0
  Multiplicity = 1
  Basis Set: AUG-CC-PVTZ
    Blend: AUG-CC-PVTZ
  Basis Set: (AUG-CC-PVTZ AUX)
    Blend: AUG-CC-PVTZ-JKFIT

    Orbital Energies [Eh]
    ---------------------

    Doubly Occupied:

       1A    -91.978286     2A    -20.571699     3A    -11.378605
       4A    -11.255167     5A     -8.980330     6A     -6.661511
       7A     -6.660448     8A     -6.659616     9A     -1.420221
      10A     -1.056786    11A     -0.982512    12A     -0.757362
      13A     -0.660505    14A     -0.648679    15A     -0.624648
      16A     -0.562336    17A     -0.534361    18A     -0.530013
      19A     -0.416048    20A     -0.392777

  @DF-RHF Final Energy:  -550.53637299732998

   => Energetics <=

    Nuclear Repulsion Energy =            152.9956519372351806
    One-Electron Energy =               -1061.6002311686745543
    Two-Electron Energy =                 358.0682062341093683
    Total Energy =                       -550.5363729973300906
  Basis Set: (AUG-CC-PVTZ AUX)
    Blend: AUG-CC-PVTZ-RI
    Molecular point group: c1

    Geometry (in Angstrom), charge = 0, multiplicity = 1:

       Center              X                  Y                   Z               Mass
    ------------   -----------------  -----------------  -----------------  -----------------
         S            1.248691217311    -0.298335113574    -0.007232303340    31.972071174400
         O           -0.833528782689     1.357400886426    -0.007112303340    15.994914619570
         C           -1.433113782689    -0.982627113574    -0.007079303340    12.000000000000
         C           -0.505856382689     0.206640986426     0.038152396660    12.000000000000
         H           -1.266260782689    -1.604323113574    -0.890919303340     1.007825032230
         H           -1.268748782689    -1.601763113574     0.879035696660     1.007825032230
         H           -2.454038782689    -0.600215113574    -0.008985303340     1.007825032230
         H            1.691471217311     0.967230886426    -0.006799303340     1.007825032230

  Basis Set: AUG-CC-PVTZ
    Blend: AUG-CC-PVTZ
  Basis Set: (AUG-CC-PVTZ AUX)
    Blend: AUG-CC-PVTZ-JKFIT
	 Reference Energy          =    -550.5363729973299769 [Eh]
	 Singles Energy            =      -0.0000000000000000 [Eh]
	 Same-Spin Energy          =      -0.2034906188309327 [Eh]
	 Opposite-Spin Energy      =      -0.6431498081612559 [Eh]
	 Correlation Energy        =      -0.8466404269921886 [Eh]
	 Total Energy              =    -551.3830134243221437 [Eh]

	 ================> DF-SCS-MP2 Energies <==================
	-----------------------------------------------------------
	 SCS Same-Spin Scale       =       0.3333333333333333 [-]
	 SCS Opposite-Spin Scale   =       1.2000000000000000 [-]
	 SCS Same-Spin Energy      =      -0.0678302062769776 [Eh]
	 SCS Opposite-Spin Energy  =      -0.7717797697935070 [Eh]
	 SCS Correlation Energy    =      -0.8396099760704846 [Eh]
	 SCS Total Energy          =    -551.3759829734004825 [Eh]
	-----------------------------------------------------------

  Dipole Moment: [D]
     X:    -0.2510      Y:    -1.7027      Z:     0.0106     Total:     1.7211

*** Psi4 exiting successfully. Buy a developer a beer!
