                               Psi4 1.3.2 release

  ==> Input File <==

--------------------------------------------------------------------------
#psi4
#
memory 32 gb

molecule  {
0 1
  S        1.2860020    -0.2606930    -0.0000810
  O       -0.7962180     1.3950430     0.0000390
  C       -1.3958030    -0.9449850     0.0000720
  C       -0.3898752     0.0365804    -0.0000809
  H       -1.2289500    -1.5666810    -0.8837680
  H       -1.2314380    -1.5641210     0.8861870
  H       -2.4167280    -0.5625730    -0.0018340
  H        1.7287820     1.0048730     0.0003520
units angstrom
no_reorient  #important for SAPT in psi4, default
symmetry c1  #important for SAPT in psi4, default
}

set PROPERTIES_ORIGIN ["COM"]
properties('MP2/aug-cc-pvtz', properties = ['dipole'])
--------------------------------------------------------------------------

    Molecular point group: c1
  Charge       = 0
  Multiplicity = 1
  Basis Set: AUG-CC-PVTZ
    Blend: AUG-CC-PVTZ
  Basis Set: (AUG-CC-PVTZ AUX)
    Blend: AUG-CC-PVTZ-JKFIT

    Orbital Energies [Eh]
    ---------------------

    Doubly Occupied:

       1A    -92.004172     2A    -20.537742     3A    -11.386218
       4A    -11.257422     5A     -9.007176     6A     -6.688527
       7A     -6.687471     8A     -6.686728     9A     -1.283565
      10A     -1.094813    11A     -1.017330    12A     -0.767998
      13A     -0.652629    14A     -0.630910    15A     -0.612969
      16A     -0.570066    17A     -0.501629    18A     -0.478682
      19A     -0.421477    20A     -0.390432

  @DF-RHF Final Energy:  -550.47027982926136

   => Energetics <=

    Nuclear Repulsion Energy =            152.8540472943789155
    One-Electron Energy =               -1061.2927429221988405
    Two-Electron Energy =                 357.9684157985585102
    Total Energy =                       -550.4702798292614716
  Basis Set: (AUG-CC-PVTZ AUX)
    Blend: AUG-CC-PVTZ-RI
    Molecular point group: c1

    Geometry (in Angstrom), charge = 0, multiplicity = 1:

       Center              X                  Y                   Z               Mass
    ------------   -----------------  -----------------  -----------------  -----------------
         S            1.236269295046    -0.265539210749    -0.000066152244    31.972071174400
         O           -0.845950704954     1.390196789251     0.000053847756    15.994914619570
         C           -1.445535704954    -0.949831210749     0.000086847756    12.000000000000
         C           -0.439607904954     0.031734189251    -0.000066052244    12.000000000000
         H           -1.278682704954    -1.571527210749    -0.883753152244     1.007825032230
         H           -1.281170704954    -1.568967210749     0.886201847756     1.007825032230
         H           -2.466460704954    -0.567419210749    -0.001819152244     1.007825032230
         H            1.679049295046     1.000026789251     0.000366847756     1.007825032230

  Basis Set: AUG-CC-PVTZ
    Blend: AUG-CC-PVTZ
  Basis Set: (AUG-CC-PVTZ AUX)
    Blend: AUG-CC-PVTZ-JKFIT
	 Reference Energy          =    -550.4702798292613579 [Eh]
	 Singles Energy            =      -0.0000000000000000 [Eh]
	 Same-Spin Energy          =      -0.2102313813689258 [Eh]
	 Opposite-Spin Energy      =      -0.6557587430503509 [Eh]
	 Correlation Energy        =      -0.8659901244192767 [Eh]
	 Total Energy              =    -551.3362699536805849 [Eh]

	 ================> DF-SCS-MP2 Energies <==================
	-----------------------------------------------------------
	 SCS Same-Spin Scale       =       0.3333333333333333 [-]
	 SCS Opposite-Spin Scale   =       1.2000000000000000 [-]
	 SCS Same-Spin Energy      =      -0.0700771271229753 [Eh]
	 SCS Opposite-Spin Energy  =      -0.7869104916604210 [Eh]
	 SCS Correlation Energy    =      -0.8569876187833962 [Eh]
	 SCS Total Energy          =    -551.3272674480447222 [Eh]
	-----------------------------------------------------------

  Dipole Moment: [D]
     X:     0.7201      Y:    -2.5384      Z:     0.0006     Total:     2.6386

*** Psi4 exiting successfully. Buy a developer a beer!
