                               Psi4 1.3.2 release

  ==> Input File <==

--------------------------------------------------------------------------
#psi4
#
memory 32 gb

molecule  {
0 1
  S        1.2772058    -0.2908669    -0.0000780
  O       -0.7962180     1.3950430     0.0000390
  C       -1.3958030    -0.9449850     0.0000720
  C       -0.4471900     0.2281920    -0.0000640
  H       -1.2289500    -1.5666810    -0.8837680
  H       -1.2314380    -1.5641210     0.8861870
  H       -2.4167280    -0.5625730    -0.0018340
  H        1.7287820     1.0048730     0.0003520
units angstrom
no_reorient  #important for SAPT in psi4, default
symmetry c1  #important for SAPT in psi4, default
}

set PROPERTIES_ORIGIN ["COM"]
properties('MP2/aug-cc-pvtz', properties = ['dipole'])
--------------------------------------------------------------------------

    Molecular point group: c1
  Charge       = 0
  Multiplicity = 1
  Basis Set: AUG-CC-PVTZ
    Blend: AUG-CC-PVTZ
  Basis Set: (AUG-CC-PVTZ AUX)
    Blend: AUG-CC-PVTZ-JKFIT

    Orbital Energies [Eh]
    ---------------------

    Doubly Occupied:

       1A    -91.985422     2A    -20.567760     3A    -11.378416
       4A    -11.253723     5A     -8.986924     6A     -6.668070
       7A     -6.666997     8A     -6.666212     9A     -1.403404
      10A     -1.060372    11A     -0.983162    12A     -0.754887
      13A     -0.656437    14A     -0.641304    15A     -0.621834
      16A     -0.559514    17A     -0.529243    18A     -0.526351
      19A     -0.420154    20A     -0.396084

  @DF-RHF Final Energy:  -550.53456258262531

   => Energetics <=

    Nuclear Repulsion Energy =            152.9323953975753625
    One-Electron Energy =               -1061.4813757845661257
    Two-Electron Energy =                 358.0144178043653937
    Total Energy =                       -550.5345625826253126
  Basis Set: (AUG-CC-PVTZ AUX)
    Blend: AUG-CC-PVTZ-RI
    Molecular point group: c1

    Geometry (in Angstrom), charge = 0, multiplicity = 1:

       Center              X                  Y                   Z               Mass
    ------------   -----------------  -----------------  -----------------  -----------------
         S            1.240223518568    -0.313274258417    -0.000067082809    31.972071174400
         O           -0.833200281432     1.372635641583     0.000049917191    15.994914619570
         C           -1.432785281432    -0.967392358417     0.000082917191    12.000000000000
         C           -0.484172281432     0.205784641583    -0.000053082809    12.000000000000
         H           -1.265932281432    -1.589088358417    -0.883757082809     1.007825032230
         H           -1.268420281432    -1.586528358417     0.886197917191     1.007825032230
         H           -2.453710281432    -0.584980358417    -0.001823082809     1.007825032230
         H            1.691799718568     0.982465641583     0.000362917191     1.007825032230

  Basis Set: AUG-CC-PVTZ
    Blend: AUG-CC-PVTZ
  Basis Set: (AUG-CC-PVTZ AUX)
    Blend: AUG-CC-PVTZ-JKFIT
	 Reference Energy          =    -550.5345625826253126 [Eh]
	 Singles Energy            =      -0.0000000000000000 [Eh]
	 Same-Spin Energy          =      -0.2041707077658999 [Eh]
	 Opposite-Spin Energy      =      -0.6445231381697503 [Eh]
	 Correlation Energy        =      -0.8486938459356501 [Eh]
	 Total Energy              =    -551.3832564285609124 [Eh]

	 ================> DF-SCS-MP2 Energies <==================
	-----------------------------------------------------------
	 SCS Same-Spin Scale       =       0.3333333333333333 [-]
	 SCS Opposite-Spin Scale   =       1.2000000000000000 [-]
	 SCS Same-Spin Energy      =      -0.0680569025886333 [Eh]
	 SCS Opposite-Spin Energy  =      -0.7734277658037003 [Eh]
	 SCS Correlation Energy    =      -0.8414846683923336 [Eh]
	 SCS Total Energy          =    -551.3760472510176669 [Eh]
	-----------------------------------------------------------

  Dipole Moment: [D]
     X:     0.0045      Y:    -1.8080      Z:     0.0005     Total:     1.8080

*** Psi4 exiting successfully. Buy a developer a beer!
