                               Psi4 1.3.2 release

  ==> Input File <==

--------------------------------------------------------------------------
#psi4
#
memory 32 gb

molecule  {
0 1
  S        1.2476771    -0.3804035    -0.0000691
  O       -0.7962180     1.3950430     0.0000390
  C       -1.3958030    -0.9449850     0.0000720
  C       -0.4471900     0.2281920    -0.0000640
  H       -1.2289500    -1.5666810    -0.8837680
  H       -1.2314380    -1.5641210     0.8861870
  H       -2.4167280    -0.5625730    -0.0018340
  H        1.7287820     1.0048730     0.0003520
units angstrom
no_reorient  #important for SAPT in psi4, default
symmetry c1  #important for SAPT in psi4, default
}

set PROPERTIES_ORIGIN ["COM"]
properties('MP2/aug-cc-pvtz', properties = ['dipole'])
--------------------------------------------------------------------------

    Molecular point group: c1
  Charge       = 0
  Multiplicity = 1
  Basis Set: AUG-CC-PVTZ
    Blend: AUG-CC-PVTZ
  Basis Set: (AUG-CC-PVTZ AUX)
    Blend: AUG-CC-PVTZ-JKFIT

    Orbital Energies [Eh]
    ---------------------

    Doubly Occupied:

       1A    -91.992673     2A    -20.569535     3A    -11.378552
       4A    -11.251619     5A     -8.992358     6A     -6.673385
       7A     -6.672209     8A     -6.671549     9A     -1.403581
      10A     -1.061757    11A     -0.974809    12A     -0.750557
      13A     -0.651915    14A     -0.640512    15A     -0.621686
      16A     -0.559500    17A     -0.526074    18A     -0.516649
      19A     -0.420816    20A     -0.397564

  @DF-RHF Final Energy:  -550.52465350201408

   => Energetics <=

    Nuclear Repulsion Energy =            152.6882583498460235
    One-Electron Energy =               -1060.9712211432374716
    Two-Electron Energy =                 357.7583092913774294
    Total Energy =                       -550.5246535020139618
  Basis Set: (AUG-CC-PVTZ AUX)
    Blend: AUG-CC-PVTZ-RI
    Molecular point group: c1

    Geometry (in Angstrom), charge = 0, multiplicity = 1:

       Center              X                  Y                   Z               Mass
    ------------   -----------------  -----------------  -----------------  -----------------
         S            1.223117384243    -0.365143291140    -0.000061926991    31.972071174400
         O           -0.820777715757     1.410303208860     0.000046173009    15.994914619570
         C           -1.420362715757    -0.929724791140     0.000079173009    12.000000000000
         C           -0.471749715757     0.243452208860    -0.000056826991    12.000000000000
         H           -1.253509715757    -1.551420791140    -0.883760826991     1.007825032230
         H           -1.255997715757    -1.548860791140     0.886194173009     1.007825032230
         H           -2.441287715757    -0.547312791140    -0.001826826991     1.007825032230
         H            1.704222284243     1.020133208860     0.000359173009     1.007825032230

  Basis Set: AUG-CC-PVTZ
    Blend: AUG-CC-PVTZ
  Basis Set: (AUG-CC-PVTZ AUX)
    Blend: AUG-CC-PVTZ-JKFIT
	 Reference Energy          =    -550.5246535020140755 [Eh]
	 Singles Energy            =      -0.0000000000000000 [Eh]
	 Same-Spin Energy          =      -0.2048462310058865 [Eh]
	 Opposite-Spin Energy      =      -0.6461761698586753 [Eh]
	 Correlation Energy        =      -0.8510224008645618 [Eh]
	 Total Energy              =    -551.3756759028785837 [Eh]

	 ================> DF-SCS-MP2 Energies <==================
	-----------------------------------------------------------
	 SCS Same-Spin Scale       =       0.3333333333333333 [-]
	 SCS Opposite-Spin Scale   =       1.2000000000000000 [-]
	 SCS Same-Spin Energy      =      -0.0682820770019621 [Eh]
	 SCS Opposite-Spin Energy  =      -0.7754114038304104 [Eh]
	 SCS Correlation Energy    =      -0.8436934808323726 [Eh]
	 SCS Total Energy          =    -551.3683469828464467 [Eh]
	-----------------------------------------------------------

  Dipole Moment: [D]
     X:     0.0611      Y:    -1.8063      Z:     0.0005     Total:     1.8074

*** Psi4 exiting successfully. Buy a developer a beer!
