                               Psi4 1.3.2 release

  ==> Input File <==

--------------------------------------------------------------------------
#psi4
#
memory 32 gb

molecule  {
0 1
  S        1.2860020    -0.2606930    -0.0000810
  O       -0.7962180     1.3950430     0.0000390
  C       -1.3958030    -0.9449850     0.0000720
  C       -0.4383938     0.2583659    -0.0000538
  H       -1.2289500    -1.5666810    -0.8837680
  H       -1.2314380    -1.5641210     0.8861870
  H       -2.4167280    -0.5625730    -0.0018340
  H        1.7287820     1.0048730     0.0003520
units angstrom
no_reorient  #important for SAPT in psi4, default
symmetry c1  #important for SAPT in psi4, default
}

set PROPERTIES_ORIGIN ["COM"]
properties('MP2/aug-cc-pvtz', properties = ['dipole'])
--------------------------------------------------------------------------

    Molecular point group: c1
  Charge       = 0
  Multiplicity = 1
  Basis Set: AUG-CC-PVTZ
    Blend: AUG-CC-PVTZ
  Basis Set: (AUG-CC-PVTZ AUX)
    Blend: AUG-CC-PVTZ-JKFIT

    Orbital Energies [Eh]
    ---------------------

    Doubly Occupied:

       1A    -91.981398     2A    -20.569755     3A    -11.376052
       4A    -11.253172     5A     -8.983777     6A     -6.664966
       7A     -6.663871     8A     -6.663024     9A     -1.422450
      10A     -1.054532    11A     -0.982516    12A     -0.755767
      13A     -0.659737    14A     -0.646378    15A     -0.620889
      16A     -0.562757    17A     -0.535431    18A     -0.530286
      19A     -0.416497    20A     -0.396104

  @DF-RHF Final Energy:  -550.53719633906269

   => Energetics <=

    Nuclear Repulsion Energy =            153.2191214789720277
    One-Electron Energy =               -1062.0339150347608665
    Two-Electron Energy =                 358.2775972167261216
    Total Energy =                       -550.5371963390626888
  Basis Set: (AUG-CC-PVTZ AUX)
    Blend: AUG-CC-PVTZ-RI
    Molecular point group: c1

    Geometry (in Angstrom), charge = 0, multiplicity = 1:

       Center              X                  Y                   Z               Mass
    ------------   -----------------  -----------------  -----------------  -----------------
         S            1.243930299408    -0.300558763726    -0.000070431287    31.972071174400
         O           -0.838289700592     1.355177236274     0.000049568713    15.994914619570
         C           -1.437874700592    -0.984850763726     0.000082568713    12.000000000000
         C           -0.480465500592     0.218500136274    -0.000043231287    12.000000000000
         H           -1.271021700592    -1.606546763726    -0.883757431287     1.007825032230
         H           -1.273509700592    -1.603986763726     0.886197568713     1.007825032230
         H           -2.458799700592    -0.602438763726    -0.001823431287     1.007825032230
         H            1.686710299408     0.965007236274     0.000362568713     1.007825032230

  Basis Set: AUG-CC-PVTZ
    Blend: AUG-CC-PVTZ
  Basis Set: (AUG-CC-PVTZ AUX)
    Blend: AUG-CC-PVTZ-JKFIT
	 Reference Energy          =    -550.5371963390626888 [Eh]
	 Singles Energy            =      -0.0000000000000000 [Eh]
	 Same-Spin Energy          =      -0.2032883451405597 [Eh]
	 Opposite-Spin Energy      =      -0.6427029243146793 [Eh]
	 Correlation Energy        =      -0.8459912694552391 [Eh]
	 Total Energy              =    -551.3831876085179147 [Eh]

	 ================> DF-SCS-MP2 Energies <==================
	-----------------------------------------------------------
	 SCS Same-Spin Scale       =       0.3333333333333333 [-]
	 SCS Opposite-Spin Scale   =       1.2000000000000000 [-]
	 SCS Same-Spin Energy      =      -0.0677627817135199 [Eh]
	 SCS Opposite-Spin Energy  =      -0.7712435091776152 [Eh]
	 SCS Correlation Energy    =      -0.8390062908911351 [Eh]
	 SCS Total Energy          =    -551.3762026299538093 [Eh]
	-----------------------------------------------------------

  Dipole Moment: [D]
     X:    -0.0177      Y:    -1.6679      Z:     0.0004     Total:     1.6680

*** Psi4 exiting successfully. Buy a developer a beer!
