                               Psi4 1.4a3.dev225

  ==> Input File <==

--------------------------------------------------------------------------
#psi4
#
memory 32 gb

molecule  {
0 1
  S        1.2860020    -0.2606930    -0.0000810
  O       -0.7962180     1.3950430     0.0000390
  C       -1.3958030    -0.9449850     0.0000720
  C       -0.4953122     0.2417659    -0.0000635
  H       -1.2289500    -1.5666810    -0.8837680
  H       -1.2314380    -1.5641210     0.8861870
  H       -2.4167280    -0.5625730    -0.0018340
  H        1.7287820     1.0048730     0.0003520
units angstrom
no_reorient  #important for SAPT in psi4, default
symmetry c1  #important for SAPT in psi4, default
}

set PROPERTIES_ORIGIN ["COM"]
properties('MP2/aug-cc-pvtz', properties = ['dipole'])
--------------------------------------------------------------------------

    Molecular point group: c1
  Charge       = 0
  Multiplicity = 1
  Basis Set: AUG-CC-PVTZ
    Blend: AUG-CC-PVTZ
  Basis Set: (AUG-CC-PVTZ AUX)
    Blend: AUG-CC-PVTZ-JKFIT

    Orbital Energies [Eh]
    ---------------------

    Doubly Occupied:

       1A    -91.974322     2A    -20.574489     3A    -11.380050
       4A    -11.256640     5A     -8.976155     6A     -6.657330
       7A     -6.656281     8A     -6.655464     9A     -1.426117
      10A     -1.059142    11A     -0.979996    12A     -0.758752
      13A     -0.662416    14A     -0.653394    15A     -0.628859
      16A     -0.563407    17A     -0.536186    18A     -0.529769
      19A     -0.413445    20A     -0.389696

  @DF-RHF Final Energy:  -550.53623612209060

   => Energetics <=

    Nuclear Repulsion Energy =            152.9060540646131301
    One-Electron Energy =               -1061.4207590786197670
    Two-Electron Energy =                 357.9784688919160658
    Total Energy =                       -550.5362361220904859
  Basis Set: (AUG-CC-PVTZ AUX)
    Blend: AUG-CC-PVTZ-RI
    Molecular point group: c1

    Geometry (in Angstrom), charge = 0, multiplicity = 1:

       Center              X                  Y                   Z               Mass
    ------------   -----------------  -----------------  -----------------  -----------------
         S            1.252917617895    -0.297937651978    -0.000068899674    31.972071174400
         O           -0.829302382105     1.357798348022     0.000051100326    15.994914619570
         C           -1.428887382105    -0.982229651978     0.000084100326    12.000000000000
         C           -0.528396582105     0.204521248022    -0.000051399674    12.000000000000
         H           -1.262034382105    -1.603925651978    -0.883755899674     1.007825032230
         H           -1.264522382105    -1.601365651978     0.886199100326     1.007825032230
         H           -2.449812382105    -0.599817651978    -0.001821899674     1.007825032230
         H            1.695697617895     0.967628348022     0.000364100326     1.007825032230

  Basis Set: AUG-CC-PVTZ
    Blend: AUG-CC-PVTZ
  Basis Set: (AUG-CC-PVTZ AUX)
    Blend: AUG-CC-PVTZ-JKFIT
	 Reference Energy          =    -550.5362361220905996 [Eh]
	 Singles Energy            =      -0.0000000000000000 [Eh]
	 Same-Spin Energy          =      -0.2034266674958101 [Eh]
	 Opposite-Spin Energy      =      -0.6429343561484770 [Eh]
	 Correlation Energy        =      -0.8463610236442871 [Eh]
	 Total Energy              =    -551.3825971457348487 [Eh]

	 ================> DF-SCS-MP2 Energies <==================
	-----------------------------------------------------------
	 SCS Same-Spin Scale       =       0.3333333333333333 [-]
	 SCS Opposite-Spin Scale   =       1.2000000000000000 [-]
	 SCS Same-Spin Energy      =      -0.0678088891652700 [Eh]
	 SCS Opposite-Spin Energy  =      -0.7715212273781724 [Eh]
	 SCS Correlation Energy    =      -0.8393301165434425 [Eh]
	 SCS Total Energy          =    -551.3755662386340646 [Eh]
	-----------------------------------------------------------

  Dipole Moment: [D]
     X:    -0.4908      Y:    -1.6870      Z:     0.0005     Total:     1.7569

*** Psi4 exiting successfully. Buy a developer a beer!
