                               Psi4 1.3.2 release

  ==> Input File <==

--------------------------------------------------------------------------
#psi4
#
memory 32 gb

molecule  {
0 1
  S        1.2860020    -0.2606930    -0.0000810
  O       -0.7962180     1.3950430     0.0000390
  C       -1.3958030    -0.9449850     0.0000720
  C       -0.4185326     0.1323862    -0.0000725
  H       -1.2289500    -1.5666810    -0.8837680
  H       -1.2314380    -1.5641210     0.8861870
  H       -2.4167280    -0.5625730    -0.0018340
  H        1.7287820     1.0048730     0.0003520
units angstrom
no_reorient  #important for SAPT in psi4, default
symmetry c1  #important for SAPT in psi4, default
}

set PROPERTIES_ORIGIN ["COM"]
properties('MP2/aug-cc-pvtz', properties = ['dipole'])
--------------------------------------------------------------------------

    Molecular point group: c1
  Charge       = 0
  Multiplicity = 1
  Basis Set: AUG-CC-PVTZ
    Blend: AUG-CC-PVTZ
  Basis Set: (AUG-CC-PVTZ AUX)
    Blend: AUG-CC-PVTZ-JKFIT

    Orbital Energies [Eh]
    ---------------------

    Doubly Occupied:

       1A    -91.994118     2A    -20.552963     3A    -11.383124
       4A    -11.255831     5A     -8.996679     6A     -6.677948
       7A     -6.676909     8A     -6.676099     9A     -1.336305
      10A     -1.079068    11A     -1.001349    12A     -0.761200
      13A     -0.653083    14A     -0.624123    15A     -0.620774
      16A     -0.561227    17A     -0.526513    18A     -0.496378
      19A     -0.426257    20A     -0.396467

  @DF-RHF Final Energy:  -550.51246049020165

   => Energetics <=

    Nuclear Repulsion Energy =            152.8556724103701470
    One-Electron Energy =               -1061.3434344314428017
    Two-Electron Energy =                 357.9753015308709791
    Total Energy =                       -550.5124604902016472
  Basis Set: (AUG-CC-PVTZ AUX)
    Blend: AUG-CC-PVTZ-RI
    Molecular point group: c1

    Geometry (in Angstrom), charge = 0, multiplicity = 1:

       Center              X                  Y                   Z               Mass
    ------------   -----------------  -----------------  -----------------  -----------------
         S            1.240794249732    -0.280666783510    -0.000067478589    31.972071174400
         O           -0.841425750268     1.375069216490     0.000052521411    15.994914619570
         C           -1.441010750268    -0.964958783510     0.000085521411    12.000000000000
         C           -0.463740350268     0.112412416490    -0.000058978589    12.000000000000
         H           -1.274157750268    -1.586654783510    -0.883754478589     1.007825032230
         H           -1.276645750268    -1.584094783510     0.886200521411     1.007825032230
         H           -2.461935750268    -0.582546783510    -0.001820478589     1.007825032230
         H            1.683574249732     0.984899216490     0.000365521411     1.007825032230

  Basis Set: AUG-CC-PVTZ
    Blend: AUG-CC-PVTZ
  Basis Set: (AUG-CC-PVTZ AUX)
    Blend: AUG-CC-PVTZ-JKFIT
	 Reference Energy          =    -550.5124604902016472 [Eh]
	 Singles Energy            =      -0.0000000000000000 [Eh]
	 Same-Spin Energy          =      -0.2069519300644511 [Eh]
	 Opposite-Spin Energy      =      -0.6498151755198229 [Eh]
	 Correlation Energy        =      -0.8567671055842740 [Eh]
	 Total Energy              =    -551.3692275957859010 [Eh]

	 ================> DF-SCS-MP2 Energies <==================
	-----------------------------------------------------------
	 SCS Same-Spin Scale       =       0.3333333333333333 [-]
	 SCS Opposite-Spin Scale   =       1.2000000000000000 [-]
	 SCS Same-Spin Energy      =      -0.0689839766881504 [Eh]
	 SCS Opposite-Spin Energy  =      -0.7797782106237875 [Eh]
	 SCS Correlation Energy    =      -0.8487621873119379 [Eh]
	 SCS Total Energy          =    -551.3612226775136378 [Eh]
	-----------------------------------------------------------

  Dipole Moment: [D]
     X:     0.4030      Y:    -2.2293      Z:     0.0005     Total:     2.2654

*** Psi4 exiting successfully. Buy a developer a beer!
