                               Psi4 1.3.2 release

  ==> Input File <==

--------------------------------------------------------------------------
#psi4
#
memory 32 gb

molecule  {
0 1
  S        1.2860020    -0.2606930    -0.0000810
  O       -0.7758005     1.4009567     0.0000354
  C       -1.3958030    -0.9449850     0.0000720
  C       -0.4471900     0.2281920    -0.0000640
  H       -1.2289500    -1.5666810    -0.8837680
  H       -1.2314380    -1.5641210     0.8861870
  H       -2.4167280    -0.5625730    -0.0018340
  H        1.7287820     1.0048730     0.0003520
units angstrom
no_reorient  #important for SAPT in psi4, default
symmetry c1  #important for SAPT in psi4, default
}

set PROPERTIES_ORIGIN ["COM"]
properties('MP2/aug-cc-pvtz', properties = ['dipole'])
--------------------------------------------------------------------------

    Molecular point group: c1
  Charge       = 0
  Multiplicity = 1
  Basis Set: AUG-CC-PVTZ
    Blend: AUG-CC-PVTZ
  Basis Set: (AUG-CC-PVTZ AUX)
    Blend: AUG-CC-PVTZ-JKFIT

    Orbital Energies [Eh]
    ---------------------

    Doubly Occupied:

       1A    -91.981509     2A    -20.567396     3A    -11.378811
       4A    -11.255607     5A     -8.983823     6A     -6.665023
       7A     -6.663969     8A     -6.663132     9A     -1.403684
      10A     -1.060333    11A     -0.986174    12A     -0.757019
      13A     -0.658078    14A     -0.642096    15A     -0.622504
      16A     -0.560872    17A     -0.532245    18A     -0.527127
      19A     -0.419183    20A     -0.394630

  @DF-RHF Final Energy:  -550.53583970254329

   => Energetics <=

    Nuclear Repulsion Energy =            153.1036370533267643
    One-Electron Energy =               -1061.8325215710021894
    Two-Electron Energy =                 358.1930448151321684
    Total Energy =                       -550.5358397025431714
  Basis Set: (AUG-CC-PVTZ AUX)
    Blend: AUG-CC-PVTZ-RI
    Molecular point group: c1

    Geometry (in Angstrom), charge = 0, multiplicity = 1:

       Center              X                  Y                   Z               Mass
    ------------   -----------------  -----------------  -----------------  -----------------
         S            1.241022052642    -0.297038978113    -0.000068063054    31.972071174400
         O           -0.820780447358     1.364610721887     0.000048336946    15.994914619570
         C           -1.440782947358    -0.981330978113     0.000084936946    12.000000000000
         C           -0.492169947358     0.191846021887    -0.000051063054    12.000000000000
         H           -1.273929947358    -1.603026978113    -0.883755063054     1.007825032230
         H           -1.276417947358    -1.600466978113     0.886199936946     1.007825032230
         H           -2.461707947358    -0.598918978113    -0.001821063054     1.007825032230
         H            1.683802052642     0.968527021887     0.000364936946     1.007825032230

  Basis Set: AUG-CC-PVTZ
    Blend: AUG-CC-PVTZ
  Basis Set: (AUG-CC-PVTZ AUX)
    Blend: AUG-CC-PVTZ-JKFIT
	 Reference Energy          =    -550.5358397025432851 [Eh]
	 Singles Energy            =      -0.0000000000000000 [Eh]
	 Same-Spin Energy          =      -0.2039698999387846 [Eh]
	 Opposite-Spin Energy      =      -0.6440356527611530 [Eh]
	 Correlation Energy        =      -0.8480055526999377 [Eh]
	 Total Energy              =    -551.3838452552432727 [Eh]

	 ================> DF-SCS-MP2 Energies <==================
	-----------------------------------------------------------
	 SCS Same-Spin Scale       =       0.3333333333333333 [-]
	 SCS Opposite-Spin Scale   =       1.2000000000000000 [-]
	 SCS Same-Spin Energy      =      -0.0679899666462615 [Eh]
	 SCS Opposite-Spin Energy  =      -0.7728427833133836 [Eh]
	 SCS Correlation Energy    =      -0.8408327499596452 [Eh]
	 SCS Total Energy          =    -551.3766724525029304 [Eh]
	-----------------------------------------------------------

  Dipole Moment: [D]
     X:    -0.0841      Y:    -1.8179      Z:     0.0005     Total:     1.8199

*** Psi4 exiting successfully. Buy a developer a beer!
