                               Psi4 1.4a3.dev225

  ==> Input File <==

--------------------------------------------------------------------------
#psi4
#
memory 32 gb

molecule  {
0 1
  S        1.2860020    -0.2606930    -0.0000810
  O       -0.7962180     1.3950430     0.0000390
  C       -1.3958030    -0.9449850     0.0000720
  C       -0.4471900     0.2281920    -0.0000640
  H       -1.2289500    -1.5666810    -0.8837680
  H       -1.2314380    -1.5641210     0.8861870
  H       -2.4167280    -0.5625730    -0.0018340
  H        1.7353868     1.0237509     0.0003585
units angstrom
no_reorient  #important for SAPT in psi4, default
symmetry c1  #important for SAPT in psi4, default
}

set PROPERTIES_ORIGIN ["COM"]
properties('MP2/aug-cc-pvtz', properties = ['dipole'])
--------------------------------------------------------------------------

    Molecular point group: c1
  Charge       = 0
  Multiplicity = 1
  Basis Set: AUG-CC-PVTZ
    Blend: AUG-CC-PVTZ
  Basis Set: (AUG-CC-PVTZ AUX)
    Blend: AUG-CC-PVTZ-JKFIT

    Orbital Energies [Eh]
    ---------------------

    Doubly Occupied:

       1A    -91.984094     2A    -20.567116     3A    -11.378424
       4A    -11.254526     5A     -8.985854     6A     -6.667023
       7A     -6.665970     8A     -6.665166     9A     -1.403332
      10A     -1.059537    11A     -0.984588    12A     -0.755832
      13A     -0.657130    14A     -0.641504    15A     -0.621959
      16A     -0.559980    17A     -0.530255    18A     -0.526443
      19A     -0.419677    20A     -0.395428

  @DF-RHF Final Energy:  -550.53544134519461

   => Energetics <=

    Nuclear Repulsion Energy =            152.9314779553542962
    One-Electron Energy =               -1061.4861580410513398
    Two-Electron Energy =                 358.0192387405024306
    Total Energy =                       -550.5354413451946129
  Basis Set: (AUG-CC-PVTZ AUX)
    Blend: AUG-CC-PVTZ-RI
    Molecular point group: c1

    Geometry (in Angstrom), charge = 0, multiplicity = 1:

       Center              X                  Y                   Z               Mass
    ------------   -----------------  -----------------  -----------------  -----------------
         S            1.245231617142    -0.296044699025    -0.000068906922    31.972071174400
         O           -0.836988382858     1.359691300975     0.000051093078    15.994914619570
         C           -1.436573382858    -0.980336699025     0.000084093078    12.000000000000
         C           -0.487960382858     0.192840300975    -0.000051906922    12.000000000000
         H           -1.269720382858    -1.602032699025    -0.883755906922     1.007825032230
         H           -1.272208382858    -1.599472699025     0.886199093078     1.007825032230
         H           -2.457498382858    -0.597924699025    -0.001821906922     1.007825032230
         H            1.694616417142     0.988399200975     0.000370593078     1.007825032230

  Basis Set: AUG-CC-PVTZ
    Blend: AUG-CC-PVTZ
  Basis Set: (AUG-CC-PVTZ AUX)
    Blend: AUG-CC-PVTZ-JKFIT
	 Reference Energy          =    -550.5354413451946129 [Eh]
	 Singles Energy            =      -0.0000000000000000 [Eh]
	 Same-Spin Energy          =      -0.2039877716172603 [Eh]
	 Opposite-Spin Energy      =      -0.6441846247996328 [Eh]
	 Correlation Energy        =      -0.8481723964168930 [Eh]
	 Total Energy              =    -551.3836137416114980 [Eh]

	 ================> DF-SCS-MP2 Energies <==================
	-----------------------------------------------------------
	 SCS Same-Spin Scale       =       0.3333333333333333 [-]
	 SCS Opposite-Spin Scale   =       1.2000000000000000 [-]
	 SCS Same-Spin Energy      =      -0.0679959238724201 [Eh]
	 SCS Opposite-Spin Energy  =      -0.7730215497595593 [Eh]
	 SCS Correlation Energy    =      -0.8410174736319793 [Eh]
	 SCS Total Energy          =    -551.3764588188265634 [Eh]
	-----------------------------------------------------------

  Dipole Moment: [D]
     X:    -0.0175      Y:    -1.8021      Z:     0.0005     Total:     1.8022

*** Psi4 exiting successfully. Buy a developer a beer!
