                               Psi4 1.3.2 release

  ==> Input File <==

--------------------------------------------------------------------------
#psi4
#
memory 32 gb

molecule  {
0 1
  S        1.2860020    -0.2606930    -0.0000810
  O       -0.7962180     1.3950430     0.0000390
  C       -1.3958030    -0.9449850     0.0000720
  C       -0.4471900     0.2281920    -0.0000640
  H       -1.2289500    -1.5666810    -0.8837680
  H       -1.2314380    -1.5641210     0.8861870
  H       -2.4167280    -0.5625730    -0.0018340
  H        1.6957581     0.9104833     0.0003197
units angstrom
no_reorient  #important for SAPT in psi4, default
symmetry c1  #important for SAPT in psi4, default
}

set PROPERTIES_ORIGIN ["COM"]
properties('MP2/aug-cc-pvtz', properties = ['dipole'])
--------------------------------------------------------------------------

    Molecular point group: c1
  Charge       = 0
  Multiplicity = 1
  Basis Set: AUG-CC-PVTZ
    Blend: AUG-CC-PVTZ
  Basis Set: (AUG-CC-PVTZ AUX)
    Blend: AUG-CC-PVTZ-JKFIT

    Orbital Energies [Eh]
    ---------------------

    Doubly Occupied:

       1A    -91.975393     2A    -20.567810     3A    -11.378707
       4A    -11.254339     5A     -8.980650     6A     -6.662111
       7A     -6.660755     8A     -6.659763     9A     -1.403967
      10A     -1.064704    11A     -0.995590    12A     -0.762222
      13A     -0.664356    14A     -0.641864    15A     -0.622037
      16A     -0.561308    17A     -0.541508    18A     -0.526833
      19A     -0.420350    20A     -0.396566

  @DF-RHF Final Energy:  -550.53103635305786

   => Energetics <=

    Nuclear Repulsion Energy =            153.6223156355411277
    One-Electron Energy =               -1062.8250352589845988
    Two-Electron Energy =                 358.6716832703856426
    Total Energy =                       -550.5310363530578570
  Basis Set: (AUG-CC-PVTZ AUX)
    Blend: AUG-CC-PVTZ-RI
    Molecular point group: c1

    Geometry (in Angstrom), charge = 0, multiplicity = 1:

       Center              X                  Y                   Z               Mass
    ------------   -----------------  -----------------  -----------------  -----------------
         S            1.245757139466    -0.294542639850    -0.000068392389    31.972071174400
         O           -0.836462860534     1.361193360150     0.000051607611    15.994914619570
         C           -1.436047860534    -0.978834639850     0.000084607611    12.000000000000
         C           -0.487434860534     0.194342360150    -0.000051392389    12.000000000000
         H           -1.269194860534    -1.600530639850    -0.883755392389     1.007825032230
         H           -1.271682860534    -1.597970639850     0.886199607611     1.007825032230
         H           -2.456972860534    -0.596422639850    -0.001821392389     1.007825032230
         H            1.655513239466     0.876633660150     0.000332307611     1.007825032230

  Basis Set: AUG-CC-PVTZ
    Blend: AUG-CC-PVTZ
  Basis Set: (AUG-CC-PVTZ AUX)
    Blend: AUG-CC-PVTZ-JKFIT
	 Reference Energy          =    -550.5310363530578570 [Eh]
	 Singles Energy            =      -0.0000000000000000 [Eh]
	 Same-Spin Energy          =      -0.2039579496479341 [Eh]
	 Opposite-Spin Energy      =      -0.6437322700497372 [Eh]
	 Correlation Energy        =      -0.8476902196976713 [Eh]
	 Total Energy              =    -551.3787265727555678 [Eh]

	 ================> DF-SCS-MP2 Energies <==================
	-----------------------------------------------------------
	 SCS Same-Spin Scale       =       0.3333333333333333 [-]
	 SCS Opposite-Spin Scale   =       1.2000000000000000 [-]
	 SCS Same-Spin Energy      =      -0.0679859832159780 [Eh]
	 SCS Opposite-Spin Energy  =      -0.7724787240596847 [Eh]
	 SCS Correlation Energy    =      -0.8404647072756627 [Eh]
	 SCS Total Energy          =    -551.3715010603335713 [Eh]
	-----------------------------------------------------------

  Dipole Moment: [D]
     X:    -0.0349      Y:    -1.8369      Z:     0.0005     Total:     1.8372

*** Psi4 exiting successfully. Buy a developer a beer!
