                               Psi4 1.3.2 release

  ==> Input File <==

--------------------------------------------------------------------------
#psi4
#
memory 32 gb

molecule  {
0 1
  S        1.2860020    -0.2606930    -0.0000810
  O       -0.9162751     1.3521675     0.0000597
  C       -1.3958030    -0.9449850     0.0000720
  C       -0.4471900     0.2281920    -0.0000640
  H       -1.2289500    -1.5666810    -0.8837680
  H       -1.2314380    -1.5641210     0.8861870
  H       -2.4167280    -0.5625730    -0.0018340
  H        1.7287820     1.0048730     0.0003520
units angstrom
no_reorient  #important for SAPT in psi4, default
symmetry c1  #important for SAPT in psi4, default
}

set PROPERTIES_ORIGIN ["COM"]
properties('MP2/aug-cc-pvtz', properties = ['dipole'])
--------------------------------------------------------------------------

    Molecular point group: c1
  Charge       = 0
  Multiplicity = 1
  Basis Set: AUG-CC-PVTZ
    Blend: AUG-CC-PVTZ
  Basis Set: (AUG-CC-PVTZ AUX)
    Blend: AUG-CC-PVTZ-JKFIT

    Orbital Energies [Eh]
    ---------------------

    Doubly Occupied:

       1A    -91.990088     2A    -20.565970     3A    -11.376498
       4A    -11.247706     5A     -8.991957     6A     -6.673154
       7A     -6.672016     8A     -6.671187     9A     -1.402454
      10A     -1.059517    11A     -0.985994    12A     -0.755627
      13A     -0.659434    14A     -0.638400    15A     -0.618882
      16A     -0.555792    17A     -0.533415    18A     -0.522703
      19A     -0.421404    20A     -0.401115

  @DF-RHF Final Energy:  -550.53293478257342

   => Energetics <=

    Nuclear Repulsion Energy =            152.7539099561209923
    One-Electron Energy =               -1061.0870646799553469
    Two-Electron Energy =                 357.8002199412609343
    Total Energy =                       -550.5329347825734203
  Basis Set: (AUG-CC-PVTZ AUX)
    Blend: AUG-CC-PVTZ-RI
    Molecular point group: c1

    Geometry (in Angstrom), charge = 0, multiplicity = 1:

       Center              X                  Y                   Z               Mass
    ------------   -----------------  -----------------  -----------------  -----------------
         S            1.270586919875    -0.286770600624    -0.000073177333    31.972071174400
         O           -0.931690180125     1.326089899376     0.000067522667    15.994914619570
         C           -1.411218080125    -0.971062600624     0.000079822667    12.000000000000
         C           -0.462605080125     0.202114399376    -0.000056177333    12.000000000000
         H           -1.244365080125    -1.592758600624    -0.883760177333     1.007825032230
         H           -1.246853080125    -1.590198600624     0.886194822667     1.007825032230
         H           -2.432143080125    -0.588650600624    -0.001826177333     1.007825032230
         H            1.713366919875     0.978795399376     0.000359822667     1.007825032230

  Basis Set: AUG-CC-PVTZ
    Blend: AUG-CC-PVTZ
  Basis Set: (AUG-CC-PVTZ AUX)
    Blend: AUG-CC-PVTZ-JKFIT
	 Reference Energy          =    -550.5329347825734203 [Eh]
	 Singles Energy            =      -0.0000000000000000 [Eh]
	 Same-Spin Energy          =      -0.2040978721325811 [Eh]
	 Opposite-Spin Energy      =      -0.6445203565582015 [Eh]
	 Correlation Energy        =      -0.8486182286907826 [Eh]
	 Total Energy              =    -551.3815530112642591 [Eh]

	 ================> DF-SCS-MP2 Energies <==================
	-----------------------------------------------------------
	 SCS Same-Spin Scale       =       0.3333333333333333 [-]
	 SCS Opposite-Spin Scale   =       1.2000000000000000 [-]
	 SCS Same-Spin Energy      =      -0.0680326240441937 [Eh]
	 SCS Opposite-Spin Energy  =      -0.7734244278698418 [Eh]
	 SCS Correlation Energy    =      -0.8414570519140354 [Eh]
	 SCS Total Energy          =    -551.3743918344874828 [Eh]
	-----------------------------------------------------------

  Dipole Moment: [D]
     X:     0.3530      Y:    -1.7263      Z:     0.0004     Total:     1.7620

*** Psi4 exiting successfully. Buy a developer a beer!
