                               Psi4 1.3.2 release

  ==> Input File <==

--------------------------------------------------------------------------
#psi4
#
memory 32 gb

molecule  {
0 1
  S        1.2860020    -0.2606930    -0.0000810
  O       -0.7962180     1.3950430     0.0000390
  C       -1.3958030    -0.9449850     0.0000720
  C       -0.5434344     0.2553399    -0.0000631
  H       -1.2289500    -1.5666810    -0.8837680
  H       -1.2314380    -1.5641210     0.8861870
  H       -2.4167280    -0.5625730    -0.0018340
  H        1.7287820     1.0048730     0.0003520
units angstrom
no_reorient  #important for SAPT in psi4, default
symmetry c1  #important for SAPT in psi4, default
}

set PROPERTIES_ORIGIN ["COM"]
properties('MP2/aug-cc-pvtz', properties = ['dipole'])
--------------------------------------------------------------------------

    Molecular point group: c1
  Charge       = 0
  Multiplicity = 1
  Basis Set: AUG-CC-PVTZ
    Blend: AUG-CC-PVTZ
  Basis Set: (AUG-CC-PVTZ AUX)
    Blend: AUG-CC-PVTZ-JKFIT

    Orbital Energies [Eh]
    ---------------------

    Doubly Occupied:

       1A    -91.964786     2A    -20.582579     3A    -11.382611
       4A    -11.259762     5A     -8.966406     6A     -6.647572
       7A     -6.646519     8A     -6.645726     9A     -1.449243
      10A     -1.062120    11A     -0.971025    12A     -0.762192
      13A     -0.666822    14A     -0.666097    15A     -0.637049
      16A     -0.569250    17A     -0.546836    18A     -0.524921
      19A     -0.404528    20A     -0.382602

  @DF-RHF Final Energy:  -550.53226417695305

   => Energetics <=

    Nuclear Repulsion Energy =            152.7953372842242743
    One-Electron Energy =               -1061.1779097897131123
    Two-Electron Energy =                 357.8503083285357320
    Total Energy =                       -550.5322641769530492
  Basis Set: (AUG-CC-PVTZ AUX)
    Blend: AUG-CC-PVTZ-RI
    Molecular point group: c1

    Geometry (in Angstrom), charge = 0, multiplicity = 1:

       Center              X                  Y                   Z               Mass
    ------------   -----------------  -----------------  -----------------  -----------------
         S            1.260516031372    -0.300080963476    -0.000068962833    31.972071174400
         O           -0.821703968628     1.355655036524     0.000051037167    15.994914619570
         C           -1.421288968628    -0.984372963476     0.000084037167    12.000000000000
         C           -0.568920368628     0.215951936524    -0.000051062833    12.000000000000
         H           -1.254435968628    -1.606068963476    -0.883755962833     1.007825032230
         H           -1.256923968628    -1.603508963476     0.886199037167     1.007825032230
         H           -2.442213968628    -0.601960963476    -0.001821962833     1.007825032230
         H            1.703296031372     0.965485036524     0.000364037167     1.007825032230

  Basis Set: AUG-CC-PVTZ
    Blend: AUG-CC-PVTZ
  Basis Set: (AUG-CC-PVTZ AUX)
    Blend: AUG-CC-PVTZ-JKFIT
	 Reference Energy          =    -550.5322641769530492 [Eh]
	 Singles Energy            =      -0.0000000000000000 [Eh]
	 Same-Spin Energy          =      -0.2030869524590325 [Eh]
	 Opposite-Spin Energy      =      -0.6421277064122982 [Eh]
	 Correlation Energy        =      -0.8452146588713307 [Eh]
	 Total Energy              =    -551.3774788358243768 [Eh]

	 ================> DF-SCS-MP2 Energies <==================
	-----------------------------------------------------------
	 SCS Same-Spin Scale       =       0.3333333333333333 [-]
	 SCS Opposite-Spin Scale   =       1.2000000000000000 [-]
	 SCS Same-Spin Energy      =      -0.0676956508196775 [Eh]
	 SCS Opposite-Spin Energy  =      -0.7705532476947579 [Eh]
	 SCS Correlation Energy    =      -0.8382488985144354 [Eh]
	 SCS Total Energy          =    -551.3705130754674428 [Eh]
	-----------------------------------------------------------

  Dipole Moment: [D]
     X:    -0.9985      Y:    -1.5587      Z:     0.0005     Total:     1.8511

*** Psi4 exiting successfully. Buy a developer a beer!
