                               Psi4 1.3.2 release

  ==> Input File <==

--------------------------------------------------------------------------
#psi4
#
memory 32 gb

molecule  {
0 1
  S        1.2860020    -0.2606930    -0.0000810
  O       -0.7962180     1.3950430     0.0000390
  C       -1.3958030    -0.9449850     0.0000720
  C       -0.3509456     0.2010441    -0.0000649
  H       -1.2289500    -1.5666810    -0.8837680
  H       -1.2314380    -1.5641210     0.8861870
  H       -2.4167280    -0.5625730    -0.0018340
  H        1.7287820     1.0048730     0.0003520
units angstrom
no_reorient  #important for SAPT in psi4, default
symmetry c1  #important for SAPT in psi4, default
}

set PROPERTIES_ORIGIN ["COM"]
properties('MP2/aug-cc-pvtz', properties = ['dipole'])
--------------------------------------------------------------------------

    Molecular point group: c1
  Charge       = 0
  Multiplicity = 1
  Basis Set: AUG-CC-PVTZ
    Blend: AUG-CC-PVTZ
  Basis Set: (AUG-CC-PVTZ AUX)
    Blend: AUG-CC-PVTZ-JKFIT

    Orbital Energies [Eh]
    ---------------------

    Doubly Occupied:

       1A    -91.996916     2A    -20.553864     3A    -11.376855
       4A    -11.252705     5A     -9.000696     6A     -6.682004
       7A     -6.680790     8A     -6.679950     9A     -1.359460
      10A     -1.076362    11A     -0.988810    12A     -0.756799
      13A     -0.649897    14A     -0.622021    15A     -0.611411
      16A     -0.561506    17A     -0.529408    18A     -0.512080
      19A     -0.423657    20A     -0.402765

  @DF-RHF Final Energy:  -550.52079982247517

   => Energetics <=

    Nuclear Repulsion Energy =            153.4072787010263141
    One-Electron Energy =               -1062.4202455644592646
    Two-Electron Energy =                 358.4921670409577246
    Total Energy =                       -550.5207998224751691
  Basis Set: (AUG-CC-PVTZ AUX)
    Blend: AUG-CC-PVTZ-RI
    Molecular point group: c1

    Geometry (in Angstrom), charge = 0, multiplicity = 1:

       Center              X                  Y                   Z               Mass
    ------------   -----------------  -----------------  -----------------  -----------------
         S            1.230122377463    -0.291507749066    -0.000068678616    31.972071174400
         O           -0.852097622537     1.364228250934     0.000051321384    15.994914619570
         C           -1.451682622537    -0.975799749066     0.000084321384    12.000000000000
         C           -0.406825222537     0.170229350934    -0.000052578616    12.000000000000
         H           -1.284829622537    -1.597495749066    -0.883755678616     1.007825032230
         H           -1.287317622537    -1.594935749066     0.886199321384     1.007825032230
         H           -2.472607622537    -0.593387749066    -0.001821678616     1.007825032230
         H            1.672902377463     0.974058250934     0.000364321384     1.007825032230

  Basis Set: AUG-CC-PVTZ
    Blend: AUG-CC-PVTZ
  Basis Set: (AUG-CC-PVTZ AUX)
    Blend: AUG-CC-PVTZ-JKFIT
	 Reference Energy          =    -550.5207998224751691 [Eh]
	 Singles Energy            =      -0.0000000000000000 [Eh]
	 Same-Spin Energy          =      -0.2057529308104544 [Eh]
	 Opposite-Spin Energy      =      -0.6474568368622506 [Eh]
	 Correlation Energy        =      -0.8532097676727051 [Eh]
	 Total Energy              =    -551.3740095901479208 [Eh]

	 ================> DF-SCS-MP2 Energies <==================
	-----------------------------------------------------------
	 SCS Same-Spin Scale       =       0.3333333333333333 [-]
	 SCS Opposite-Spin Scale   =       1.2000000000000000 [-]
	 SCS Same-Spin Energy      =      -0.0685843102701515 [Eh]
	 SCS Opposite-Spin Energy  =      -0.7769482042347008 [Eh]
	 SCS Correlation Energy    =      -0.8455325145048522 [Eh]
	 SCS Total Energy          =    -551.3663323369800082 [Eh]
	-----------------------------------------------------------

  Dipole Moment: [D]
     X:     0.8148      Y:    -2.0334      Z:     0.0004     Total:     2.1906

*** Psi4 exiting successfully. Buy a developer a beer!
