                               Psi4 1.3.2 release

  ==> Input File <==

--------------------------------------------------------------------------
#psi4
#
memory 32 gb

molecule  {
0 1
  S        1.2860020    -0.2606930    -0.0000810
  O       -0.7962180     1.3950430     0.0000390
  C       -1.3958030    -0.9449850     0.0000720
  C       -0.5146185     0.2721007     0.1358186
  H       -1.2289500    -1.5666810    -0.8837680
  H       -1.2314380    -1.5641210     0.8861870
  H       -2.4167280    -0.5625730    -0.0018340
  H        1.7287820     1.0048730     0.0003520
units angstrom
no_reorient  #important for SAPT in psi4, default
symmetry c1  #important for SAPT in psi4, default
}

set PROPERTIES_ORIGIN ["COM"]
properties('MP2/aug-cc-pvtz', properties = ['dipole'])
--------------------------------------------------------------------------

    Molecular point group: c1
  Charge       = 0
  Multiplicity = 1
  Basis Set: AUG-CC-PVTZ
    Blend: AUG-CC-PVTZ
  Basis Set: (AUG-CC-PVTZ AUX)
    Blend: AUG-CC-PVTZ-JKFIT

    Orbital Energies [Eh]
    ---------------------

    Doubly Occupied:

       1A    -91.968886     2A    -20.581824     3A    -11.381176
       4A    -11.257966     5A     -8.970572     6A     -6.651711
       7A     -6.650650     8A     -6.649826     9A     -1.449524
      10A     -1.052132    11A     -0.973188    12A     -0.760680
      13A     -0.663957    14A     -0.662070    15A     -0.630735
      16A     -0.568434    17A     -0.546578    18A     -0.524204
      19A     -0.406627    20A     -0.385003

  @DF-RHF Final Energy:  -550.52773733450579

   => Energetics <=

    Nuclear Repulsion Energy =            152.7246536794587541
    One-Electron Energy =               -1061.0332935928015559
    Two-Electron Energy =                 357.7809025788370150
    Total Energy =                       -550.5277373345059004
  Basis Set: (AUG-CC-PVTZ AUX)
    Blend: AUG-CC-PVTZ-RI
    Molecular point group: c1

    Geometry (in Angstrom), charge = 0, multiplicity = 1:

       Center              X                  Y                   Z               Mass
    ------------   -----------------  -----------------  -----------------  -----------------
         S            1.255966049806    -0.302727465269    -0.021524451996    31.972071174400
         O           -0.826253950194     1.353008534731    -0.021404451996    15.994914619570
         C           -1.425838950194    -0.987019465269    -0.021371451996    12.000000000000
         C           -0.544654450194     0.230066234731     0.114375148004    12.000000000000
         H           -1.258985950194    -1.608715465269    -0.905211451996     1.007825032230
         H           -1.261473950194    -1.606155465269     0.864743548004     1.007825032230
         H           -2.446763950194    -0.604607465269    -0.023277451996     1.007825032230
         H            1.698746049806     0.962838534731    -0.021091451996     1.007825032230

  Basis Set: AUG-CC-PVTZ
    Blend: AUG-CC-PVTZ
  Basis Set: (AUG-CC-PVTZ AUX)
    Blend: AUG-CC-PVTZ-JKFIT
	 Reference Energy          =    -550.5277373345057867 [Eh]
	 Singles Energy            =      -0.0000000000000000 [Eh]
	 Same-Spin Energy          =      -0.2030311643384843 [Eh]
	 Opposite-Spin Energy      =      -0.6425809947644433 [Eh]
	 Correlation Energy        =      -0.8456121591029276 [Eh]
	 Total Energy              =    -551.3733494936087709 [Eh]

	 ================> DF-SCS-MP2 Energies <==================
	-----------------------------------------------------------
	 SCS Same-Spin Scale       =       0.3333333333333333 [-]
	 SCS Opposite-Spin Scale   =       1.2000000000000000 [-]
	 SCS Same-Spin Energy      =      -0.0676770547794948 [Eh]
	 SCS Opposite-Spin Energy  =      -0.7710971937173320 [Eh]
	 SCS Correlation Energy    =      -0.8387742484968268 [Eh]
	 SCS Total Energy          =    -551.3665115830026480 [Eh]
	-----------------------------------------------------------

  Dipole Moment: [D]
     X:    -0.7560      Y:    -1.4884      Z:     0.0468     Total:     1.6700

*** Psi4 exiting successfully. Buy a developer a beer!
