                               Psi4 1.3.2 release

  ==> Input File <==

--------------------------------------------------------------------------
#psi4
#
memory 32 gb

molecule  {
0 1
  S        1.3020080    -0.1999077    -0.0000751
  O       -0.7962180     1.3950430     0.0000390
  C       -1.3958030    -0.9449850     0.0000720
  C       -0.4471900     0.2281920    -0.0000640
  H       -1.2289500    -1.5666810    -0.8837680
  H       -1.2314380    -1.5641210     0.8861870
  H       -2.4167280    -0.5625730    -0.0018340
  H        1.7287820     1.0048730     0.0003520
units angstrom
no_reorient  #important for SAPT in psi4, default
symmetry c1  #important for SAPT in psi4, default
}

set PROPERTIES_ORIGIN ["COM"]
properties('MP2/aug-cc-pvtz', properties = ['dipole'])
--------------------------------------------------------------------------

    Molecular point group: c1
  Charge       = 0
  Multiplicity = 1
  Basis Set: AUG-CC-PVTZ
    Blend: AUG-CC-PVTZ
  Basis Set: (AUG-CC-PVTZ AUX)
    Blend: AUG-CC-PVTZ-JKFIT

    Orbital Energies [Eh]
    ---------------------

    Doubly Occupied:

       1A    -91.977072     2A    -20.566238     3A    -11.378716
       4A    -11.256113     5A     -8.981084     6A     -6.662449
       7A     -6.661282     8A     -6.660353     9A     -1.403634
      10A     -1.060300    11A     -0.992985    12A     -0.761315
      13A     -0.662390    14A     -0.642080    15A     -0.622357
      16A     -0.562728    17A     -0.536530    18A     -0.526907
      19A     -0.418815    20A     -0.394634

  @DF-RHF Final Energy:  -550.53465017925828

   => Energetics <=

    Nuclear Repulsion Energy =            153.2933063320319889
    One-Electron Energy =               -1062.1999482660635294
    Two-Electron Energy =                 358.3719917547732621
    Total Energy =                       -550.5346501792582785
  Basis Set: (AUG-CC-PVTZ AUX)
    Blend: AUG-CC-PVTZ-RI
    Molecular point group: c1

    Geometry (in Angstrom), charge = 0, multiplicity = 1:

       Center              X                  Y                   Z               Mass
    ------------   -----------------  -----------------  -----------------  -----------------
         S            1.254591566086    -0.260581105882    -0.000065402823    31.972071174400
         O           -0.843634433914     1.334369594118     0.000048697177    15.994914619570
         C           -1.443219433914    -1.005658405882     0.000081697177    12.000000000000
         C           -0.494606433914     0.167518594118    -0.000054302823    12.000000000000
         H           -1.276366433914    -1.627354405882    -0.883758302823     1.007825032230
         H           -1.278854433914    -1.624794405882     0.886196697177     1.007825032230
         H           -2.464144433914    -0.623246405882    -0.001824302823     1.007825032230
         H            1.681365566086     0.944199594118     0.000361697177     1.007825032230

  Basis Set: AUG-CC-PVTZ
    Blend: AUG-CC-PVTZ
  Basis Set: (AUG-CC-PVTZ AUX)
    Blend: AUG-CC-PVTZ-JKFIT
	 Reference Energy          =    -550.5346501792582785 [Eh]
	 Singles Energy            =      -0.0000000000000000 [Eh]
	 Same-Spin Energy          =      -0.2036341206274804 [Eh]
	 Opposite-Spin Energy      =      -0.6433350155672850 [Eh]
	 Correlation Energy        =      -0.8469691361947653 [Eh]
	 Total Energy              =    -551.3816193154530083 [Eh]

	 ================> DF-SCS-MP2 Energies <==================
	-----------------------------------------------------------
	 SCS Same-Spin Scale       =       0.3333333333333333 [-]
	 SCS Opposite-Spin Scale   =       1.2000000000000000 [-]
	 SCS Same-Spin Energy      =      -0.0678780402091601 [Eh]
	 SCS Opposite-Spin Energy  =      -0.7720020186807420 [Eh]
	 SCS Correlation Energy    =      -0.8398800588899021 [Eh]
	 SCS Total Energy          =    -551.3745302381481679 [Eh]
	-----------------------------------------------------------

  Dipole Moment: [D]
     X:    -0.0777      Y:    -1.8078      Z:     0.0005     Total:     1.8095

*** Psi4 exiting successfully. Buy a developer a beer!
