                               Psi4 1.4a3.dev225

  ==> Input File <==

--------------------------------------------------------------------------
#psi4
#
memory 32 gb

molecule  {
0 1
  S        1.2860020    -0.2606930    -0.0000810
  O       -0.7962180     1.3950430     0.0000390
  C       -1.3958030    -0.9449850     0.0000720
  C       -0.4471900     0.2281920    -0.0000640
  H       -1.2289500    -1.5666810    -0.8837680
  H       -1.2314380    -1.5641210     0.8861870
  H       -2.4167280    -0.5625730    -0.0018340
  H        1.7221772     0.9859951     0.0003455
units angstrom
no_reorient  #important for SAPT in psi4, default
symmetry c1  #important for SAPT in psi4, default
}

set PROPERTIES_ORIGIN ["COM"]
properties('MP2/aug-cc-pvtz', properties = ['dipole'])
--------------------------------------------------------------------------

    Molecular point group: c1
  Charge       = 0
  Multiplicity = 1
  Basis Set: AUG-CC-PVTZ
    Blend: AUG-CC-PVTZ
  Basis Set: (AUG-CC-PVTZ AUX)
    Blend: AUG-CC-PVTZ-JKFIT

    Orbital Energies [Eh]
    ---------------------

    Doubly Occupied:

       1A    -91.981391     2A    -20.567335     3A    -11.378507
       4A    -11.254453     5A     -8.984165     6A     -6.665401
       7A     -6.664310     8A     -6.663442     9A     -1.403535
      10A     -1.060898    11A     -0.988012    12A     -0.757777
      13A     -0.659453    14A     -0.641620    15A     -0.621977
      16A     -0.560327    17A     -0.534418    18A     -0.526566
      19A     -0.419893    20A     -0.395773

  @DF-RHF Final Energy:  -550.53591661975838

   => Energetics <=

    Nuclear Repulsion Energy =            153.1498010006449704
    One-Electron Energy =               -1061.9129291001311231
    Two-Electron Energy =                 358.2272114797277709
    Total Energy =                       -550.5359166197583818
  Basis Set: (AUG-CC-PVTZ AUX)
    Blend: AUG-CC-PVTZ-RI
    Molecular point group: c1

    Geometry (in Angstrom), charge = 0, multiplicity = 1:

       Center              X                  Y                   Z               Mass
    ------------   -----------------  -----------------  -----------------  -----------------
         S            1.245406791692    -0.295544013517    -0.000068734527    31.972071174400
         O           -0.836813208308     1.360191986483     0.000051265473    15.994914619570
         C           -1.436398208308    -0.979836013517     0.000084265473    12.000000000000
         C           -0.487785208308     0.193340986483    -0.000051734527    12.000000000000
         H           -1.269545208308    -1.601532013517    -0.883755734527     1.007825032230
         H           -1.272033208308    -1.598972013517     0.886199265473     1.007825032230
         H           -2.457323208308    -0.597424013517    -0.001821734527     1.007825032230
         H            1.681581991692     0.951144086483     0.000357765473     1.007825032230

  Basis Set: AUG-CC-PVTZ
    Blend: AUG-CC-PVTZ
  Basis Set: (AUG-CC-PVTZ AUX)
    Blend: AUG-CC-PVTZ-JKFIT
	 Reference Energy          =    -550.5359166197583818 [Eh]
	 Singles Energy            =      -0.0000000000000000 [Eh]
	 Same-Spin Energy          =      -0.2039656694566194 [Eh]
	 Opposite-Spin Energy      =      -0.6439759338251769 [Eh]
	 Correlation Energy        =      -0.8479416032817964 [Eh]
	 Total Energy              =    -551.3838582230401926 [Eh]

	 ================> DF-SCS-MP2 Energies <==================
	-----------------------------------------------------------
	 SCS Same-Spin Scale       =       0.3333333333333333 [-]
	 SCS Opposite-Spin Scale   =       1.2000000000000000 [-]
	 SCS Same-Spin Energy      =      -0.0679885564855398 [Eh]
	 SCS Opposite-Spin Energy  =      -0.7727711205902122 [Eh]
	 SCS Correlation Energy    =      -0.8407596770757521 [Eh]
	 SCS Total Energy          =    -551.3766762968341482 [Eh]
	-----------------------------------------------------------

  Dipole Moment: [D]
     X:    -0.0226      Y:    -1.8141      Z:     0.0005     Total:     1.8142

*** Psi4 exiting successfully. Buy a developer a beer!
