                               Psi4 1.3.2 release

  ==> Input File <==

--------------------------------------------------------------------------
#psi4
#
memory 32 gb

molecule  {
0 1
  S        1.3158829    -0.1386007    -0.0000691
  O       -0.7962180     1.3950430     0.0000390
  C       -1.3958030    -0.9449850     0.0000720
  C       -0.4471900     0.2281920    -0.0000640
  H       -1.2289500    -1.5666810    -0.8837680
  H       -1.2314380    -1.5641210     0.8861870
  H       -2.4167280    -0.5625730    -0.0018340
  H        1.7287820     1.0048730     0.0003520
units angstrom
no_reorient  #important for SAPT in psi4, default
symmetry c1  #important for SAPT in psi4, default
}

set PROPERTIES_ORIGIN ["COM"]
properties('MP2/aug-cc-pvtz', properties = ['dipole'])
--------------------------------------------------------------------------

    Molecular point group: c1
  Charge       = 0
  Multiplicity = 1
  Basis Set: AUG-CC-PVTZ
    Blend: AUG-CC-PVTZ
  Basis Set: (AUG-CC-PVTZ AUX)
    Blend: AUG-CC-PVTZ-JKFIT

    Orbital Energies [Eh]
    ---------------------

    Doubly Occupied:

       1A    -91.970850     2A    -20.565376     3A    -11.379195
       4A    -11.257864     5A     -8.977049     6A     -6.658701
       7A     -6.657189     8A     -6.656202     9A     -1.404044
      10A     -1.061268    11A     -1.000349    12A     -0.766870
      13A     -0.666939    14A     -0.642617    15A     -0.622913
      16A     -0.566818    17A     -0.537983    18A     -0.527450
      19A     -0.417520    20A     -0.393691

  @DF-RHF Final Energy:  -550.52696242456193

   => Energetics <=

    Nuclear Repulsion Energy =            153.6039000372674366
    One-Electron Energy =               -1062.7999442406414801
    Two-Electron Energy =                 358.6690817788121990
    Total Energy =                       -550.5269624245618161
  Basis Set: (AUG-CC-PVTZ AUX)
    Blend: AUG-CC-PVTZ-RI
    Molecular point group: c1

    Geometry (in Angstrom), charge = 0, multiplicity = 1:

       Center              X                  Y                   Z               Mass
    ------------   -----------------  -----------------  -----------------  -----------------
         S            1.262629370091    -0.225065631884    -0.000061926991    31.972071174400
         O           -0.849471529909     1.308578068116     0.000046173009    15.994914619570
         C           -1.449056529909    -1.031449931884     0.000079173009    12.000000000000
         C           -0.500443529909     0.141727068116    -0.000056826991    12.000000000000
         H           -1.282203529909    -1.653145931884    -0.883760826991     1.007825032230
         H           -1.284691529909    -1.650585931884     0.886194173009     1.007825032230
         H           -2.469981529909    -0.649037931884    -0.001826826991     1.007825032230
         H            1.675528470091     0.918408068116     0.000359173009     1.007825032230

  Basis Set: AUG-CC-PVTZ
    Blend: AUG-CC-PVTZ
  Basis Set: (AUG-CC-PVTZ AUX)
    Blend: AUG-CC-PVTZ-JKFIT
	 Reference Energy          =    -550.5269624245619298 [Eh]
	 Singles Energy            =      -0.0000000000000000 [Eh]
	 Same-Spin Energy          =      -0.2033633486363874 [Eh]
	 Opposite-Spin Energy      =      -0.6428194998871988 [Eh]
	 Correlation Energy        =      -0.8461828485235862 [Eh]
	 Total Energy              =    -551.3731452730854699 [Eh]

	 ================> DF-SCS-MP2 Energies <==================
	-----------------------------------------------------------
	 SCS Same-Spin Scale       =       0.3333333333333333 [-]
	 SCS Opposite-Spin Scale   =       1.2000000000000000 [-]
	 SCS Same-Spin Energy      =      -0.0677877828787958 [Eh]
	 SCS Opposite-Spin Energy  =      -0.7713833998646386 [Eh]
	 SCS Correlation Energy    =      -0.8391711827434344 [Eh]
	 SCS Total Energy          =    -551.3661336073054144 [Eh]
	-----------------------------------------------------------

  Dipole Moment: [D]
     X:    -0.1477      Y:    -1.8068      Z:     0.0005     Total:     1.8129

*** Psi4 exiting successfully. Buy a developer a beer!
