                               Psi4 1.3.2 release

  ==> Input File <==

--------------------------------------------------------------------------
#psi4
#
memory 32 gb

molecule  {
0 1
  S        1.2678843    -0.3208827    -0.0000869
  O       -0.7962180     1.3950430     0.0000390
  C       -1.3958030    -0.9449850     0.0000720
  C       -0.4471900     0.2281920    -0.0000640
  H       -1.2289500    -1.5666810    -0.8837680
  H       -1.2314380    -1.5641210     0.8861870
  H       -2.4167280    -0.5625730    -0.0018340
  H        1.7287820     1.0048730     0.0003520
units angstrom
no_reorient  #important for SAPT in psi4, default
symmetry c1  #important for SAPT in psi4, default
}

set PROPERTIES_ORIGIN ["COM"]
properties('MP2/aug-cc-pvtz', properties = ['dipole'])
--------------------------------------------------------------------------

    Molecular point group: c1
  Charge       = 0
  Multiplicity = 1
  Basis Set: AUG-CC-PVTZ
    Blend: AUG-CC-PVTZ
  Basis Set: (AUG-CC-PVTZ AUX)
    Blend: AUG-CC-PVTZ-JKFIT

    Orbital Energies [Eh]
    ---------------------

    Doubly Occupied:

       1A    -91.987956     2A    -20.568325     3A    -11.378417
       4A    -11.252990     5A     -8.988785     6A     -6.669887
       7A     -6.668788     8A     -6.668051     9A     -1.403421
      10A     -1.060707    11A     -0.980224    12A     -0.753228
      13A     -0.654759    14A     -0.641044    15A     -0.621743
      16A     -0.559253    17A     -0.526229    18A     -0.525496
      19A     -0.420449    20A     -0.396575

  @DF-RHF Final Energy:  -550.53216292185164

   => Energetics <=

    Nuclear Repulsion Energy =            152.8384902911846552
    One-Electron Energy =               -1061.2886522991752827
    Two-Electron Energy =                 357.9179990861390479
    Total Energy =                       -550.5321629218516364
  Basis Set: (AUG-CC-PVTZ AUX)
    Blend: AUG-CC-PVTZ-RI
    Molecular point group: c1

    Geometry (in Angstrom), charge = 0, multiplicity = 1:

       Center              X                  Y                   Z               Mass
    ------------   -----------------  -----------------  -----------------  -----------------
         S            1.234823523610    -0.330662572385    -0.000072238626    31.972071174400
         O           -0.829278776390     1.385263127615     0.000053661374    15.994914619570
         C           -1.428863776390    -0.954764872385     0.000086661374    12.000000000000
         C           -0.480250776390     0.218412127615    -0.000049338626    12.000000000000
         H           -1.262010776390    -1.576460872385    -0.883753338626     1.007825032230
         H           -1.264498776390    -1.573900872385     0.886201661374     1.007825032230
         H           -2.449788776390    -0.572352872385    -0.001819338626     1.007825032230
         H            1.695721223610     0.995093127615     0.000366661374     1.007825032230

  Basis Set: AUG-CC-PVTZ
    Blend: AUG-CC-PVTZ
  Basis Set: (AUG-CC-PVTZ AUX)
    Blend: AUG-CC-PVTZ-JKFIT
	 Reference Energy          =    -550.5321629218516364 [Eh]
	 Singles Energy            =      -0.0000000000000000 [Eh]
	 Same-Spin Energy          =      -0.2043815659176187 [Eh]
	 Opposite-Spin Energy      =      -0.6450246915692468 [Eh]
	 Correlation Energy        =      -0.8494062574868655 [Eh]
	 Total Energy              =    -551.3815691793384985 [Eh]

	 ================> DF-SCS-MP2 Energies <==================
	-----------------------------------------------------------
	 SCS Same-Spin Scale       =       0.3333333333333333 [-]
	 SCS Opposite-Spin Scale   =       1.2000000000000000 [-]
	 SCS Same-Spin Energy      =      -0.0681271886392062 [Eh]
	 SCS Opposite-Spin Energy  =      -0.7740296298830961 [Eh]
	 SCS Correlation Energy    =      -0.8421568185223023 [Eh]
	 SCS Total Energy          =    -551.3743197403739487 [Eh]
	-----------------------------------------------------------

  Dipole Moment: [D]
     X:     0.0261      Y:    -1.8077      Z:     0.0005     Total:     1.8078

*** Psi4 exiting successfully. Buy a developer a beer!
