                               Psi4 1.3.2 release

  ==> Input File <==

--------------------------------------------------------------------------
#psi4
#
memory 32 gb

molecule  {
0 1
  S        1.2860020    -0.2606930    -0.0000810
  O       -0.7962180     1.3950430     0.0000390
  C       -1.3958030    -0.9449850     0.0000720
  C       -0.4770709     0.1060997    -0.0001048
  H       -1.2289500    -1.5666810    -0.8837680
  H       -1.2314380    -1.5641210     0.8861870
  H       -2.4167280    -0.5625730    -0.0018340
  H        1.7287820     1.0048730     0.0003520
units angstrom
no_reorient  #important for SAPT in psi4, default
symmetry c1  #important for SAPT in psi4, default
}

set PROPERTIES_ORIGIN ["COM"]
properties('MP2/aug-cc-pvtz', properties = ['dipole'])
--------------------------------------------------------------------------

    Molecular point group: c1
  Charge       = 0
  Multiplicity = 1
  Basis Set: AUG-CC-PVTZ
    Blend: AUG-CC-PVTZ
  Basis Set: (AUG-CC-PVTZ AUX)
    Blend: AUG-CC-PVTZ-JKFIT

    Orbital Energies [Eh]
    ---------------------

    Doubly Occupied:

       1A    -91.989234     2A    -20.555606     3A    -11.386963
       4A    -11.257278     5A     -8.990862     6A     -6.672087
       7A     -6.671141     8A     -6.670335     9A     -1.333663
      10A     -1.089174    11A     -0.998168    12A     -0.763439
      13A     -0.659669    14A     -0.634361    15A     -0.625009
      16A     -0.557498    17A     -0.525722    18A     -0.490219
      19A     -0.423563    20A     -0.392259

  @DF-RHF Final Energy:  -550.50264594198313

   => Energetics <=

    Nuclear Repulsion Energy =            152.5051019131328189
    One-Electron Energy =               -1060.6429916066581427
    Two-Electron Energy =                 357.6352437515421343
    Total Energy =                       -550.5026459419831326
  Basis Set: (AUG-CC-PVTZ AUX)
    Blend: AUG-CC-PVTZ-RI
    Molecular point group: c1

    Geometry (in Angstrom), charge = 0, multiplicity = 1:

       Center              X                  Y                   Z               Mass
    ------------   -----------------  -----------------  -----------------  -----------------
         S            1.250037347671    -0.276516189899    -0.000062378474    31.972071174400
         O           -0.832182652329     1.379219810101     0.000057621526    15.994914619570
         C           -1.431767652329    -0.960808189899     0.000090621526    12.000000000000
         C           -0.513035552329     0.090276510101    -0.000086178474    12.000000000000
         H           -1.264914652329    -1.582504189899    -0.883749378474     1.007825032230
         H           -1.267402652329    -1.579944189899     0.886205621526     1.007825032230
         H           -2.452692652329    -0.578396189899    -0.001815378474     1.007825032230
         H            1.692817347671     0.989049810101     0.000370621526     1.007825032230

  Basis Set: AUG-CC-PVTZ
    Blend: AUG-CC-PVTZ
  Basis Set: (AUG-CC-PVTZ AUX)
    Blend: AUG-CC-PVTZ-JKFIT
	 Reference Energy          =    -550.5026459419831326 [Eh]
	 Singles Energy            =      -0.0000000000000000 [Eh]
	 Same-Spin Energy          =      -0.2075193450928820 [Eh]
	 Opposite-Spin Energy      =      -0.6509545692954859 [Eh]
	 Correlation Energy        =      -0.8584739143883680 [Eh]
	 Total Energy              =    -551.3611198563714879 [Eh]

	 ================> DF-SCS-MP2 Energies <==================
	-----------------------------------------------------------
	 SCS Same-Spin Scale       =       0.3333333333333333 [-]
	 SCS Opposite-Spin Scale   =       1.2000000000000000 [-]
	 SCS Same-Spin Energy      =      -0.0691731150309607 [Eh]
	 SCS Opposite-Spin Energy  =      -0.7811454831545831 [Eh]
	 SCS Correlation Energy    =      -0.8503185981855438 [Eh]
	 SCS Total Energy          =    -551.3529645401687276 [Eh]
	-----------------------------------------------------------

  Dipole Moment: [D]
     X:    -0.0160      Y:    -2.2936      Z:     0.0006     Total:     2.2936

*** Psi4 exiting successfully. Buy a developer a beer!
