                               Psi4 1.3.2 release

  ==> Input File <==

--------------------------------------------------------------------------
#psi4
#
memory 32 gb

molecule  {
0 1
  S        1.2860020    -0.2606930    -0.0000810
  O       -0.7962180     1.3950430     0.0000390
  C       -1.3958030    -0.9449850     0.0000720
  C       -0.3901547     0.1714297    -0.1359451
  H       -1.2289500    -1.5666810    -0.8837680
  H       -1.2314380    -1.5641210     0.8861870
  H       -2.4167280    -0.5625730    -0.0018340
  H        1.7287820     1.0048730     0.0003520
units angstrom
no_reorient  #important for SAPT in psi4, default
symmetry c1  #important for SAPT in psi4, default
}

set PROPERTIES_ORIGIN ["COM"]
properties('MP2/aug-cc-pvtz', properties = ['dipole'])
--------------------------------------------------------------------------

    Molecular point group: c1
  Charge       = 0
  Multiplicity = 1
  Basis Set: AUG-CC-PVTZ
    Blend: AUG-CC-PVTZ
  Basis Set: (AUG-CC-PVTZ AUX)
    Blend: AUG-CC-PVTZ-JKFIT

    Orbital Energies [Eh]
    ---------------------

    Doubly Occupied:

       1A    -91.994914     2A    -20.556091     3A    -11.381733
       4A    -11.254997     5A     -8.997811     6A     -6.679071
       7A     -6.677963     8A     -6.677133     9A     -1.348973
      10A     -1.072438    11A     -0.994549    12A     -0.758966
      13A     -0.649955    14A     -0.624281    15A     -0.612934
      16A     -0.560157    17A     -0.528976    18A     -0.503766
      19A     -0.425832    20A     -0.398213

  @DF-RHF Final Energy:  -550.51278493059260

   => Energetics <=

    Nuclear Repulsion Energy =            152.8497925199939687
    One-Electron Energy =               -1061.3276460020522336
    Two-Electron Energy =                 357.9650685514656629
    Total Energy =                       -550.5127849305924883
  Basis Set: (AUG-CC-PVTZ AUX)
    Blend: AUG-CC-PVTZ-RI
    Molecular point group: c1

    Geometry (in Angstrom), charge = 0, multiplicity = 1:

       Center              X                  Y                   Z               Mass
    ------------   -----------------  -----------------  -----------------  -----------------
         S            1.236313427620    -0.286831685709     0.021386573699    31.972071174400
         O           -0.845906572380     1.368904314291     0.021506573699    15.994914619570
         C           -1.445491572380    -0.971123685709     0.021539573699    12.000000000000
         C           -0.439843272380     0.145291014291    -0.114477526301    12.000000000000
         H           -1.278638572380    -1.592819685709    -0.862300426301     1.007825032230
         H           -1.281126572380    -1.590259685709     0.907654573699     1.007825032230
         H           -2.466416572380    -0.588711685709     0.019633573699     1.007825032230
         H            1.679093427620     0.978734314291     0.021819573699     1.007825032230

  Basis Set: AUG-CC-PVTZ
    Blend: AUG-CC-PVTZ
  Basis Set: (AUG-CC-PVTZ AUX)
    Blend: AUG-CC-PVTZ-JKFIT
	 Reference Energy          =    -550.5127849305926020 [Eh]
	 Singles Energy            =      -0.0000000000000000 [Eh]
	 Same-Spin Energy          =      -0.2064267970967885 [Eh]
	 Opposite-Spin Energy      =      -0.6493369161074317 [Eh]
	 Correlation Energy        =      -0.8557637132042203 [Eh]
	 Total Energy              =    -551.3685486437967711 [Eh]

	 ================> DF-SCS-MP2 Energies <==================
	-----------------------------------------------------------
	 SCS Same-Spin Scale       =       0.3333333333333333 [-]
	 SCS Opposite-Spin Scale   =       1.2000000000000000 [-]
	 SCS Same-Spin Energy      =      -0.0688089323655962 [Eh]
	 SCS Opposite-Spin Energy  =      -0.7792042993289180 [Eh]
	 SCS Correlation Energy    =      -0.8480132316945141 [Eh]
	 SCS Total Energy          =    -551.3607981622870966 [Eh]
	-----------------------------------------------------------

  Dipole Moment: [D]
     X:     0.5518      Y:    -2.0812      Z:     0.0092     Total:     2.1531

*** Psi4 exiting successfully. Buy a developer a beer!
