                               Psi4 1.3.2 release

  ==> Input File <==

--------------------------------------------------------------------------
#psi4
#
memory 32 gb

molecule  {
0 1
  S        1.2860020    -0.2606930    -0.0000810
  O       -0.7962180     1.3950430     0.0000390
  C       -1.3958030    -0.9449850     0.0000720
  C       -0.4471900     0.2281920    -0.0000640
  H       -1.2289500    -1.5666810    -0.8837680
  H       -1.2314380    -1.5641210     0.8861870
  H       -2.4167280    -0.5625730    -0.0018340
  H        1.6627343     0.8160935     0.0002874
units angstrom
no_reorient  #important for SAPT in psi4, default
symmetry c1  #important for SAPT in psi4, default
}

set PROPERTIES_ORIGIN ["COM"]
properties('MP2/aug-cc-pvtz', properties = ['dipole'])
--------------------------------------------------------------------------

    Molecular point group: c1
  Charge       = 0
  Multiplicity = 1
  Basis Set: AUG-CC-PVTZ
    Blend: AUG-CC-PVTZ
  Basis Set: (AUG-CC-PVTZ AUX)
    Blend: AUG-CC-PVTZ-JKFIT

    Orbital Energies [Eh]
    ---------------------

    Doubly Occupied:

       1A    -91.966686     2A    -20.568466     3A    -11.379020
       4A    -11.254251     5A     -8.976199     6A     -6.658258
       7A     -6.655924     8A     -6.654837     9A     -1.404549
      10A     -1.072573    11A     -1.005793    12A     -0.768718
      13A     -0.670569    14A     -0.642183    15A     -0.622156
      16A     -0.563229    17A     -0.547771    18A     -0.527199
      19A     -0.420975    20A     -0.397745

  @DF-RHF Final Energy:  -550.50913742186742

   => Energetics <=

    Nuclear Repulsion Energy =            154.2931356898574506
    One-Electron Energy =               -1064.0903441770130939
    Two-Electron Energy =                 359.2880710652882499
    Total Energy =                       -550.5091374218674218
  Basis Set: (AUG-CC-PVTZ AUX)
    Blend: AUG-CC-PVTZ-RI
    Molecular point group: c1

    Geometry (in Angstrom), charge = 0, multiplicity = 1:

       Center              X                  Y                   Z               Mass
    ------------   -----------------  -----------------  -----------------  -----------------
         S            1.246195073190    -0.293290922103    -0.000067964054    31.972071174400
         O           -0.836024926810     1.362445077897     0.000052035946    15.994914619570
         C           -1.435609926810    -0.977582922103     0.000085035946    12.000000000000
         C           -0.486996926810     0.195594077897    -0.000050964054    12.000000000000
         H           -1.268756926810    -1.599278922103    -0.883754964054     1.007825032230
         H           -1.271244926810    -1.596718922103     0.886200035946     1.007825032230
         H           -2.456534926810    -0.595170922103    -0.001820964054     1.007825032230
         H            1.622927373190     0.783495577897     0.000300435946     1.007825032230

  Basis Set: AUG-CC-PVTZ
    Blend: AUG-CC-PVTZ
  Basis Set: (AUG-CC-PVTZ AUX)
    Blend: AUG-CC-PVTZ-JKFIT
	 Reference Energy          =    -550.5091374218674218 [Eh]
	 Singles Energy            =      -0.0000000000000000 [Eh]
	 Same-Spin Energy          =      -0.2040185245935509 [Eh]
	 Opposite-Spin Energy      =      -0.6437598619306703 [Eh]
	 Correlation Energy        =      -0.8477783865242211 [Eh]
	 Total Energy              =    -551.3569158083915909 [Eh]

	 ================> DF-SCS-MP2 Energies <==================
	-----------------------------------------------------------
	 SCS Same-Spin Scale       =       0.3333333333333333 [-]
	 SCS Opposite-Spin Scale   =       1.2000000000000000 [-]
	 SCS Same-Spin Energy      =      -0.0680061748645169 [Eh]
	 SCS Opposite-Spin Energy  =      -0.7725118343168043 [Eh]
	 SCS Correlation Energy    =      -0.8405180091813212 [Eh]
	 SCS Total Energy          =    -551.3496554310487454 [Eh]
	-----------------------------------------------------------

  Dipole Moment: [D]
     X:    -0.0545      Y:    -1.8627      Z:     0.0004     Total:     1.8635

*** Psi4 exiting successfully. Buy a developer a beer!
