                               Psi4 1.3.2 release

  ==> Input File <==

--------------------------------------------------------------------------
#psi4
#
memory 32 gb

molecule  {
0 1
  S        1.2860020    -0.2606930    -0.0000810
  O       -0.8367279     1.3821513     0.0000460
  C       -1.3958030    -0.9449850     0.0000720
  C       -0.4471900     0.2281920    -0.0000640
  H       -1.2289500    -1.5666810    -0.8837680
  H       -1.2314380    -1.5641210     0.8861870
  H       -2.4167280    -0.5625730    -0.0018340
  H        1.7287820     1.0048730     0.0003520
units angstrom
no_reorient  #important for SAPT in psi4, default
symmetry c1  #important for SAPT in psi4, default
}

set PROPERTIES_ORIGIN ["COM"]
properties('MP2/aug-cc-pvtz', properties = ['dipole'])
--------------------------------------------------------------------------

    Molecular point group: c1
  Charge       = 0
  Multiplicity = 1
  Basis Set: AUG-CC-PVTZ
    Blend: AUG-CC-PVTZ
  Basis Set: (AUG-CC-PVTZ AUX)
    Blend: AUG-CC-PVTZ-JKFIT

    Orbital Energies [Eh]
    ---------------------

    Doubly Occupied:

       1A    -91.985249     2A    -20.566847     3A    -11.377786
       4A    -11.252239     5A     -8.987371     6A     -6.668571
       7A     -6.667479     8A     -6.666647     9A     -1.403006
      10A     -1.059912    11A     -0.986333    12A     -0.756346
      13A     -0.658672    14A     -0.640496    15A     -0.620910
      16A     -0.558688    17A     -0.532689    18A     -0.525251
      19A     -0.420709    20A     -0.397489

  @DF-RHF Final Energy:  -550.53551310850924

   => Energetics <=

    Nuclear Repulsion Energy =            152.9250019009097343
    One-Electron Energy =               -1061.4556497561304695
    Two-Electron Energy =                 357.9951347467115284
    Total Energy =                       -550.5355131085092353
  Basis Set: (AUG-CC-PVTZ AUX)
    Blend: AUG-CC-PVTZ-RI
    Molecular point group: c1

    Geometry (in Angstrom), charge = 0, multiplicity = 1:

       Center              X                  Y                   Z               Mass
    ------------   -----------------  -----------------  -----------------  -----------------
         S            1.253845086072    -0.293081115593    -0.000070293974    31.972071174400
         O           -0.868884813928     1.349763184407     0.000056706026    15.994914619570
         C           -1.427959913928    -0.977373115593     0.000082706026    12.000000000000
         C           -0.479346913928     0.195803884407    -0.000053293974    12.000000000000
         H           -1.261106913928    -1.599069115593    -0.883757293974     1.007825032230
         H           -1.263594913928    -1.596509115593     0.886197706026     1.007825032230
         H           -2.448884913928    -0.594961115593    -0.001823293974     1.007825032230
         H            1.696625086072     0.972484884407     0.000362706026     1.007825032230

  Basis Set: AUG-CC-PVTZ
    Blend: AUG-CC-PVTZ
  Basis Set: (AUG-CC-PVTZ AUX)
    Blend: AUG-CC-PVTZ-JKFIT
	 Reference Energy          =    -550.5355131085092353 [Eh]
	 Singles Energy            =      -0.0000000000000000 [Eh]
	 Same-Spin Energy          =      -0.2039987949260914 [Eh]
	 Opposite-Spin Energy      =      -0.6441803082498876 [Eh]
	 Correlation Energy        =      -0.8481791031759789 [Eh]
	 Total Energy              =    -551.3836922116852293 [Eh]

	 ================> DF-SCS-MP2 Energies <==================
	-----------------------------------------------------------
	 SCS Same-Spin Scale       =       0.3333333333333333 [-]
	 SCS Opposite-Spin Scale   =       1.2000000000000000 [-]
	 SCS Same-Spin Energy      =      -0.0679995983086971 [Eh]
	 SCS Opposite-Spin Energy  =      -0.7730163698998651 [Eh]
	 SCS Correlation Energy    =      -0.8410159682085623 [Eh]
	 SCS Total Energy          =    -551.3765290767178158 [Eh]
	-----------------------------------------------------------

  Dipole Moment: [D]
     X:     0.1067      Y:    -1.7852      Z:     0.0005     Total:     1.7883

*** Psi4 exiting successfully. Buy a developer a beer!
