                               Psi4 1.3.2 release

  ==> Input File <==

--------------------------------------------------------------------------
#psi4
#
memory 32 gb

molecule  {
0 1
  S        1.2860020    -0.2606930    -0.0000810
  O       -0.7962180     1.3950430     0.0000390
  C       -1.3958030    -0.9449850     0.0000720
  C       -0.4910309     0.2589253     0.0906163
  H       -1.2289500    -1.5666810    -0.8837680
  H       -1.2314380    -1.5641210     0.8861870
  H       -2.4167280    -0.5625730    -0.0018340
  H        1.7287820     1.0048730     0.0003520
units angstrom
no_reorient  #important for SAPT in psi4, default
symmetry c1  #important for SAPT in psi4, default
}

set PROPERTIES_ORIGIN ["COM"]
properties('MP2/aug-cc-pvtz', properties = ['dipole'])
--------------------------------------------------------------------------

    Molecular point group: c1
  Charge       = 0
  Multiplicity = 1
  Basis Set: AUG-CC-PVTZ
    Blend: AUG-CC-PVTZ
  Basis Set: (AUG-CC-PVTZ AUX)
    Blend: AUG-CC-PVTZ-JKFIT

    Orbital Energies [Eh]
    ---------------------

    Doubly Occupied:

       1A    -91.973641     2A    -20.576569     3A    -11.379493
       4A    -11.256325     5A     -8.975496     6A     -6.656657
       7A     -6.655595     8A     -6.654768     9A     -1.435700
      10A     -1.054065    11A     -0.978150    12A     -0.758673
      13A     -0.662378    14A     -0.655604    15A     -0.627603
      16A     -0.565170    17A     -0.540961    18A     -0.527380
      19A     -0.411619    20A     -0.389193

  @DF-RHF Final Energy:  -550.53354088038157

   => Energetics <=

    Nuclear Repulsion Energy =            152.8920893719769083
    One-Electron Energy =               -1061.3811773267707395
    Two-Electron Energy =                 357.9555470744122090
    Total Energy =                       -550.5335408803816790
  Basis Set: (AUG-CC-PVTZ AUX)
    Blend: AUG-CC-PVTZ-RI
    Molecular point group: c1

    Geometry (in Angstrom), charge = 0, multiplicity = 1:

       Center              X                  Y                   Z               Mass
    ------------   -----------------  -----------------  -----------------  -----------------
         S            1.252241607911    -0.300647092034    -0.014387085759    31.972071174400
         O           -0.829978392089     1.355088907966    -0.014267085759    15.994914619570
         C           -1.429563392089    -0.984939092034    -0.014234085759    12.000000000000
         C           -0.524791292089     0.218971207966     0.076310214241    12.000000000000
         H           -1.262710392089    -1.606635092034    -0.898074085759     1.007825032230
         H           -1.265198392089    -1.604075092034     0.871880914241     1.007825032230
         H           -2.450488392089    -0.602527092034    -0.016140085759     1.007825032230
         H            1.695021607911     0.964918907966    -0.013954085759     1.007825032230

  Basis Set: AUG-CC-PVTZ
    Blend: AUG-CC-PVTZ
  Basis Set: (AUG-CC-PVTZ AUX)
    Blend: AUG-CC-PVTZ-JKFIT
	 Reference Energy          =    -550.5335408803815653 [Eh]
	 Singles Energy            =      -0.0000000000000000 [Eh]
	 Same-Spin Energy          =      -0.2031759415812299 [Eh]
	 Opposite-Spin Energy      =      -0.6426518085132655 [Eh]
	 Correlation Energy        =      -0.8458277500944954 [Eh]
	 Total Energy              =    -551.3793686304760513 [Eh]

	 ================> DF-SCS-MP2 Energies <==================
	-----------------------------------------------------------
	 SCS Same-Spin Scale       =       0.3333333333333333 [-]
	 SCS Opposite-Spin Scale   =       1.2000000000000000 [-]
	 SCS Same-Spin Energy      =      -0.0677253138604099 [Eh]
	 SCS Opposite-Spin Energy  =      -0.7711821702159186 [Eh]
	 SCS Correlation Energy    =      -0.8389074840763285 [Eh]
	 SCS Total Energy          =    -551.3724483644579095 [Eh]
	-----------------------------------------------------------

  Dipole Moment: [D]
     X:    -0.4976      Y:    -1.5952      Z:     0.0264     Total:     1.6712

*** Psi4 exiting successfully. Buy a developer a beer!
