                               Psi4 1.3.2 release

  ==> Input File <==

--------------------------------------------------------------------------
#psi4
#
memory 32 gb

molecule  {
0 1
  S        1.2860020    -0.2606930    -0.0000810
  O       -0.7962180     1.3950430     0.0000390
  C       -1.3958030    -0.9449850     0.0000720
  C       -0.4471900     0.2281920    -0.0000640
  H       -1.2289500    -1.5666810    -0.8837680
  H       -1.2314380    -1.5641210     0.8861870
  H       -2.4167280    -0.5625730    -0.0018340
  H        1.7948297     1.1936525     0.0004166
units angstrom
no_reorient  #important for SAPT in psi4, default
symmetry c1  #important for SAPT in psi4, default
}

set PROPERTIES_ORIGIN ["COM"]
properties('MP2/aug-cc-pvtz', properties = ['dipole'])
--------------------------------------------------------------------------

    Molecular point group: c1
  Charge       = 0
  Multiplicity = 1
  Basis Set: AUG-CC-PVTZ
    Blend: AUG-CC-PVTZ
  Basis Set: (AUG-CC-PVTZ AUX)
    Blend: AUG-CC-PVTZ-JKFIT

    Orbital Energies [Eh]
    ---------------------

    Doubly Occupied:

       1A    -91.994166     2A    -20.566294     3A    -11.378202
       4A    -11.254975     5A     -8.992696     6A     -6.673655
       7A     -6.672584     8A     -6.671943     9A     -1.402538
      10A     -1.056014    11A     -0.972591    12A     -0.749218
      13A     -0.648452    14A     -0.641059    15A     -0.621987
      16A     -0.559131    17A     -0.525980    18A     -0.507799
      19A     -0.418781    20A     -0.394300

  @DF-RHF Final Energy:  -550.51855968484870

   => Energetics <=

    Nuclear Repulsion Energy =            152.0684115638758271
    One-Electron Energy =               -1059.7692086259610278
    Two-Electron Energy =                 357.1822373772365609
    Total Energy =                       -550.5185596848486966
  Basis Set: (AUG-CC-PVTZ AUX)
    Blend: AUG-CC-PVTZ-RI
    Molecular point group: c1

    Geometry (in Angstrom), charge = 0, multiplicity = 1:

       Center              X                  Y                   Z               Mass
    ------------   -----------------  -----------------  -----------------  -----------------
         S            1.244443335645    -0.298297790439    -0.000069677395    31.972071174400
         O           -0.837776664355     1.357438209561     0.000050322605    15.994914619570
         C           -1.437361664355    -0.982589790439     0.000083322605    12.000000000000
         C           -0.488748664355     0.190587209561    -0.000052677395    12.000000000000
         H           -1.270508664355    -1.604285790439    -0.883756677395     1.007825032230
         H           -1.272996664355    -1.601725790439     0.886198322605     1.007825032230
         H           -2.458286664355    -0.600177790439    -0.001822677395     1.007825032230
         H            1.753271035645     1.156047709561     0.000427922605     1.007825032230

  Basis Set: AUG-CC-PVTZ
    Blend: AUG-CC-PVTZ
  Basis Set: (AUG-CC-PVTZ AUX)
    Blend: AUG-CC-PVTZ-JKFIT
	 Reference Energy          =    -550.5185596848486966 [Eh]
	 Singles Energy            =      -0.0000000000000000 [Eh]
	 Same-Spin Energy          =      -0.2041969837180991 [Eh]
	 Opposite-Spin Energy      =      -0.6457522908791016 [Eh]
	 Correlation Energy        =      -0.8499492745972007 [Eh]
	 Total Energy              =    -551.3685089594458759 [Eh]

	 ================> DF-SCS-MP2 Energies <==================
	-----------------------------------------------------------
	 SCS Same-Spin Scale       =       0.3333333333333333 [-]
	 SCS Opposite-Spin Scale   =       1.2000000000000000 [-]
	 SCS Same-Spin Energy      =      -0.0680656612393664 [Eh]
	 SCS Opposite-Spin Energy  =      -0.7749027490549218 [Eh]
	 SCS Correlation Energy    =      -0.8429684102942883 [Eh]
	 SCS Total Energy          =    -551.3615280951429440 [Eh]
	-----------------------------------------------------------

  Dipole Moment: [D]
     X:    -0.0044      Y:    -1.7456      Z:     0.0005     Total:     1.7456

*** Psi4 exiting successfully. Buy a developer a beer!
