                               Psi4 1.3.2 release

  ==> Input File <==

--------------------------------------------------------------------------
#psi4
#
memory 32 gb

molecule  {
0 1
  S        1.2860020    -0.2606930    -0.0000810
  O       -0.8165292     1.3887739     0.0000425
  C       -1.3958030    -0.9449850     0.0000720
  C       -0.4471900     0.2281920    -0.0000640
  H       -1.2289500    -1.5666810    -0.8837680
  H       -1.2314380    -1.5641210     0.8861870
  H       -2.4167280    -0.5625730    -0.0018340
  H        1.7287820     1.0048730     0.0003520
units angstrom
no_reorient  #important for SAPT in psi4, default
symmetry c1  #important for SAPT in psi4, default
}

set PROPERTIES_ORIGIN ["COM"]
properties('MP2/aug-cc-pvtz', properties = ['dipole'])
--------------------------------------------------------------------------

    Molecular point group: c1
  Charge       = 0
  Multiplicity = 1
  Basis Set: AUG-CC-PVTZ
    Blend: AUG-CC-PVTZ
  Basis Set: (AUG-CC-PVTZ AUX)
    Blend: AUG-CC-PVTZ-JKFIT

    Orbital Energies [Eh]
    ---------------------

    Doubly Occupied:

       1A    -91.984013     2A    -20.567041     3A    -11.378122
       4A    -11.253365     5A     -8.986199     6A     -6.667399
       7A     -6.666319     8A     -6.665486     9A     -1.403207
      10A     -1.060040    11A     -0.986319    12A     -0.756557
      13A     -0.658476    14A     -0.641028    15A     -0.621435
      16A     -0.559415    17A     -0.532532    18A     -0.525879
      19A     -0.420293    20A     -0.396549

  @DF-RHF Final Energy:  -550.53577447791781

   => Energetics <=

    Nuclear Repulsion Energy =            152.9797193983929446
    One-Electron Energy =               -1061.5716379890579901
    Two-Electron Energy =                 358.0561441127472335
    Total Energy =                       -550.5357744779178120
  Basis Set: (AUG-CC-PVTZ AUX)
    Blend: AUG-CC-PVTZ-RI
    Molecular point group: c1

    Geometry (in Angstrom), charge = 0, multiplicity = 1:

       Center              X                  Y                   Z               Mass
    ------------   -----------------  -----------------  -----------------  -----------------
         S            1.249593983853    -0.294474935471    -0.000069557349    31.972071174400
         O           -0.852937216147     1.354991964529     0.000053942651    15.994914619570
         C           -1.432211016147    -0.978766935471     0.000083442651    12.000000000000
         C           -0.483598016147     0.194410064529    -0.000052557349    12.000000000000
         H           -1.265358016147    -1.600462935471    -0.883756557349     1.007825032230
         H           -1.267846016147    -1.597902935471     0.886198442651     1.007825032230
         H           -2.453136016147    -0.596354935471    -0.001822557349     1.007825032230
         H            1.692373983853     0.971091064529     0.000363442651     1.007825032230

  Basis Set: AUG-CC-PVTZ
    Blend: AUG-CC-PVTZ
  Basis Set: (AUG-CC-PVTZ AUX)
    Blend: AUG-CC-PVTZ-JKFIT
	 Reference Energy          =    -550.5357744779178120 [Eh]
	 Singles Energy            =      -0.0000000000000000 [Eh]
	 Same-Spin Energy          =      -0.2039849234389144 [Eh]
	 Opposite-Spin Energy      =      -0.6441215011586694 [Eh]
	 Correlation Energy        =      -0.8481064245975838 [Eh]
	 Total Energy              =    -551.3838809025154433 [Eh]

	 ================> DF-SCS-MP2 Energies <==================
	-----------------------------------------------------------
	 SCS Same-Spin Scale       =       0.3333333333333333 [-]
	 SCS Opposite-Spin Scale   =       1.2000000000000000 [-]
	 SCS Same-Spin Energy      =      -0.0679949744796381 [Eh]
	 SCS Opposite-Spin Energy  =      -0.7729458013904033 [Eh]
	 SCS Correlation Energy    =      -0.8409407758700413 [Eh]
	 SCS Total Energy          =    -551.3767152537878928 [Eh]
	-----------------------------------------------------------

  Dipole Moment: [D]
     X:     0.0436      Y:    -1.7972      Z:     0.0005     Total:     1.7977

*** Psi4 exiting successfully. Buy a developer a beer!
