                               Psi4 1.4a3.dev225

  ==> Input File <==

--------------------------------------------------------------------------
#psi4
#
memory 32 gb

molecule  {
0 1
  S        1.2860020    -0.2606930    -0.0000810
  O       -0.7962180     1.3950430     0.0000390
  C       -1.3958030    -0.9449850     0.0000720
  C       -0.4615187     0.2760949    -0.0000598
  H       -1.2289500    -1.5666810    -0.8837680
  H       -1.2314380    -1.5641210     0.8861870
  H       -2.4167280    -0.5625730    -0.0018340
  H        1.7287820     1.0048730     0.0003520
units angstrom
no_reorient  #important for SAPT in psi4, default
symmetry c1  #important for SAPT in psi4, default
}

set PROPERTIES_ORIGIN ["COM"]
properties('MP2/aug-cc-pvtz', properties = ['dipole'])
--------------------------------------------------------------------------

    Molecular point group: c1
  Charge       = 0
  Multiplicity = 1
  Basis Set: AUG-CC-PVTZ
    Blend: AUG-CC-PVTZ
  Basis Set: (AUG-CC-PVTZ AUX)
    Blend: AUG-CC-PVTZ-JKFIT

    Orbital Energies [Eh]
    ---------------------

    Doubly Occupied:

       1A    -91.976249     2A    -20.574566     3A    -11.375820
       4A    -11.253861     5A     -8.978435     6A     -6.659603
       7A     -6.658514     8A     -6.657673     9A     -1.442479
      10A     -1.050164    11A     -0.979112    12A     -0.756889
      13A     -0.662365    14A     -0.654787    15A     -0.625222
      16A     -0.565650    17A     -0.543727    18A     -0.527884
      19A     -0.411915    20A     -0.392824

  @DF-RHF Final Energy:  -550.53685953840454

   => Energetics <=

    Nuclear Repulsion Energy =            153.2247305259820109
    One-Electron Energy =               -1062.0277032178305490
    Two-Electron Energy =                 358.2661131534439392
    Total Energy =                       -550.5368595384045420
  Basis Set: (AUG-CC-PVTZ AUX)
    Blend: AUG-CC-PVTZ-RI
    Molecular point group: c1

    Geometry (in Angstrom), charge = 0, multiplicity = 1:

       Center              X                  Y                   Z               Mass
    ------------   -----------------  -----------------  -----------------  -----------------
         S            1.247581681760    -0.303358142651    -0.000069483898    31.972071174400
         O           -0.834638318240     1.352377857349     0.000050516102    15.994914619570
         C           -1.434223318240    -0.987650142651     0.000083516102    12.000000000000
         C           -0.499939018240     0.233429757349    -0.000048283898    12.000000000000
         H           -1.267370318240    -1.609346142651    -0.883756483898     1.007825032230
         H           -1.269858318240    -1.606786142651     0.886198516102     1.007825032230
         H           -2.455148318240    -0.605238142651    -0.001822483898     1.007825032230
         H            1.690361681760     0.962207857349     0.000363516102     1.007825032230

  Basis Set: AUG-CC-PVTZ
    Blend: AUG-CC-PVTZ
  Basis Set: (AUG-CC-PVTZ AUX)
    Blend: AUG-CC-PVTZ-JKFIT
	 Reference Energy          =    -550.5368595384045420 [Eh]
	 Singles Energy            =      -0.0000000000000000 [Eh]
	 Same-Spin Energy          =      -0.2027239017113627 [Eh]
	 Opposite-Spin Energy      =      -0.6415475862158928 [Eh]
	 Correlation Energy        =      -0.8442714879272555 [Eh]
	 Total Energy              =    -551.3811310263317864 [Eh]

	 ================> DF-SCS-MP2 Energies <==================
	-----------------------------------------------------------
	 SCS Same-Spin Scale       =       0.3333333333333333 [-]
	 SCS Opposite-Spin Scale   =       1.2000000000000000 [-]
	 SCS Same-Spin Energy      =      -0.0675746339037876 [Eh]
	 SCS Opposite-Spin Energy  =      -0.7698571034590713 [Eh]
	 SCS Correlation Energy    =      -0.8374317373628589 [Eh]
	 SCS Total Energy          =    -551.3742912757674048 [Eh]
	-----------------------------------------------------------

  Dipole Moment: [D]
     X:    -0.2771      Y:    -1.5446      Z:     0.0005     Total:     1.5692

*** Psi4 exiting successfully. Buy a developer a beer!
