                               Psi4 1.3.2 release

  ==> Input File <==

--------------------------------------------------------------------------
#psi4
#
memory 32 gb

molecule  {
0 1
  S        1.2860020    -0.2606930    -0.0000810
  O       -0.7962180     1.3950430     0.0000390
  C       -1.3958030    -0.9449850     0.0000720
  C       -0.4471900     0.2281920    -0.0000640
  H       -1.2289500    -1.5666810    -0.8837680
  H       -1.2314380    -1.5641210     0.8861870
  H       -2.4167280    -0.5625730    -0.0018340
  H        1.7618059     1.0992627     0.0003843
units angstrom
no_reorient  #important for SAPT in psi4, default
symmetry c1  #important for SAPT in psi4, default
}

set PROPERTIES_ORIGIN ["COM"]
properties('MP2/aug-cc-pvtz', properties = ['dipole'])
--------------------------------------------------------------------------

    Molecular point group: c1
  Charge       = 0
  Multiplicity = 1
  Basis Set: AUG-CC-PVTZ
    Blend: AUG-CC-PVTZ
  Basis Set: (AUG-CC-PVTZ AUX)
    Blend: AUG-CC-PVTZ-JKFIT

    Orbital Energies [Eh]
    ---------------------

    Doubly Occupied:

       1A    -91.988967     2A    -20.566716     3A    -11.378295
       4A    -11.254702     5A     -8.989057     6A     -6.670127
       7A     -6.669077     8A     -6.668375     9A     -1.402955
      10A     -1.057554    11A     -0.978576    12A     -0.752485
      13A     -0.652880    14A     -0.641289    15A     -0.621950
      16A     -0.559487    17A     -0.526218    18A     -0.520908
      19A     -0.419267    20A     -0.394841

  @DF-RHF Final Energy:  -550.53032236518436

   => Energetics <=

    Nuclear Repulsion Energy =            152.5257562531301971
    One-Electron Energy =               -1060.6847070601202176
    Two-Electron Energy =                 357.6286284418056880
    Total Energy =                       -550.5303223651842472
  Basis Set: (AUG-CC-PVTZ AUX)
    Blend: AUG-CC-PVTZ-RI
    Molecular point group: c1

    Geometry (in Angstrom), charge = 0, multiplicity = 1:

       Center              X                  Y                   Z               Mass
    ------------   -----------------  -----------------  -----------------  -----------------
         S            1.244881269368    -0.297046072692    -0.000069249060    31.972071174400
         O           -0.837338730632     1.358689927308     0.000050750940    15.994914619570
         C           -1.436923730632    -0.981338072692     0.000083750940    12.000000000000
         C           -0.488310730632     0.191838927308    -0.000052249060    12.000000000000
         H           -1.270070730632    -1.603034072692    -0.883756249060     1.007825032230
         H           -1.272558730632    -1.600474072692     0.886198750940     1.007825032230
         H           -2.457848730632    -0.598926072692    -0.001822249060     1.007825032230
         H            1.720685169368     1.062909627308     0.000396050940     1.007825032230

  Basis Set: AUG-CC-PVTZ
    Blend: AUG-CC-PVTZ
  Basis Set: (AUG-CC-PVTZ AUX)
    Blend: AUG-CC-PVTZ-JKFIT
	 Reference Energy          =    -550.5303223651843609 [Eh]
	 Singles Energy            =      -0.0000000000000000 [Eh]
	 Same-Spin Energy          =      -0.2040624195275111 [Eh]
	 Opposite-Spin Energy      =      -0.6447622248986150 [Eh]
	 Correlation Energy        =      -0.8488246444261260 [Eh]
	 Total Energy              =    -551.3791470096105058 [Eh]

	 ================> DF-SCS-MP2 Energies <==================
	-----------------------------------------------------------
	 SCS Same-Spin Scale       =       0.3333333333333333 [-]
	 SCS Opposite-Spin Scale   =       1.2000000000000000 [-]
	 SCS Same-Spin Energy      =      -0.0680208065091703 [Eh]
	 SCS Opposite-Spin Energy  =      -0.7737146698783380 [Eh]
	 SCS Correlation Energy    =      -0.8417354763875083 [Eh]
	 SCS Total Energy          =    -551.3720578415718592 [Eh]
	-----------------------------------------------------------

  Dipole Moment: [D]
     X:    -0.0098      Y:    -1.7774      Z:     0.0005     Total:     1.7775

*** Psi4 exiting successfully. Buy a developer a beer!
