                               Psi4 1.3.2 release

  ==> Input File <==

--------------------------------------------------------------------------
#psi4
#
memory 32 gb

molecule  {
0 1
  S        1.2860020    -0.2606930    -0.0000810
  O       -0.7962180     1.3950430     0.0000390
  C       -1.3958030    -0.9449850     0.0000720
  C       -0.5045048     0.4198036    -0.0000471
  H       -1.2289500    -1.5666810    -0.8837680
  H       -1.2314380    -1.5641210     0.8861870
  H       -2.4167280    -0.5625730    -0.0018340
  H        1.7287820     1.0048730     0.0003520
units angstrom
no_reorient  #important for SAPT in psi4, default
symmetry c1  #important for SAPT in psi4, default
}

set PROPERTIES_ORIGIN ["COM"]
properties('MP2/aug-cc-pvtz', properties = ['dipole'])
--------------------------------------------------------------------------

    Molecular point group: c1
  Charge       = 0
  Multiplicity = 1
  Basis Set: AUG-CC-PVTZ
    Blend: AUG-CC-PVTZ
  Basis Set: (AUG-CC-PVTZ AUX)
    Blend: AUG-CC-PVTZ-JKFIT

    Orbital Energies [Eh]
    ---------------------

    Doubly Occupied:

       1A    -91.952073     2A    -20.600573     3A    -11.367713
       4A    -11.252605     5A     -8.954517     6A     -6.635593
       7A     -6.634440     8A     -6.633579     9A     -1.579156
      10A     -1.019766    11A     -0.959486    12A     -0.776908
      13A     -0.712678    14A     -0.683005    15A     -0.668431
      16A     -0.579396    17A     -0.573493    18A     -0.510988
      19A     -0.377594    20A     -0.374867

  @DF-RHF Final Energy:  -550.46487136689279

   => Energetics <=

    Nuclear Repulsion Energy =            154.3052556870992760
    One-Electron Energy =               -1063.8465317219902317
    Two-Electron Energy =                 359.0764046679982471
    Total Energy =                       -550.4648713668927940
  Basis Set: (AUG-CC-PVTZ AUX)
    Blend: AUG-CC-PVTZ-RI
    Molecular point group: c1

    Geometry (in Angstrom), charge = 0, multiplicity = 1:

       Center              X                  Y                   Z               Mass
    ------------   -----------------  -----------------  -----------------  -----------------
         S            1.254369113789    -0.326049501793    -0.000071489206    31.972071174400
         O           -0.827850886211     1.329686498207     0.000048510794    15.994914619570
         C           -1.427435886211    -1.010341501793     0.000081510794    12.000000000000
         C           -0.536137686211     0.354447098207    -0.000037589206    12.000000000000
         H           -1.260582886211    -1.632037501793    -0.883758489206     1.007825032230
         H           -1.263070886211    -1.629477501793     0.886196510794     1.007825032230
         H           -2.448360886211    -0.627929501793    -0.001824489206     1.007825032230
         H            1.697149113789     0.939516498207     0.000361510794     1.007825032230

  Basis Set: AUG-CC-PVTZ
    Blend: AUG-CC-PVTZ
  Basis Set: (AUG-CC-PVTZ AUX)
    Blend: AUG-CC-PVTZ-JKFIT
	 Reference Energy          =    -550.4648713668927940 [Eh]
	 Singles Energy            =      -0.0000000000000000 [Eh]
	 Same-Spin Energy          =      -0.1997368120173373 [Eh]
	 Opposite-Spin Energy      =      -0.6351339502917999 [Eh]
	 Correlation Energy        =      -0.8348707623091371 [Eh]
	 Total Energy              =    -551.2997421292019453 [Eh]

	 ================> DF-SCS-MP2 Energies <==================
	-----------------------------------------------------------
	 SCS Same-Spin Scale       =       0.3333333333333333 [-]
	 SCS Opposite-Spin Scale   =       1.2000000000000000 [-]
	 SCS Same-Spin Energy      =      -0.0665789373391124 [Eh]
	 SCS Opposite-Spin Energy  =      -0.7621607403501598 [Eh]
	 SCS Correlation Energy    =      -0.8287396776892723 [Eh]
	 SCS Total Energy          =    -551.2936110445821214 [Eh]
	-----------------------------------------------------------

  Dipole Moment: [D]
     X:    -1.2129      Y:    -0.5691      Z:     0.0004     Total:     1.3398

*** Psi4 exiting successfully. Buy a developer a beer!
