                               Psi4 1.4a3.dev225

  ==> Input File <==

--------------------------------------------------------------------------
#psi4
#
memory 32 gb

molecule  {
0 1
  S        1.2860020    -0.2606930    -0.0000810
  O       -0.7962180     1.3950430     0.0000390
  C       -1.3958030    -0.9449850     0.0000720
  C       -0.4471900     0.2281920    -0.0000640
  H       -1.2289500    -1.5666810    -0.8837680
  H       -1.2314380    -1.5641210     0.8861870
  H       -2.4167280    -0.5625730    -0.0018340
  H        1.7452939     1.0520679     0.0003681
units angstrom
no_reorient  #important for SAPT in psi4, default
symmetry c1  #important for SAPT in psi4, default
}

set PROPERTIES_ORIGIN ["COM"]
properties('MP2/aug-cc-pvtz', properties = ['dipole'])
--------------------------------------------------------------------------

    Molecular point group: c1
  Charge       = 0
  Multiplicity = 1
  Basis Set: AUG-CC-PVTZ
    Blend: AUG-CC-PVTZ
  Basis Set: (AUG-CC-PVTZ AUX)
    Blend: AUG-CC-PVTZ-JKFIT

    Orbital Energies [Eh]
    ---------------------

    Doubly Occupied:

       1A    -91.986001     2A    -20.566960     3A    -11.378370
       4A    -11.254587     5A     -8.987084     6A     -6.668213
       7A     -6.667168     8A     -6.666407     9A     -1.403186
      10A     -1.058693    11A     -0.982202    12A     -0.754494
      13A     -0.655469    14A     -0.641421    15A     -0.621951
      16A     -0.559768    17A     -0.526897    18A     -0.526355
      19A     -0.419520    20A     -0.395192

  @DF-RHF Final Energy:  -550.53409688776492

   => Energetics <=

    Nuclear Repulsion Energy =            152.7747407883341282
    One-Electron Energy =               -1061.1778008051421693
    Two-Electron Energy =                 357.8689631290431521
    Total Energy =                       -550.5340968877649175
  Basis Set: (AUG-CC-PVTZ AUX)
    Blend: AUG-CC-PVTZ-RI
    Molecular point group: c1

    Geometry (in Angstrom), charge = 0, multiplicity = 1:

       Center              X                  Y                   Z               Mass
    ------------   -----------------  -----------------  -----------------  -----------------
         S            1.245100237556    -0.296420215144    -0.000069034229    31.972071174400
         O           -0.837119762444     1.359315784856     0.000050965771    15.994914619570
         C           -1.436704762444    -0.980712215144     0.000083965771    12.000000000000
         C           -0.488091762444     0.192464784856    -0.000052034229    12.000000000000
         H           -1.269851762444    -1.602408215144    -0.883756034229     1.007825032230
         H           -1.272339762444    -1.599848215144     0.886198965771     1.007825032230
         H           -2.457629762444    -0.598300215144    -0.001822034229     1.007825032230
         H            1.704392137556     1.016340684856     0.000380065771     1.007825032230

  Basis Set: AUG-CC-PVTZ
    Blend: AUG-CC-PVTZ
  Basis Set: (AUG-CC-PVTZ AUX)
    Blend: AUG-CC-PVTZ-JKFIT
	 Reference Energy          =    -550.5340968877649175 [Eh]
	 Singles Energy            =      -0.0000000000000000 [Eh]
	 Same-Spin Energy          =      -0.2040114200263342 [Eh]
	 Opposite-Spin Energy      =      -0.6443770691599455 [Eh]
	 Correlation Energy        =      -0.8483884891862797 [Eh]
	 Total Energy              =    -551.3824853769511947 [Eh]

	 ================> DF-SCS-MP2 Energies <==================
	-----------------------------------------------------------
	 SCS Same-Spin Scale       =       0.3333333333333333 [-]
	 SCS Opposite-Spin Scale   =       1.2000000000000000 [-]
	 SCS Same-Spin Energy      =      -0.0680038066754447 [Eh]
	 SCS Opposite-Spin Energy  =      -0.7732524829919346 [Eh]
	 SCS Correlation Energy    =      -0.8412562896673793 [Eh]
	 SCS Total Energy          =    -551.3753531774323164 [Eh]
	-----------------------------------------------------------

  Dipole Moment: [D]
     X:    -0.0143      Y:    -1.7930      Z:     0.0005     Total:     1.7930

*** Psi4 exiting successfully. Buy a developer a beer!
