                               Psi4 1.3.2 release

  ==> Input File <==

--------------------------------------------------------------------------
#psi4
#
memory 32 gb

molecule  {
0 1
  S        1.2860020    -0.2606930    -0.0000810
  O       -0.7962180     1.3950430     0.0000390
  C       -1.3958030    -0.9449850     0.0000720
  C       -0.4369440     0.2196091    -0.0227512
  H       -1.2289500    -1.5666810    -0.8837680
  H       -1.2314380    -1.5641210     0.8861870
  H       -2.4167280    -0.5625730    -0.0018340
  H        1.7287820     1.0048730     0.0003520
units angstrom
no_reorient  #important for SAPT in psi4, default
symmetry c1  #important for SAPT in psi4, default
}

set PROPERTIES_ORIGIN ["COM"]
properties('MP2/aug-cc-pvtz', properties = ['dipole'])
--------------------------------------------------------------------------

    Molecular point group: c1
  Charge       = 0
  Multiplicity = 1
  Basis Set: AUG-CC-PVTZ
    Blend: AUG-CC-PVTZ
  Basis Set: (AUG-CC-PVTZ AUX)
    Blend: AUG-CC-PVTZ-JKFIT

    Orbital Energies [Eh]
    ---------------------

    Doubly Occupied:

       1A    -91.984932     2A    -20.565133     3A    -11.378653
       4A    -11.254321     5A     -8.987289     6A     -6.668499
       7A     -6.667429     8A     -6.666592     9A     -1.394663
      10A     -1.062077    11A     -0.987930    12A     -0.756760
      13A     -0.657037    14A     -0.638035    15A     -0.620714
      16A     -0.559383    17A     -0.532893    18A     -0.522660
      19A     -0.421357    20A     -0.396673

  @DF-RHF Final Energy:  -550.53431270363012

   => Energetics <=

    Nuclear Repulsion Energy =            153.0398443663034698
    One-Electron Energy =               -1061.7022491504692425
    Two-Electron Energy =                 358.1280920805356800
    Total Energy =                       -550.5343127036301212
  Basis Set: (AUG-CC-PVTZ AUX)
    Blend: AUG-CC-PVTZ-RI
    Molecular point group: c1

    Geometry (in Angstrom), charge = 0, multiplicity = 1:

       Center              X                  Y                   Z               Mass
    ------------   -----------------  -----------------  -----------------  -----------------
         S            1.243701378456    -0.294439130969     0.003513449542    31.972071174400
         O           -0.838518621544     1.361296869031     0.003633449542    15.994914619570
         C           -1.438103621544    -0.978731130969     0.003666449542    12.000000000000
         C           -0.479244621544     0.185862969031    -0.019156750458    12.000000000000
         H           -1.271250621544    -1.600427130969    -0.880173550458     1.007825032230
         H           -1.273738621544    -1.597867130969     0.889781449542     1.007825032230
         H           -2.459028621544    -0.596319130969     0.001760449542     1.007825032230
         H            1.686481378456     0.971126869031     0.003946449542     1.007825032230

  Basis Set: AUG-CC-PVTZ
    Blend: AUG-CC-PVTZ
  Basis Set: (AUG-CC-PVTZ AUX)
    Blend: AUG-CC-PVTZ-JKFIT
	 Reference Energy          =    -550.5343127036301212 [Eh]
	 Singles Energy            =      -0.0000000000000000 [Eh]
	 Same-Spin Energy          =      -0.2042811749065754 [Eh]
	 Opposite-Spin Energy      =      -0.6446936766508546 [Eh]
	 Correlation Energy        =      -0.8489748515574300 [Eh]
	 Total Energy              =    -551.3832875551875077 [Eh]

	 ================> DF-SCS-MP2 Energies <==================
	-----------------------------------------------------------
	 SCS Same-Spin Scale       =       0.3333333333333333 [-]
	 SCS Opposite-Spin Scale   =       1.2000000000000000 [-]
	 SCS Same-Spin Energy      =      -0.0680937249688585 [Eh]
	 SCS Opposite-Spin Energy  =      -0.7736324119810255 [Eh]
	 SCS Correlation Energy    =      -0.8417261369498840 [Eh]
	 SCS Total Energy          =    -551.3760388405800086 [Eh]
	-----------------------------------------------------------

  Dipole Moment: [D]
     X:     0.0887      Y:    -1.8591      Z:    -0.0023     Total:     1.8613

*** Psi4 exiting successfully. Buy a developer a beer!
