                               Psi4 1.3.2 release

  ==> Input File <==

--------------------------------------------------------------------------
#psi4
#
memory 32 gb

molecule  {
0 1
  S        1.2860020    -0.2606930    -0.0000810
  O       -0.7962180     1.3950430     0.0000390
  C       -1.3958030    -0.9449850     0.0000720
  C       -0.4887978     0.0443460    -0.0001251
  H       -1.2289500    -1.5666810    -0.8837680
  H       -1.2314380    -1.5641210     0.8861870
  H       -2.4167280    -0.5625730    -0.0018340
  H        1.7287820     1.0048730     0.0003520
units angstrom
no_reorient  #important for SAPT in psi4, default
symmetry c1  #important for SAPT in psi4, default
}

set PROPERTIES_ORIGIN ["COM"]
properties('MP2/aug-cc-pvtz', properties = ['dipole'])
--------------------------------------------------------------------------

    Molecular point group: c1
  Charge       = 0
  Multiplicity = 1
  Basis Set: AUG-CC-PVTZ
    Blend: AUG-CC-PVTZ
  Basis Set: (AUG-CC-PVTZ AUX)
    Blend: AUG-CC-PVTZ-JKFIT

    Orbital Energies [Eh]
    ---------------------

    Doubly Occupied:

       1A    -91.992710     2A    -20.548182     3A    -11.389832
       4A    -11.257934     5A     -8.993981     6A     -6.675207
       7A     -6.674326     8A     -6.673529     9A     -1.303628
      10A     -1.106046    11A     -1.002502    12A     -0.767367
      13A     -0.664572    14A     -0.643629    15A     -0.620264
      16A     -0.560137    17A     -0.511343    18A     -0.474512
      19A     -0.420685    20A     -0.389299

  @DF-RHF Final Energy:  -550.47101881472963

   => Energetics <=

    Nuclear Repulsion Energy =            152.3506806099759388
    One-Electron Energy =               -1060.3040329784519145
    Two-Electron Energy =                 357.4823335537463436
    Total Energy =                       -550.4710188147296321
  Basis Set: (AUG-CC-PVTZ AUX)
    Blend: AUG-CC-PVTZ-RI
    Molecular point group: c1

    Geometry (in Angstrom), charge = 0, multiplicity = 1:

       Center              X                  Y                   Z               Mass
    ------------   -----------------  -----------------  -----------------  -----------------
         S            1.251889005222    -0.266765385772    -0.000059173139    31.972071174400
         O           -0.830330994778     1.388970614228     0.000060826861    15.994914619570
         C           -1.429915994778    -0.951057385772     0.000093826861    12.000000000000
         C           -0.522910794778     0.038273614228    -0.000103273139    12.000000000000
         H           -1.263062994778    -1.572753385772    -0.883746173139     1.007825032230
         H           -1.265550994778    -1.570193385772     0.886208826861     1.007825032230
         H           -2.450840994778    -0.568645385772    -0.001812173139     1.007825032230
         H            1.694669005222     0.998800614228     0.000373826861     1.007825032230

  Basis Set: AUG-CC-PVTZ
    Blend: AUG-CC-PVTZ
  Basis Set: (AUG-CC-PVTZ AUX)
    Blend: AUG-CC-PVTZ-JKFIT
	 Reference Energy          =    -550.4710188147296321 [Eh]
	 Singles Energy            =      -0.0000000000000000 [Eh]
	 Same-Spin Energy          =      -0.2096363233131815 [Eh]
	 Opposite-Spin Energy      =      -0.6548936896281579 [Eh]
	 Correlation Energy        =      -0.8645300129413394 [Eh]
	 Total Energy              =    -551.3355488276710048 [Eh]

	 ================> DF-SCS-MP2 Energies <==================
	-----------------------------------------------------------
	 SCS Same-Spin Scale       =       0.3333333333333333 [-]
	 SCS Opposite-Spin Scale   =       1.2000000000000000 [-]
	 SCS Same-Spin Energy      =      -0.0698787744377272 [Eh]
	 SCS Opposite-Spin Energy  =      -0.7858724275537894 [Eh]
	 SCS Correlation Energy    =      -0.8557512019915166 [Eh]
	 SCS Total Energy          =    -551.3267700167211842 [Eh]
	-----------------------------------------------------------

  Dipole Moment: [D]
     X:    -0.0230      Y:    -2.5040      Z:     0.0007     Total:     2.5041

*** Psi4 exiting successfully. Buy a developer a beer!
