                               Psi4 1.4a3.dev225

  ==> Input File <==

--------------------------------------------------------------------------
#psi4
#
memory 32 gb

molecule  {
0 1
  S        1.2860020    -0.2606930    -0.0000810
  O       -0.7962180     1.3950430     0.0000390
  C       -1.3958030    -0.9449850     0.0000720
  C       -0.4328613     0.1802891    -0.0000682
  H       -1.2289500    -1.5666810    -0.8837680
  H       -1.2314380    -1.5641210     0.8861870
  H       -2.4167280    -0.5625730    -0.0018340
  H        1.7287820     1.0048730     0.0003520
units angstrom
no_reorient  #important for SAPT in psi4, default
symmetry c1  #important for SAPT in psi4, default
}

set PROPERTIES_ORIGIN ["COM"]
properties('MP2/aug-cc-pvtz', properties = ['dipole'])
--------------------------------------------------------------------------

    Molecular point group: c1
  Charge       = 0
  Multiplicity = 1
  Basis Set: AUG-CC-PVTZ
    Blend: AUG-CC-PVTZ
  Basis Set: (AUG-CC-PVTZ AUX)
    Blend: AUG-CC-PVTZ-JKFIT

    Orbital Energies [Eh]
    ---------------------

    Doubly Occupied:

       1A    -91.988674     2A    -20.560116     3A    -11.380928
       4A    -11.255142     5A     -8.991053     6A     -6.672287
       7A     -6.671238     8A     -6.670412     9A     -1.368049
      10A     -1.069879    11A     -0.993681    12A     -0.758472
      13A     -0.655060    14A     -0.630122    15A     -0.622135
      16A     -0.557983    17A     -0.532805    18A     -0.510170
      19A     -0.424587    20A     -0.396885

  @DF-RHF Final Energy:  -550.52715881771712

   => Energetics <=

    Nuclear Repulsion Energy =            152.9198432067620388
    One-Electron Energy =               -1061.4746484886450162
    Two-Electron Energy =                 358.0276464641658549
    Total Energy =                       -550.5271588177171225
  Basis Set: (AUG-CC-PVTZ AUX)
    Blend: AUG-CC-PVTZ-RI
    Molecular point group: c1

    Geometry (in Angstrom), charge = 0, multiplicity = 1:

       Center              X                  Y                   Z               Mass
    ------------   -----------------  -----------------  -----------------  -----------------
         S            1.243056727074    -0.288230569891    -0.000068157552    31.972071174400
         O           -0.839163272926     1.367505430109     0.000051842448    15.994914619570
         C           -1.438748272926    -0.972522569891     0.000084842448    12.000000000000
         C           -0.475806572926     0.152751530109    -0.000055357552    12.000000000000
         H           -1.271895272926    -1.594218569891    -0.883755157552     1.007825032230
         H           -1.274383272926    -1.591658569891     0.886199842448     1.007825032230
         H           -2.459673272926    -0.590110569891    -0.001821157552     1.007825032230
         H            1.685836727074     0.977335430109     0.000364842448     1.007825032230

  Basis Set: AUG-CC-PVTZ
    Blend: AUG-CC-PVTZ
  Basis Set: (AUG-CC-PVTZ AUX)
    Blend: AUG-CC-PVTZ-JKFIT
	 Reference Energy          =    -550.5271588177171225 [Eh]
	 Singles Energy            =      -0.0000000000000000 [Eh]
	 Same-Spin Energy          =      -0.2053916703750161 [Eh]
	 Opposite-Spin Energy      =      -0.6468483936079852 [Eh]
	 Correlation Energy        =      -0.8522400639830012 [Eh]
	 Total Energy              =    -551.3793988817001264 [Eh]

	 ================> DF-SCS-MP2 Energies <==================
	-----------------------------------------------------------
	 SCS Same-Spin Scale       =       0.3333333333333333 [-]
	 SCS Opposite-Spin Scale   =       1.2000000000000000 [-]
	 SCS Same-Spin Energy      =      -0.0684638901250054 [Eh]
	 SCS Opposite-Spin Energy  =      -0.7762180723295822 [Eh]
	 SCS Correlation Energy    =      -0.8446819624545875 [Eh]
	 SCS Total Energy          =    -551.3718407801717376 [Eh]
	-----------------------------------------------------------

  Dipole Moment: [D]
     X:     0.2065      Y:    -2.0360      Z:     0.0005     Total:     2.0465

*** Psi4 exiting successfully. Buy a developer a beer!
