                               Psi4 1.4a3.dev225

  ==> Input File <==

--------------------------------------------------------------------------
#psi4
#
memory 32 gb

molecule  {
0 1
  S        1.2860020    -0.2606930    -0.0000810
  O       -0.7962180     1.3950430     0.0000390
  C       -1.3958030    -0.9449850     0.0000720
  C       -0.4529215     0.2473532    -0.0000623
  H       -1.2289500    -1.5666810    -0.8837680
  H       -1.2314380    -1.5641210     0.8861870
  H       -2.4167280    -0.5625730    -0.0018340
  H        1.7287820     1.0048730     0.0003520
units angstrom
no_reorient  #important for SAPT in psi4, default
symmetry c1  #important for SAPT in psi4, default
}

set PROPERTIES_ORIGIN ["COM"]
properties('MP2/aug-cc-pvtz', properties = ['dipole'])
--------------------------------------------------------------------------

    Molecular point group: c1
  Charge       = 0
  Multiplicity = 1
  Basis Set: AUG-CC-PVTZ
    Blend: AUG-CC-PVTZ
  Basis Set: (AUG-CC-PVTZ AUX)
    Blend: AUG-CC-PVTZ-JKFIT

    Orbital Energies [Eh]
    ---------------------

    Doubly Occupied:

       1A    -91.980240     2A    -20.570116     3A    -11.377423
       4A    -11.254234     5A     -8.982456     6A     -6.663643
       7A     -6.662568     8A     -6.661730     9A     -1.418614
      10A     -1.056203    11A     -0.983373    12A     -0.756556
      13A     -0.659852    14A     -0.646623    15A     -0.622723
      16A     -0.562176    17A     -0.533423    18A     -0.530836
      19A     -0.416989    20A     -0.394652

  @DF-RHF Final Energy:  -550.53732095275586

   => Energetics <=

    Nuclear Repulsion Energy =            153.1048767510219193
    One-Electron Energy =               -1061.8155346696628385
    Two-Electron Energy =                 358.1733369658850279
    Total Energy =                       -550.5373209527558629
  Basis Set: (AUG-CC-PVTZ AUX)
    Blend: AUG-CC-PVTZ-RI
    Molecular point group: c1

    Geometry (in Angstrom), charge = 0, multiplicity = 1:

       Center              X                  Y                   Z               Mass
    ------------   -----------------  -----------------  -----------------  -----------------
         S            1.246224198512    -0.298819877139    -0.000069089152    31.972071174400
         O           -0.835995801488     1.356916122861     0.000050910848    15.994914619570
         C           -1.435580801488    -0.983111877139     0.000083910848    12.000000000000
         C           -0.492699301488     0.209226322861    -0.000050389152    12.000000000000
         H           -1.268727801488    -1.604807877139    -0.883756089152     1.007825032230
         H           -1.271215801488    -1.602247877139     0.886198910848     1.007825032230
         H           -2.456505801488    -0.600699877139    -0.001822089152     1.007825032230
         H            1.689004198512     0.966746122861     0.000363910848     1.007825032230

  Basis Set: AUG-CC-PVTZ
    Blend: AUG-CC-PVTZ
  Basis Set: (AUG-CC-PVTZ AUX)
    Blend: AUG-CC-PVTZ-JKFIT
	 Reference Energy          =    -550.5373209527558629 [Eh]
	 Singles Energy            =      -0.0000000000000000 [Eh]
	 Same-Spin Energy          =      -0.2034548911526791 [Eh]
	 Opposite-Spin Energy      =      -0.6430320626520941 [Eh]
	 Correlation Energy        =      -0.8464869538047732 [Eh]
	 Total Energy              =    -551.3838079065606053 [Eh]

	 ================> DF-SCS-MP2 Energies <==================
	-----------------------------------------------------------
	 SCS Same-Spin Scale       =       0.3333333333333333 [-]
	 SCS Opposite-Spin Scale   =       1.2000000000000000 [-]
	 SCS Same-Spin Energy      =      -0.0678182970508930 [Eh]
	 SCS Opposite-Spin Energy  =      -0.7716384751825129 [Eh]
	 SCS Correlation Energy    =      -0.8394567722334060 [Eh]
	 SCS Total Energy          =    -551.3767777249893243 [Eh]
	-----------------------------------------------------------

  Dipole Moment: [D]
     X:    -0.1191      Y:    -1.7069      Z:     0.0005     Total:     1.7111

*** Psi4 exiting successfully. Buy a developer a beer!
