                               Psi4 1.3.2 release

  ==> Input File <==

--------------------------------------------------------------------------
#psi4
#
memory 32 gb

molecule  {
0 1
  S        1.2860020    -0.2606930    -0.0000810
  O       -0.7962180     1.3950430     0.0000390
  C       -1.3958030    -0.9449850     0.0000720
  C       -0.4758474     0.3239978    -0.0000555
  H       -1.2289500    -1.5666810    -0.8837680
  H       -1.2314380    -1.5641210     0.8861870
  H       -2.4167280    -0.5625730    -0.0018340
  H        1.7287820     1.0048730     0.0003520
units angstrom
no_reorient  #important for SAPT in psi4, default
symmetry c1  #important for SAPT in psi4, default
}

set PROPERTIES_ORIGIN ["COM"]
properties('MP2/aug-cc-pvtz', properties = ['dipole'])
--------------------------------------------------------------------------

    Molecular point group: c1
  Charge       = 0
  Multiplicity = 1
  Basis Set: AUG-CC-PVTZ
    Blend: AUG-CC-PVTZ
  Basis Set: (AUG-CC-PVTZ AUX)
    Blend: AUG-CC-PVTZ-JKFIT

    Orbital Energies [Eh]
    ---------------------

    Doubly Occupied:

       1A    -91.968998     2A    -20.582434     3A    -11.373077
       4A    -11.253282     5A     -8.971194     6A     -6.652332
       7A     -6.651219     8A     -6.650373     9A     -1.485078
      10A     -1.039985    11A     -0.972231    12A     -0.759800
      13A     -0.670385    14A     -0.666254    15A     -0.634910
      16A     -0.571340    17A     -0.558827    18A     -0.522368
      19A     -0.401379    20A     -0.388784

  @DF-RHF Final Energy:  -550.52770871452196

   => Energetics <=

    Nuclear Repulsion Energy =            153.4882456554027499
    One-Electron Energy =               -1062.4834067389738266
    Two-Electron Energy =                 358.4674523690491128
    Total Energy =                       -550.5277087145218502
  Basis Set: (AUG-CC-PVTZ AUX)
    Blend: AUG-CC-PVTZ-RI
    Molecular point group: c1

    Geometry (in Angstrom), charge = 0, multiplicity = 1:

       Center              X                  Y                   Z               Mass
    ------------   -----------------  -----------------  -----------------  -----------------
         S            1.249844159103    -0.310921929032    -0.000070162860    31.972071174400
         O           -0.832375840897     1.344814070968     0.000049837140    15.994914619570
         C           -1.431960840897    -0.995213929032     0.000082837140    12.000000000000
         C           -0.512005240897     0.273768870968    -0.000044662860    12.000000000000
         H           -1.265107840897    -1.616909929032    -0.883757162860     1.007825032230
         H           -1.267595840897    -1.614349929032     0.886197837140     1.007825032230
         H           -2.452885840897    -0.612801929032    -0.001823162860     1.007825032230
         H            1.692624159103     0.954644070968     0.000362837140     1.007825032230

  Basis Set: AUG-CC-PVTZ
    Blend: AUG-CC-PVTZ
  Basis Set: (AUG-CC-PVTZ AUX)
    Blend: AUG-CC-PVTZ-JKFIT
	 Reference Energy          =    -550.5277087145219639 [Eh]
	 Singles Energy            =      -0.0000000000000000 [Eh]
	 Same-Spin Energy          =      -0.2016267787960848 [Eh]
	 Opposite-Spin Energy      =      -0.6392642224091474 [Eh]
	 Correlation Energy        =      -0.8408910012052322 [Eh]
	 Total Energy              =    -551.3685997157272141 [Eh]

	 ================> DF-SCS-MP2 Energies <==================
	-----------------------------------------------------------
	 SCS Same-Spin Scale       =       0.3333333333333333 [-]
	 SCS Opposite-Spin Scale   =       1.2000000000000000 [-]
	 SCS Same-Spin Energy      =      -0.0672089262653616 [Eh]
	 SCS Opposite-Spin Energy  =      -0.7671170668909768 [Eh]
	 SCS Correlation Energy    =      -0.8343259931563384 [Eh]
	 SCS Total Energy          =    -551.3620347076782764 [Eh]
	-----------------------------------------------------------

  Dipole Moment: [D]
     X:    -0.5637      Y:    -1.2472      Z:     0.0004     Total:     1.3687

*** Psi4 exiting successfully. Buy a developer a beer!
