                               Psi4 1.3.2 release

  ==> Input File <==

--------------------------------------------------------------------------
#psi4
#
memory 32 gb

molecule  {
0 1
  S        1.2860020    -0.2606930    -0.0000810
  O       -0.7962180     1.3950430     0.0000390
  C       -1.3958030    -0.9449850     0.0000720
  C       -0.4631960     0.1674067    -0.0000844
  H       -1.2289500    -1.5666810    -0.8837680
  H       -1.2314380    -1.5641210     0.8861870
  H       -2.4167280    -0.5625730    -0.0018340
  H        1.7287820     1.0048730     0.0003520
units angstrom
no_reorient  #important for SAPT in psi4, default
symmetry c1  #important for SAPT in psi4, default
}

set PROPERTIES_ORIGIN ["COM"]
properties('MP2/aug-cc-pvtz', properties = ['dipole'])
--------------------------------------------------------------------------

    Molecular point group: c1
  Charge       = 0
  Multiplicity = 1
  Basis Set: AUG-CC-PVTZ
    Blend: AUG-CC-PVTZ
  Basis Set: (AUG-CC-PVTZ AUX)
    Blend: AUG-CC-PVTZ-JKFIT

    Orbital Energies [Eh]
    ---------------------

    Doubly Occupied:

       1A    -91.985862     2A    -20.561829     3A    -11.383050
       4A    -11.256266     5A     -8.987819     6A     -6.669035
       7A     -6.668027     8A     -6.667209     9A     -1.367146
      10A     -1.073547    11A     -0.992808    12A     -0.759765
      13A     -0.657409    14A     -0.632683    15A     -0.626928
      16A     -0.556142    17A     -0.533480    18A     -0.507947
      19A     -0.423432    20A     -0.394270

  @DF-RHF Final Energy:  -550.52458046242555

   => Energetics <=

    Nuclear Repulsion Energy =            152.7345152966335604
    One-Electron Energy =               -1061.1088805747272090
    Two-Electron Energy =                 357.8497848156681016
    Total Energy =                       -550.5245804624255470
  Basis Set: (AUG-CC-PVTZ AUX)
    Blend: AUG-CC-PVTZ-RI
    Molecular point group: c1

    Geometry (in Angstrom), charge = 0, multiplicity = 1:

       Center              X                  Y                   Z               Mass
    ------------   -----------------  -----------------  -----------------  -----------------
         S            1.247846524575    -0.286196460856    -0.000065599600    31.972071174400
         O           -0.834373475425     1.369539539144     0.000054400400    15.994914619570
         C           -1.433958475425    -0.970488460856     0.000087400400    12.000000000000
         C           -0.501351475425     0.141903239144    -0.000068999600    12.000000000000
         H           -1.267105475425    -1.592184460856    -0.883752599600     1.007825032230
         H           -1.269593475425    -1.589624460856     0.886202400400     1.007825032230
         H           -2.454883475425    -0.588076460856    -0.001818599600     1.007825032230
         H            1.690626524575     0.979369539144     0.000367400400     1.007825032230

  Basis Set: AUG-CC-PVTZ
    Blend: AUG-CC-PVTZ
  Basis Set: (AUG-CC-PVTZ AUX)
    Blend: AUG-CC-PVTZ-JKFIT
	 Reference Energy          =    -550.5245804624255470 [Eh]
	 Singles Energy            =      -0.0000000000000000 [Eh]
	 Same-Spin Energy          =      -0.2056001585351513 [Eh]
	 Opposite-Spin Energy      =      -0.6472678394374803 [Eh]
	 Correlation Energy        =      -0.8528679979726317 [Eh]
	 Total Energy              =    -551.3774484603982273 [Eh]

	 ================> DF-SCS-MP2 Energies <==================
	-----------------------------------------------------------
	 SCS Same-Spin Scale       =       0.3333333333333333 [-]
	 SCS Opposite-Spin Scale   =       1.2000000000000000 [-]
	 SCS Same-Spin Energy      =      -0.0685333861783838 [Eh]
	 SCS Opposite-Spin Energy  =      -0.7767214073249764 [Eh]
	 SCS Correlation Energy    =      -0.8452547935033602 [Eh]
	 SCS Total Energy          =    -551.3698352559289333 [Eh]
	-----------------------------------------------------------

  Dipole Moment: [D]
     X:    -0.0175      Y:    -2.0646      Z:     0.0005     Total:     2.0647

*** Psi4 exiting successfully. Buy a developer a beer!
