                               Psi4 1.3.2 release

  ==> Input File <==

--------------------------------------------------------------------------
#psi4
#
memory 32 gb

molecule  {
0 1
  S        1.2860020    -0.2606930    -0.0000810
  O       -0.7962180     1.3950430     0.0000390
  C       -1.3958030    -0.9449850     0.0000720
  C       -0.6396789     0.2824877    -0.0000621
  H       -1.2289500    -1.5666810    -0.8837680
  H       -1.2314380    -1.5641210     0.8861870
  H       -2.4167280    -0.5625730    -0.0018340
  H        1.7287820     1.0048730     0.0003520
units angstrom
no_reorient  #important for SAPT in psi4, default
symmetry c1  #important for SAPT in psi4, default
}

set PROPERTIES_ORIGIN ["COM"]
properties('MP2/aug-cc-pvtz', properties = ['dipole'])
--------------------------------------------------------------------------

    Molecular point group: c1
  Charge       = 0
  Multiplicity = 1
  Basis Set: AUG-CC-PVTZ
    Blend: AUG-CC-PVTZ
  Basis Set: (AUG-CC-PVTZ AUX)
    Blend: AUG-CC-PVTZ-JKFIT

    Orbital Energies [Eh]
    ---------------------

    Doubly Occupied:

       1A    -91.942192     2A    -20.602293     3A    -11.391567
       4A    -11.269188     5A     -8.943910     6A     -6.625094
       7A     -6.623995     8A     -6.623267     9A     -1.496632
      10A     -1.075865    11A     -0.948854    12A     -0.773715
      13A     -0.693204    14A     -0.677506    15A     -0.657934
      16A     -0.585748    17A     -0.569452    18A     -0.510945
      19A     -0.381033    20A     -0.365467

  @DF-RHF Final Energy:  -550.51321880784519

   => Energetics <=

    Nuclear Repulsion Energy =            152.6064420321338559
    One-Electron Energy =               -1060.7235994925781597
    Two-Electron Energy =                 357.6039386525991404
    Total Energy =                       -550.5132188078451918
  Basis Set: (AUG-CC-PVTZ AUX)
    Blend: AUG-CC-PVTZ-RI
    Molecular point group: c1

    Geometry (in Angstrom), charge = 0, multiplicity = 1:

       Center              X                  Y                   Z               Mass
    ------------   -----------------  -----------------  -----------------  -----------------
         S            1.275712874116    -0.304367554891    -0.000069120732    31.972071174400
         O           -0.806507125884     1.351368445109     0.000050879268    15.994914619570
         C           -1.406092125884    -0.988659554891     0.000083879268    12.000000000000
         C           -0.649968025884     0.238813145109    -0.000050220732    12.000000000000
         H           -1.239239125884    -1.610355554891    -0.883756120732     1.007825032230
         H           -1.241727125884    -1.607795554891     0.886198879268     1.007825032230
         H           -2.427017125884    -0.606247554891    -0.001822120732     1.007825032230
         H            1.718492874116     0.961198445109     0.000363879268     1.007825032230

  Basis Set: AUG-CC-PVTZ
    Blend: AUG-CC-PVTZ
  Basis Set: (AUG-CC-PVTZ AUX)
    Blend: AUG-CC-PVTZ-JKFIT
	 Reference Energy          =    -550.5132188078451918 [Eh]
	 Singles Energy            =      -0.0000000000000000 [Eh]
	 Same-Spin Energy          =      -0.2028659146956542 [Eh]
	 Opposite-Spin Energy      =      -0.6411853078347058 [Eh]
	 Correlation Energy        =      -0.8440512225303600 [Eh]
	 Total Energy              =    -551.3572700303755028 [Eh]

	 ================> DF-SCS-MP2 Energies <==================
	-----------------------------------------------------------
	 SCS Same-Spin Scale       =       0.3333333333333333 [-]
	 SCS Opposite-Spin Scale   =       1.2000000000000000 [-]
	 SCS Same-Spin Energy      =      -0.0676219715652181 [Eh]
	 SCS Opposite-Spin Energy  =      -0.7694223694016470 [Eh]
	 SCS Correlation Energy    =      -0.8370443409668651 [Eh]
	 SCS Total Energy          =    -551.3502631488120187 [Eh]
	-----------------------------------------------------------

  Dipole Moment: [D]
     X:    -2.1210      Y:    -1.2809      Z:     0.0006     Total:     2.4777

*** Psi4 exiting successfully. Buy a developer a beer!
