                               Psi4 1.3.2 release

  ==> Input File <==

--------------------------------------------------------------------------
#psi4
#
memory 32 gb

molecule  {
0 1
  S        1.2860020    -0.2606930    -0.0000810
  O       -0.7962180     1.3950430     0.0000390
  C       -1.3958030    -0.9449850     0.0000720
  C       -0.4577249     0.2364175     0.0226233
  H       -1.2289500    -1.5666810    -0.8837680
  H       -1.2314380    -1.5641210     0.8861870
  H       -2.4167280    -0.5625730    -0.0018340
  H        1.7287820     1.0048730     0.0003520
units angstrom
no_reorient  #important for SAPT in psi4, default
symmetry c1  #important for SAPT in psi4, default
}

set PROPERTIES_ORIGIN ["COM"]
properties('MP2/aug-cc-pvtz', properties = ['dipole'])
--------------------------------------------------------------------------

    Molecular point group: c1
  Charge       = 0
  Multiplicity = 1
  Basis Set: AUG-CC-PVTZ
    Blend: AUG-CC-PVTZ
  Basis Set: (AUG-CC-PVTZ AUX)
    Blend: AUG-CC-PVTZ-JKFIT

    Orbital Energies [Eh]
    ---------------------

    Doubly Occupied:

       1A    -91.980549     2A    -20.569412     3A    -11.378445
       4A    -11.254769     5A     -8.982695     6A     -6.663885
       7A     -6.662821     8A     -6.661987     9A     -1.411968
      10A     -1.058409    11A     -0.984463    12A     -0.756980
      13A     -0.659436    14A     -0.645126    15A     -0.623273
      16A     -0.561142    17A     -0.531932    18A     -0.529891
      19A     -0.418010    20A     -0.394292

  @DF-RHF Final Energy:  -550.53656140933708

   => Energetics <=

    Nuclear Repulsion Energy =            153.0246946213989645
    One-Electron Energy =               -1061.6635444188164001
    Two-Electron Energy =                 358.1022883880802965
    Total Energy =                       -550.5365614093370823
  Basis Set: (AUG-CC-PVTZ AUX)
    Blend: AUG-CC-PVTZ-RI
    Molecular point group: c1

    Geometry (in Angstrom), charge = 0, multiplicity = 1:

       Center              X                  Y                   Z               Mass
    ------------   -----------------  -----------------  -----------------  -----------------
         S            1.246982647197    -0.297093148721    -0.003651106782    31.972071174400
         O           -0.835237352803     1.358642851279    -0.003531106782    15.994914619570
         C           -1.434822352803    -0.981385148721    -0.003498106782    12.000000000000
         C           -0.496744252803     0.200017351279     0.019053193218    12.000000000000
         H           -1.267969352803    -1.603081148721    -0.887338106782     1.007825032230
         H           -1.270457352803    -1.600521148721     0.882616893218     1.007825032230
         H           -2.455747352803    -0.598973148721    -0.005404106782     1.007825032230
         H            1.689762647197     0.968472851279    -0.003218106782     1.007825032230

  Basis Set: AUG-CC-PVTZ
    Blend: AUG-CC-PVTZ
  Basis Set: (AUG-CC-PVTZ AUX)
    Blend: AUG-CC-PVTZ-JKFIT
	 Reference Energy          =    -550.5365614093370823 [Eh]
	 Singles Energy            =      -0.0000000000000000 [Eh]
	 Same-Spin Energy          =      -0.2037117333541232 [Eh]
	 Opposite-Spin Energy      =      -0.6435584975393391 [Eh]
	 Correlation Energy        =      -0.8472702308934623 [Eh]
	 Total Energy              =    -551.3838316402305963 [Eh]

	 ================> DF-SCS-MP2 Energies <==================
	-----------------------------------------------------------
	 SCS Same-Spin Scale       =       0.3333333333333333 [-]
	 SCS Opposite-Spin Scale   =       1.2000000000000000 [-]
	 SCS Same-Spin Energy      =      -0.0679039111180411 [Eh]
	 SCS Opposite-Spin Energy  =      -0.7722701970472069 [Eh]
	 SCS Correlation Energy    =      -0.8401741081652480 [Eh]
	 SCS Total Energy          =    -551.3767355175023113 [Eh]
	-----------------------------------------------------------

  Dipole Moment: [D]
     X:    -0.1333      Y:    -1.7558      Z:     0.0048     Total:     1.7609

*** Psi4 exiting successfully. Buy a developer a beer!
