                               Psi4 1.3.2 release

  ==> Input File <==

--------------------------------------------------------------------------
#psi4
#
memory 32 gb

molecule  {
0 1
  S        1.2860020    -0.2606930    -0.0000810
  O       -0.8767632     1.3678536     0.0000529
  C       -1.3958030    -0.9449850     0.0000720
  C       -0.4471900     0.2281920    -0.0000640
  H       -1.2289500    -1.5666810    -0.8837680
  H       -1.2314380    -1.5641210     0.8861870
  H       -2.4167280    -0.5625730    -0.0018340
  H        1.7287820     1.0048730     0.0003520
units angstrom
no_reorient  #important for SAPT in psi4, default
symmetry c1  #important for SAPT in psi4, default
}

set PROPERTIES_ORIGIN ["COM"]
properties('MP2/aug-cc-pvtz', properties = ['dipole'])
--------------------------------------------------------------------------

    Molecular point group: c1
  Charge       = 0
  Multiplicity = 1
  Basis Set: AUG-CC-PVTZ
    Blend: AUG-CC-PVTZ
  Basis Set: (AUG-CC-PVTZ AUX)
    Blend: AUG-CC-PVTZ-JKFIT

    Orbital Energies [Eh]
    ---------------------

    Doubly Occupied:

       1A    -91.987690     2A    -20.566430     3A    -11.377131
       4A    -11.249978     5A     -8.989685     6A     -6.670884
       7A     -6.669768     8A     -6.668938     9A     -1.402680
      10A     -1.059691    11A     -0.986242    12A     -0.755961
      13A     -0.659058    14A     -0.639441    15A     -0.619880
      16A     -0.557236    17A     -0.533032    18A     -0.523986
      19A     -0.421253    20A     -0.399328

  @DF-RHF Final Energy:  -550.53453190117932

   => Energetics <=

    Nuclear Repulsion Energy =            152.8299383131853517
    One-Electron Energy =               -1061.2523617981235020
    Two-Electron Energy =                 357.8878915837588579
    Total Energy =                       -550.5345319011792071
  Basis Set: (AUG-CC-PVTZ AUX)
    Blend: AUG-CC-PVTZ-RI
    Molecular point group: c1

    Geometry (in Angstrom), charge = 0, multiplicity = 1:

       Center              X                  Y                   Z               Mass
    ------------   -----------------  -----------------  -----------------  -----------------
         S            1.262271081442    -0.290071962321    -0.000071746176    31.972071174400
         O           -0.900494118558     1.338474637679     0.000062153824    15.994914619570
         C           -1.419533918558    -0.974363962321     0.000081253824    12.000000000000
         C           -0.470920918558     0.198813037679    -0.000054746176    12.000000000000
         H           -1.252680918558    -1.596059962321    -0.883758746176     1.007825032230
         H           -1.255168918558    -1.593499962321     0.886196253824     1.007825032230
         H           -2.440458918558    -0.591951962321    -0.001824746176     1.007825032230
         H            1.705051081442     0.975494037679     0.000361253824     1.007825032230

  Basis Set: AUG-CC-PVTZ
    Blend: AUG-CC-PVTZ
  Basis Set: (AUG-CC-PVTZ AUX)
    Blend: AUG-CC-PVTZ-JKFIT
	 Reference Energy          =    -550.5345319011793208 [Eh]
	 Singles Energy            =      -0.0000000000000000 [Eh]
	 Same-Spin Energy          =      -0.2040394778286036 [Eh]
	 Opposite-Spin Energy      =      -0.6443295040812185 [Eh]
	 Correlation Energy        =      -0.8483689819098221 [Eh]
	 Total Energy              =    -551.3829008830891780 [Eh]

	 ================> DF-SCS-MP2 Energies <==================
	-----------------------------------------------------------
	 SCS Same-Spin Scale       =       0.3333333333333333 [-]
	 SCS Opposite-Spin Scale   =       1.2000000000000000 [-]
	 SCS Same-Spin Energy      =      -0.0680131592762012 [Eh]
	 SCS Opposite-Spin Energy  =      -0.7731954048974622 [Eh]
	 SCS Correlation Energy    =      -0.8412085641736634 [Eh]
	 SCS Total Energy          =    -551.3757404653530330 [Eh]
	-----------------------------------------------------------

  Dipole Moment: [D]
     X:     0.2310      Y:    -1.7579      Z:     0.0004     Total:     1.7730

*** Psi4 exiting successfully. Buy a developer a beer!
