                               Psi4 1.3.2 release

  ==> Input File <==

--------------------------------------------------------------------------
#psi4
#
memory 32 gb

molecule  {
0 1
  S        1.2860020    -0.2606930    -0.0000810
  O       -0.6723368     1.4251342     0.0000172
  C       -1.3958030    -0.9449850     0.0000720
  C       -0.4471900     0.2281920    -0.0000640
  H       -1.2289500    -1.5666810    -0.8837680
  H       -1.2314380    -1.5641210     0.8861870
  H       -2.4167280    -0.5625730    -0.0018340
  H        1.7287820     1.0048730     0.0003520
units angstrom
no_reorient  #important for SAPT in psi4, default
symmetry c1  #important for SAPT in psi4, default
}

set PROPERTIES_ORIGIN ["COM"]
properties('MP2/aug-cc-pvtz', properties = ['dipole'])
--------------------------------------------------------------------------

    Molecular point group: c1
  Charge       = 0
  Multiplicity = 1
  Basis Set: AUG-CC-PVTZ
    Blend: AUG-CC-PVTZ
  Basis Set: (AUG-CC-PVTZ AUX)
    Blend: AUG-CC-PVTZ-JKFIT

    Orbital Energies [Eh]
    ---------------------

    Doubly Occupied:

       1A    -91.975069     2A    -20.568107     3A    -11.380646
       4A    -11.261145     5A     -8.977709     6A     -6.658898
       7A     -6.657921     8A     -6.657065     9A     -1.405322
      10A     -1.061267    11A     -0.985135    12A     -0.758420
      13A     -0.657066    14A     -0.644762    15A     -0.625269
      16A     -0.564522    17A     -0.531660    18A     -0.530240
      19A     -0.414815    20A     -0.389591

  @DF-RHF Final Energy:  -550.53331041769854

   => Energetics <=

    Nuclear Repulsion Energy =            153.4993873686441646
    One-Electron Energy =               -1062.6561359715631170
    Two-Electron Energy =                 358.6234381852203796
    Total Energy =                       -550.5333104176985444
  Basis Set: (AUG-CC-PVTZ AUX)
    Blend: AUG-CC-PVTZ-RI
    Molecular point group: c1

    Geometry (in Angstrom), charge = 0, multiplicity = 1:

       Center              X                  Y                   Z               Mass
    ------------   -----------------  -----------------  -----------------  -----------------
         S            1.219246653005    -0.302127475090    -0.000064232606    31.972071174400
         O           -0.739092146995     1.383699724910     0.000033967394    15.994914619570
         C           -1.462558346995    -0.986419475090     0.000088767394    12.000000000000
         C           -0.513945346995     0.186757524910    -0.000047232606    12.000000000000
         H           -1.295705346995    -1.608115475090    -0.883751232606     1.007825032230
         H           -1.298193346995    -1.605555475090     0.886203767394     1.007825032230
         H           -2.483483346995    -0.604007475090    -0.001817232606     1.007825032230
         H            1.662026653005     0.963438524910     0.000368767394     1.007825032230

  Basis Set: AUG-CC-PVTZ
    Blend: AUG-CC-PVTZ
  Basis Set: (AUG-CC-PVTZ AUX)
    Blend: AUG-CC-PVTZ-JKFIT
	 Reference Energy          =    -550.5333104176985444 [Eh]
	 Singles Energy            =      -0.0000000000000000 [Eh]
	 Same-Spin Energy          =      -0.2040060329125733 [Eh]
	 Opposite-Spin Energy      =      -0.6440046426324213 [Eh]
	 Correlation Energy        =      -0.8480106755449945 [Eh]
	 Total Energy              =    -551.3813210932435140 [Eh]

	 ================> DF-SCS-MP2 Energies <==================
	-----------------------------------------------------------
	 SCS Same-Spin Scale       =       0.3333333333333333 [-]
	 SCS Opposite-Spin Scale   =       1.2000000000000000 [-]
	 SCS Same-Spin Energy      =      -0.0680020109708578 [Eh]
	 SCS Opposite-Spin Energy  =      -0.7728055711589056 [Eh]
	 SCS Correlation Energy    =      -0.8408075821297634 [Eh]
	 SCS Total Energy          =    -551.3741179998282860 [Eh]
	-----------------------------------------------------------

  Dipole Moment: [D]
     X:    -0.4120      Y:    -1.8500      Z:     0.0005     Total:     1.8953

*** Psi4 exiting successfully. Buy a developer a beer!
