                               Psi4 1.3.2 release

  ==> Input File <==

--------------------------------------------------------------------------
#psi4
#
memory 32 gb

molecule  {
0 1
  S        1.3276098    -0.0768469    -0.0000986
  O       -0.7962180     1.3950430     0.0000390
  C       -1.3958030    -0.9449850     0.0000720
  C       -0.4471900     0.2281920    -0.0000640
  H       -1.2289500    -1.5666810    -0.8837680
  H       -1.2314380    -1.5641210     0.8861870
  H       -2.4167280    -0.5625730    -0.0018340
  H        1.7287820     1.0048730     0.0003520
units angstrom
no_reorient  #important for SAPT in psi4, default
symmetry c1  #important for SAPT in psi4, default
}

set PROPERTIES_ORIGIN ["COM"]
properties('MP2/aug-cc-pvtz', properties = ['dipole'])
--------------------------------------------------------------------------

    Molecular point group: c1
  Charge       = 0
  Multiplicity = 1
  Basis Set: AUG-CC-PVTZ
    Blend: AUG-CC-PVTZ
  Basis Set: (AUG-CC-PVTZ AUX)
    Blend: AUG-CC-PVTZ-JKFIT

    Orbital Energies [Eh]
    ---------------------

    Doubly Occupied:

       1A    -91.964104     2A    -20.564647     3A    -11.379926
       4A    -11.259741     5A     -8.973016     6A     -6.655118
       7A     -6.652933     8A     -6.651932     9A     -1.404680
      10A     -1.063413    11A     -1.008174    12A     -0.773399
      13A     -0.671725    14A     -0.643189    15A     -0.623635
      16A     -0.571505    17A     -0.537610    18A     -0.528141
      19A     -0.415862    20A     -0.392767

  @DF-RHF Final Energy:  -550.51089653546751

   => Energetics <=

    Nuclear Repulsion Energy =            153.9748461142427800
    One-Electron Energy =               -1063.5004511441072736
    Two-Electron Energy =                 359.0147084943969276
    Total Energy =                       -550.5108965354675092
  Basis Set: (AUG-CC-PVTZ AUX)
    Blend: AUG-CC-PVTZ-RI
    Molecular point group: c1

    Geometry (in Angstrom), charge = 0, multiplicity = 1:

       Center              X                  Y                   Z               Mass
    ------------   -----------------  -----------------  -----------------  -----------------
         S            1.269422826174    -0.189291324249    -0.000079016499    31.972071174400
         O           -0.854404973826     1.282598575751     0.000058583501    15.994914619570
         C           -1.453989973826    -1.057429424249     0.000091583501    12.000000000000
         C           -0.505376973826     0.115747575751    -0.000044416499    12.000000000000
         H           -1.287136973826    -1.679125424249    -0.883748416499     1.007825032230
         H           -1.289624973826    -1.676565424249     0.886206583501     1.007825032230
         H           -2.474914973826    -0.675017424249    -0.001814416499     1.007825032230
         H            1.670595026174     0.892428575751     0.000371583501     1.007825032230

  Basis Set: AUG-CC-PVTZ
    Blend: AUG-CC-PVTZ
  Basis Set: (AUG-CC-PVTZ AUX)
    Blend: AUG-CC-PVTZ-JKFIT
	 Reference Energy          =    -550.5108965354675092 [Eh]
	 Singles Energy            =      -0.0000000000000000 [Eh]
	 Same-Spin Energy          =      -0.2031653937994320 [Eh]
	 Opposite-Spin Energy      =      -0.6425284720833085 [Eh]
	 Correlation Energy        =      -0.8456938658827406 [Eh]
	 Total Energy              =    -551.3565904013502177 [Eh]

	 ================> DF-SCS-MP2 Energies <==================
	-----------------------------------------------------------
	 SCS Same-Spin Scale       =       0.3333333333333333 [-]
	 SCS Opposite-Spin Scale   =       1.2000000000000000 [-]
	 SCS Same-Spin Energy      =      -0.0677217979331440 [Eh]
	 SCS Opposite-Spin Energy  =      -0.7710341664999703 [Eh]
	 SCS Correlation Energy    =      -0.8387559644331143 [Eh]
	 SCS Total Energy          =    -551.3496524999005715 [Eh]
	-----------------------------------------------------------

  Dipole Moment: [D]
     X:    -0.2304      Y:    -1.8055      Z:     0.0005     Total:     1.8202

*** Psi4 exiting successfully. Buy a developer a beer!
