                               Psi4 1.4a3.dev225

  ==> Input File <==

--------------------------------------------------------------------------
#psi4
#
memory 32 gb

molecule  {
0 1
  S        1.2860020    -0.2606930    -0.0000810
  O       -0.7962180     1.3950430     0.0000390
  C       -1.3958030    -0.9449850     0.0000720
  C       -0.4664389     0.2336216    -0.0000638
  H       -1.2289500    -1.5666810    -0.8837680
  H       -1.2314380    -1.5641210     0.8861870
  H       -2.4167280    -0.5625730    -0.0018340
  H        1.7287820     1.0048730     0.0003520
units angstrom
no_reorient  #important for SAPT in psi4, default
symmetry c1  #important for SAPT in psi4, default
}

set PROPERTIES_ORIGIN ["COM"]
properties('MP2/aug-cc-pvtz', properties = ['dipole'])
--------------------------------------------------------------------------

    Molecular point group: c1
  Charge       = 0
  Multiplicity = 1
  Basis Set: AUG-CC-PVTZ
    Blend: AUG-CC-PVTZ
  Basis Set: (AUG-CC-PVTZ AUX)
    Blend: AUG-CC-PVTZ-JKFIT

    Orbital Energies [Eh]
    ---------------------

    Doubly Occupied:

       1A    -91.979512     2A    -20.570051     3A    -11.379001
       4A    -11.255238     5A     -8.981569     6A     -6.662758
       7A     -6.661701     8A     -6.660872     9A     -1.412452
      10A     -1.059214    11A     -0.984146    12A     -0.757400
      13A     -0.659917    14A     -0.646171    15A     -0.624579
      16A     -0.561098    17A     -0.531655    18A     -0.530231
      19A     -0.417584    20A     -0.393393

  @DF-RHF Final Energy:  -550.53656823477013

   => Energetics <=

    Nuclear Repulsion Energy =            152.9827257476265174
    One-Electron Energy =               -1061.5815030037017550
    Two-Electron Energy =                 358.0622090213050797
    Total Energy =                       -550.5365682347701295
  Basis Set: (AUG-CC-PVTZ AUX)
    Blend: AUG-CC-PVTZ-RI
    Molecular point group: c1

    Geometry (in Angstrom), charge = 0, multiplicity = 1:

       Center              X                  Y                   Z               Mass
    ------------   -----------------  -----------------  -----------------  -----------------
         S            1.248358572966    -0.296651680870    -0.000068852304    31.972071174400
         O           -0.833861427034     1.359084319130     0.000051147696    15.994914619570
         C           -1.433446427034    -0.980943680870     0.000084147696    12.000000000000
         C           -0.504082327034     0.197662919130    -0.000051652304    12.000000000000
         H           -1.266593427034    -1.602639680870    -0.883755852304     1.007825032230
         H           -1.269081427034    -1.600079680870     0.886199147696     1.007825032230
         H           -2.454371427034    -0.598531680870    -0.001821852304     1.007825032230
         H            1.691138572966     0.968914319130     0.000364147696     1.007825032230

  Basis Set: AUG-CC-PVTZ
    Blend: AUG-CC-PVTZ
  Basis Set: (AUG-CC-PVTZ AUX)
    Blend: AUG-CC-PVTZ-JKFIT
	 Reference Energy          =    -550.5365682347701295 [Eh]
	 Singles Energy            =      -0.0000000000000000 [Eh]
	 Same-Spin Energy          =      -0.2037291326816379 [Eh]
	 Opposite-Spin Energy      =      -0.6435746182198622 [Eh]
	 Correlation Energy        =      -0.8473037509015001 [Eh]
	 Total Energy              =    -551.3838719856715898 [Eh]

	 ================> DF-SCS-MP2 Energies <==================
	-----------------------------------------------------------
	 SCS Same-Spin Scale       =       0.3333333333333333 [-]
	 SCS Opposite-Spin Scale   =       1.2000000000000000 [-]
	 SCS Same-Spin Energy      =      -0.0679097108938793 [Eh]
	 SCS Opposite-Spin Energy  =      -0.7722895418638346 [Eh]
	 SCS Correlation Energy    =      -0.8401992527577139 [Eh]
	 SCS Total Energy          =    -551.3767674875278999 [Eh]
	-----------------------------------------------------------

  Dipole Moment: [D]
     X:    -0.2039      Y:    -1.7605      Z:     0.0005     Total:     1.7722

*** Psi4 exiting successfully. Buy a developer a beer!
