                               Psi4 1.3.2 release

  ==> Input File <==

--------------------------------------------------------------------------
#psi4
#
memory 32 gb

molecule  {
0 1
  S        1.2860020    -0.2606930    -0.0000810
  O       -0.7962180     1.3950430     0.0000390
  C       -1.3958030    -0.9449850     0.0000720
  C       -0.3865930     0.4066817    -0.0000031
  H       -1.2289500    -1.5666810    -0.8837680
  H       -1.2314380    -1.5641210     0.8861870
  H       -2.4167280    -0.5625730    -0.0018340
  H        1.7287820     1.0048730     0.0003520
units angstrom
no_reorient  #important for SAPT in psi4, default
symmetry c1  #important for SAPT in psi4, default
}

set PROPERTIES_ORIGIN ["COM"]
properties('MP2/aug-cc-pvtz', properties = ['dipole'])
--------------------------------------------------------------------------

    Molecular point group: c1
  Charge       = 0
  Multiplicity = 1
  Basis Set: AUG-CC-PVTZ
    Blend: AUG-CC-PVTZ
  Basis Set: (AUG-CC-PVTZ AUX)
    Blend: AUG-CC-PVTZ-JKFIT

    Orbital Energies [Eh]
    ---------------------

    Doubly Occupied:

       1A    -91.978134     2A    -20.583304     3A    -11.365473
       4A    -11.239974     5A     -8.980885     6A     -6.661964
       7A     -6.660762     8A     -6.659814     9A     -1.522761
      10A     -1.037399    11A     -0.959092    12A     -0.760067
      13A     -0.680402    14A     -0.667418    15A     -0.645130
      16A     -0.566480    17A     -0.557805    18A     -0.523206
      19A     -0.398862    20A     -0.385441

  @DF-RHF Final Energy:  -550.49439999166373

   => Energetics <=

    Nuclear Repulsion Energy =            154.3573269577348697
    One-Electron Energy =               -1064.0347044373852441
    Two-Electron Energy =                 359.1829774879867614
    Total Energy =                       -550.4943999916636130
  Basis Set: (AUG-CC-PVTZ AUX)
    Blend: AUG-CC-PVTZ-RI
    Molecular point group: c1

    Geometry (in Angstrom), charge = 0, multiplicity = 1:

       Center              X                  Y                   Z               Mass
    ------------   -----------------  -----------------  -----------------  -----------------
         S            1.235751041252    -0.323977576116    -0.000078436731    31.972071174400
         O           -0.846468958748     1.331758423884     0.000041563269    15.994914619570
         C           -1.446053958748    -1.008269576116     0.000074563269    12.000000000000
         C           -0.436843958748     0.343397123884    -0.000000536731    12.000000000000
         H           -1.279200958748    -1.629965576116    -0.883765436731     1.007825032230
         H           -1.281688958748    -1.627405576116     0.886189563269     1.007825032230
         H           -2.466978958748    -0.625857576116    -0.001831436731     1.007825032230
         H            1.678531041252     0.941588423884     0.000354563269     1.007825032230

  Basis Set: AUG-CC-PVTZ
    Blend: AUG-CC-PVTZ
  Basis Set: (AUG-CC-PVTZ AUX)
    Blend: AUG-CC-PVTZ-JKFIT
	 Reference Energy          =    -550.4943999916637267 [Eh]
	 Singles Energy            =      -0.0000000000000000 [Eh]
	 Same-Spin Energy          =      -0.2011296131176736 [Eh]
	 Opposite-Spin Energy      =      -0.6382427554589443 [Eh]
	 Correlation Energy        =      -0.8393723685766179 [Eh]
	 Total Energy              =    -551.3337723602403457 [Eh]

	 ================> DF-SCS-MP2 Energies <==================
	-----------------------------------------------------------
	 SCS Same-Spin Scale       =       0.3333333333333333 [-]
	 SCS Opposite-Spin Scale   =       1.2000000000000000 [-]
	 SCS Same-Spin Energy      =      -0.0670432043725579 [Eh]
	 SCS Opposite-Spin Energy  =      -0.7658913065507331 [Eh]
	 SCS Correlation Energy    =      -0.8329345109232910 [Eh]
	 SCS Total Energy          =    -551.3273345025870640 [Eh]
	-----------------------------------------------------------

  Dipole Moment: [D]
     X:     0.1068      Y:    -0.8297      Z:     0.0004     Total:     0.8366

*** Psi4 exiting successfully. Buy a developer a beer!
