                               Psi4 1.3.2 release

  ==> Input File <==

--------------------------------------------------------------------------
#psi4
#
memory 32 gb

molecule  {
0 1
  S        1.2860020    -0.2606930    -0.0000810
  O       -0.7962180     1.3950430     0.0000390
  C       -1.3958030    -0.9449850     0.0000720
  C       -0.4290723     0.2883817    -0.0000436
  H       -1.2289500    -1.5666810    -0.8837680
  H       -1.2314380    -1.5641210     0.8861870
  H       -2.4167280    -0.5625730    -0.0018340
  H        1.7287820     1.0048730     0.0003520
units angstrom
no_reorient  #important for SAPT in psi4, default
symmetry c1  #important for SAPT in psi4, default
}

set PROPERTIES_ORIGIN ["COM"]
properties('MP2/aug-cc-pvtz', properties = ['dipole'])
--------------------------------------------------------------------------

    Molecular point group: c1
  Charge       = 0
  Multiplicity = 1
  Basis Set: AUG-CC-PVTZ
    Blend: AUG-CC-PVTZ
  Basis Set: (AUG-CC-PVTZ AUX)
    Blend: AUG-CC-PVTZ-JKFIT

    Orbital Energies [Eh]
    ---------------------

    Doubly Occupied:

       1A    -91.980201     2A    -20.572260     3A    -11.373644
       4A    -11.251492     5A     -8.982696     6A     -6.663870
       7A     -6.662750     8A     -6.661889     9A     -1.441944
      10A     -1.049624    11A     -0.978442    12A     -0.755225
      13A     -0.661581    14A     -0.651647    15A     -0.621234
      16A     -0.564942    17A     -0.543535    18A     -0.528118
      19A     -0.412192    20A     -0.396567

  @DF-RHF Final Energy:  -550.53541173757105

   => Energetics <=

    Nuclear Repulsion Energy =            153.4164719566324209
    One-Electron Energy =               -1062.3960657540108059
    Two-Electron Energy =                 358.4441820598073036
    Total Energy =                       -550.5354117375710530
  Basis Set: (AUG-CC-PVTZ AUX)
    Blend: AUG-CC-PVTZ-RI
    Molecular point group: c1

    Geometry (in Angstrom), charge = 0, multiplicity = 1:

       Center              X                  Y                   Z               Mass
    ------------   -----------------  -----------------  -----------------  -----------------
         S            1.242458450423    -0.305298207460    -0.000072041850    31.972071174400
         O           -0.839761549577     1.350437792540     0.000047958150    15.994914619570
         C           -1.439346549577    -0.989590207460     0.000080958150    12.000000000000
         C           -0.472615849577     0.243776492540    -0.000034641850    12.000000000000
         H           -1.272493549577    -1.611286207460    -0.883759041850     1.007825032230
         H           -1.274981549577    -1.608726207460     0.886195958150     1.007825032230
         H           -2.460271549577    -0.607178207460    -0.001825041850     1.007825032230
         H            1.685238450423     0.960267792540     0.000360958150     1.007825032230

  Basis Set: AUG-CC-PVTZ
    Blend: AUG-CC-PVTZ
  Basis Set: (AUG-CC-PVTZ AUX)
    Blend: AUG-CC-PVTZ-JKFIT
	 Reference Energy          =    -550.5354117375710530 [Eh]
	 Singles Energy            =      -0.0000000000000000 [Eh]
	 Same-Spin Energy          =      -0.2026881575646852 [Eh]
	 Opposite-Spin Energy      =      -0.6414941343849311 [Eh]
	 Correlation Energy        =      -0.8441822919496162 [Eh]
	 Total Energy              =    -551.3795940295207174 [Eh]

	 ================> DF-SCS-MP2 Energies <==================
	-----------------------------------------------------------
	 SCS Same-Spin Scale       =       0.3333333333333333 [-]
	 SCS Opposite-Spin Scale   =       1.2000000000000000 [-]
	 SCS Same-Spin Energy      =      -0.0675627191882284 [Eh]
	 SCS Opposite-Spin Energy  =      -0.7697929612619173 [Eh]
	 SCS Correlation Energy    =      -0.8373556804501457 [Eh]
	 SCS Total Energy          =    -551.3727674180212261 [Eh]
	-----------------------------------------------------------

  Dipole Moment: [D]
     X:    -0.0105      Y:    -1.5191      Z:     0.0004     Total:     1.5192

*** Psi4 exiting successfully. Buy a developer a beer!
