                               Psi4 1.3.2 release

  ==> Input File <==

--------------------------------------------------------------------------
#psi4
#
memory 32 gb

molecule  {
0 1
  S        1.2254050    -0.4391827    -0.0000986
  O       -0.7962180     1.3950430     0.0000390
  C       -1.3958030    -0.9449850     0.0000720
  C       -0.4471900     0.2281920    -0.0000640
  H       -1.2289500    -1.5666810    -0.8837680
  H       -1.2314380    -1.5641210     0.8861870
  H       -2.4167280    -0.5625730    -0.0018340
  H        1.7287820     1.0048730     0.0003520
units angstrom
no_reorient  #important for SAPT in psi4, default
symmetry c1  #important for SAPT in psi4, default
}

set PROPERTIES_ORIGIN ["COM"]
properties('MP2/aug-cc-pvtz', properties = ['dipole'])
--------------------------------------------------------------------------

    Molecular point group: c1
  Charge       = 0
  Multiplicity = 1
  Basis Set: AUG-CC-PVTZ
    Blend: AUG-CC-PVTZ
  Basis Set: (AUG-CC-PVTZ AUX)
    Blend: AUG-CC-PVTZ-JKFIT

    Orbital Energies [Eh]
    ---------------------

    Doubly Occupied:

       1A    -91.996946     2A    -20.570843     3A    -11.378849
       4A    -11.250379     5A     -8.995718     6A     -6.676675
       7A     -6.675415     8A     -6.674805     9A     -1.403895
      10A     -1.063258    11A     -0.969939    12A     -0.748653
      13A     -0.649756    14A     -0.639958    15A     -0.621800
      16A     -0.560351    17A     -0.526032    18A     -0.506652
      19A     -0.420873    20A     -0.398558

  @DF-RHF Final Energy:  -550.51425410997581

   => Energetics <=

    Nuclear Repulsion Energy =            152.5862813707494468
    One-Electron Energy =               -1060.7423617643496527
    Two-Electron Energy =                 357.6418262836243116
    Total Energy =                       -550.5142541099758091
  Basis Set: (AUG-CC-PVTZ AUX)
    Blend: AUG-CC-PVTZ-RI
    Molecular point group: c1

    Geometry (in Angstrom), charge = 0, multiplicity = 1:

       Center              X                  Y                   Z               Mass
    ------------   -----------------  -----------------  -----------------  -----------------
         S            1.210215037228    -0.399194397037    -0.000079016499    31.972071174400
         O           -0.811407962772     1.435031302963     0.000058583501    15.994914619570
         C           -1.410992962772    -0.904996697037     0.000091583501    12.000000000000
         C           -0.462379962772     0.268180302963    -0.000044416499    12.000000000000
         H           -1.244139962772    -1.526692697037    -0.883748416499     1.007825032230
         H           -1.246627962772    -1.524132697037     0.886206583501     1.007825032230
         H           -2.431917962772    -0.522584697037    -0.001814416499     1.007825032230
         H            1.713592037228     1.044861302963     0.000371583501     1.007825032230

  Basis Set: AUG-CC-PVTZ
    Blend: AUG-CC-PVTZ
  Basis Set: (AUG-CC-PVTZ AUX)
    Blend: AUG-CC-PVTZ-JKFIT
	 Reference Energy          =    -550.5142541099758091 [Eh]
	 Singles Energy            =      -0.0000000000000000 [Eh]
	 Same-Spin Energy          =      -0.2053631650969337 [Eh]
	 Opposite-Spin Energy      =      -0.6475159001958113 [Eh]
	 Correlation Energy        =      -0.8528790652927449 [Eh]
	 Total Energy              =    -551.3671331752685774 [Eh]

	 ================> DF-SCS-MP2 Energies <==================
	-----------------------------------------------------------
	 SCS Same-Spin Scale       =       0.3333333333333333 [-]
	 SCS Opposite-Spin Scale   =       1.2000000000000000 [-]
	 SCS Same-Spin Energy      =      -0.0684543883656445 [Eh]
	 SCS Opposite-Spin Energy  =      -0.7770190802349736 [Eh]
	 SCS Correlation Energy    =      -0.8454734686006181 [Eh]
	 SCS Total Energy          =    -551.3597275785764396 [Eh]
	-----------------------------------------------------------

  Dipole Moment: [D]
     X:     0.0856      Y:    -1.8042      Z:     0.0005     Total:     1.8062

*** Psi4 exiting successfully. Buy a developer a beer!
