                               Psi4 1.3.2 release

  ==> Input File <==

--------------------------------------------------------------------------
#psi4
#
memory 32 gb

molecule  {
0 1
  S        1.2860020    -0.2606930    -0.0000810
  O       -0.7962180     1.3950430     0.0000390
  C       -1.3958030    -0.9449850     0.0000720
  C       -0.4088651     0.3479025    -0.0000233
  H       -1.2289500    -1.5666810    -0.8837680
  H       -1.2314380    -1.5641210     0.8861870
  H       -2.4167280    -0.5625730    -0.0018340
  H        1.7287820     1.0048730     0.0003520
units angstrom
no_reorient  #important for SAPT in psi4, default
symmetry c1  #important for SAPT in psi4, default
}

set PROPERTIES_ORIGIN ["COM"]
properties('MP2/aug-cc-pvtz', properties = ['dipole'])
--------------------------------------------------------------------------

    Molecular point group: c1
  Charge       = 0
  Multiplicity = 1
  Basis Set: AUG-CC-PVTZ
    Blend: AUG-CC-PVTZ
  Basis Set: (AUG-CC-PVTZ AUX)
    Blend: AUG-CC-PVTZ-JKFIT

    Orbital Energies [Eh]
    ---------------------

    Doubly Occupied:

       1A    -91.978515     2A    -20.577450     3A    -11.369114
       4A    -11.246807     5A     -8.981186     6A     -6.662320
       7A     -6.661154     8A     -6.660256     9A     -1.481998
      10A     -1.042052    11A     -0.969350    12A     -0.756052
      13A     -0.665358    14A     -0.664188    15A     -0.628216
      16A     -0.567177    17A     -0.554930    18A     -0.524731
      19A     -0.400592    20A     -0.397532

  @DF-RHF Final Energy:  -550.52193810283859

   => Energetics <=

    Nuclear Repulsion Energy =            153.8595464987107277
    One-Electron Energy =               -1063.1850128790565577
    Two-Electron Energy =                 358.8035282775071551
    Total Energy =                       -550.5219381028387033
  Basis Set: (AUG-CC-PVTZ AUX)
    Blend: AUG-CC-PVTZ-RI
    Molecular point group: c1

    Geometry (in Angstrom), charge = 0, multiplicity = 1:

       Center              X                  Y                   Z               Mass
    ------------   -----------------  -----------------  -----------------  -----------------
         S            1.239267767935    -0.314696440477    -0.000075247186    31.972071174400
         O           -0.842952232065     1.341039559523     0.000044752814    15.994914619570
         C           -1.442537232065    -0.998988440477     0.000077752814    12.000000000000
         C           -0.455599332065     0.293899059523    -0.000017547186    12.000000000000
         H           -1.275684232065    -1.620684440477    -0.883762247186     1.007825032230
         H           -1.278172232065    -1.618124440477     0.886192752814     1.007825032230
         H           -2.463462232065    -0.616576440477    -0.001828247186     1.007825032230
         H            1.682047767935     0.950869559523     0.000357752814     1.007825032230

  Basis Set: AUG-CC-PVTZ
    Blend: AUG-CC-PVTZ
  Basis Set: (AUG-CC-PVTZ AUX)
    Blend: AUG-CC-PVTZ-JKFIT
	 Reference Energy          =    -550.5219381028385897 [Eh]
	 Singles Energy            =      -0.0000000000000000 [Eh]
	 Same-Spin Energy          =      -0.2017462794387107 [Eh]
	 Opposite-Spin Energy      =      -0.6395626786126821 [Eh]
	 Correlation Energy        =      -0.8413089580513928 [Eh]
	 Total Energy              =    -551.3632470608899894 [Eh]

	 ================> DF-SCS-MP2 Energies <==================
	-----------------------------------------------------------
	 SCS Same-Spin Scale       =       0.3333333333333333 [-]
	 SCS Opposite-Spin Scale   =       1.2000000000000000 [-]
	 SCS Same-Spin Energy      =      -0.0672487598129035 [Eh]
	 SCS Opposite-Spin Energy  =      -0.7674752143352185 [Eh]
	 SCS Correlation Energy    =      -0.8347239741481220 [Eh]
	 SCS Total Energy          =    -551.3566620769867086 [Eh]
	-----------------------------------------------------------

  Dipole Moment: [D]
     X:     0.0265      Y:    -1.1939      Z:     0.0004     Total:     1.1942

*** Psi4 exiting successfully. Buy a developer a beer!
