                               Psi4 1.3.2 release

  ==> Input File <==

--------------------------------------------------------------------------
#psi4
#
memory 32 gb

molecule  {
0 1
  S        1.2860020    -0.2606930    -0.0000810
  O       -0.7962180     1.3950430     0.0000390
  C       -1.3958030    -0.9449850     0.0000720
  C       -0.4269902     0.2106715    -0.0454315
  H       -1.2289500    -1.5666810    -0.8837680
  H       -1.2314380    -1.5641210     0.8861870
  H       -2.4167280    -0.5625730    -0.0018340
  H        1.7287820     1.0048730     0.0003520
units angstrom
no_reorient  #important for SAPT in psi4, default
symmetry c1  #important for SAPT in psi4, default
}

set PROPERTIES_ORIGIN ["COM"]
properties('MP2/aug-cc-pvtz', properties = ['dipole'])
--------------------------------------------------------------------------

    Molecular point group: c1
  Charge       = 0
  Multiplicity = 1
  Basis Set: AUG-CC-PVTZ
    Blend: AUG-CC-PVTZ
  Basis Set: (AUG-CC-PVTZ AUX)
    Blend: AUG-CC-PVTZ-JKFIT

    Orbital Energies [Eh]
    ---------------------

    Doubly Occupied:

       1A    -91.987043     2A    -20.563140     3A    -11.379000
       4A    -11.254263     5A     -8.989510     6A     -6.670730
       7A     -6.669655     8A     -6.668818     9A     -1.385707
      10A     -1.064070    11A     -0.989464    12A     -0.756909
      13A     -0.655721    14A     -0.634614    15A     -0.619479
      16A     -0.558908    17A     -0.533056    18A     -0.518746
      19A     -0.422715    20A     -0.397507

  @DF-RHF Final Energy:  -550.53183205300047

   => Energetics <=

    Nuclear Repulsion Energy =            153.0269569360862931
    One-Electron Energy =               -1061.6794635805310918
    Two-Electron Energy =                 358.1206745914442990
    Total Energy =                       -550.5318320530004712
  Basis Set: (AUG-CC-PVTZ AUX)
    Blend: AUG-CC-PVTZ-RI
    Molecular point group: c1

    Geometry (in Angstrom), charge = 0, multiplicity = 1:

       Center              X                  Y                   Z               Mass
    ------------   -----------------  -----------------  -----------------  -----------------
         S            1.242129690377    -0.293027899140     0.007094630311    31.972071174400
         O           -0.840090309623     1.362708100860     0.007214630311    15.994914619570
         C           -1.439675309623    -0.977319899140     0.007247630311    12.000000000000
         C           -0.470862509623     0.178336600860    -0.038255869689    12.000000000000
         H           -1.272822309623    -1.599015899140    -0.876592369689     1.007825032230
         H           -1.275310309623    -1.596455899140     0.893362630311     1.007825032230
         H           -2.460600309623    -0.594907899140     0.005341630311     1.007825032230
         H            1.684909690377     0.972538100860     0.007527630311     1.007825032230

  Basis Set: AUG-CC-PVTZ
    Blend: AUG-CC-PVTZ
  Basis Set: (AUG-CC-PVTZ AUX)
    Blend: AUG-CC-PVTZ-JKFIT
	 Reference Energy          =    -550.5318320530004712 [Eh]
	 Singles Energy            =      -0.0000000000000000 [Eh]
	 Same-Spin Energy          =      -0.2046290633542368 [Eh]
	 Opposite-Spin Energy      =      -0.6454189258707776 [Eh]
	 Correlation Energy        =      -0.8500479892250143 [Eh]
	 Total Energy              =    -551.3818800422254753 [Eh]

	 ================> DF-SCS-MP2 Energies <==================
	-----------------------------------------------------------
	 SCS Same-Spin Scale       =       0.3333333333333333 [-]
	 SCS Opposite-Spin Scale   =       1.2000000000000000 [-]
	 SCS Same-Spin Energy      =      -0.0682096877847456 [Eh]
	 SCS Opposite-Spin Energy  =      -0.7745027110449332 [Eh]
	 SCS Correlation Energy    =      -0.8427123988296787 [Eh]
	 SCS Total Energy          =    -551.3745444518301611 [Eh]
	-----------------------------------------------------------

  Dipole Moment: [D]
     X:     0.1924      Y:    -1.9085      Z:    -0.0035     Total:     1.9182

*** Psi4 exiting successfully. Buy a developer a beer!
