                               Psi4 1.3.2 release

  ==> Input File <==

--------------------------------------------------------------------------
#psi4
#
memory 32 gb

molecule  {
0 1
 Br       -0.9229800     1.5996990    -0.0468890
 Br       -0.9241640    -1.5990150    -0.0468890
 Br        1.8471120    -0.0006830    -0.0469030
  C        0.0952968    -0.1648782     0.6097090
  H        0.0001970     0.0000000     1.6336600
units angstrom
no_reorient  #important for SAPT in psi4, default
symmetry c1  #important for SAPT in psi4, default
}

set PROPERTIES_ORIGIN ["COM"]
properties('MP2/aug-cc-pvtz', properties = ['dipole'])
--------------------------------------------------------------------------

    Molecular point group: c1
  Charge       = 0
  Multiplicity = 1
  Basis Set: AUG-CC-PVTZ
    Blend: AUG-CC-PVTZ
  Basis Set: (AUG-CC-PVTZ AUX)
    Blend: AUG-CC-PVTZ-JKFIT

    Orbital Energies [Eh]
    ---------------------

    Doubly Occupied:

       1A   -490.060088     2A   -490.060071     3A   -490.027251
       4A    -65.200010     5A    -65.199992     6A    -65.166698
       7A    -58.555400     8A    -58.555383     9A    -58.553750
      10A    -58.553732    11A    -58.553727    12A    -58.553709
      13A    -58.522096    14A    -58.520480    15A    -58.520459
      16A    -11.423932    17A     -9.873195    18A     -9.873177
      19A     -9.838842    20A     -7.485422    21A     -7.485404
      22A     -7.477454    23A     -7.477436    24A     -7.477367
      25A     -7.477350    26A     -7.450409    27A     -7.443250
      28A     -7.443176    29A     -3.229542    30A     -3.229513
      31A     -3.225302    32A     -3.225284    33A     -3.225167
      34A     -3.225150    35A     -3.215032    36A     -3.215027
      37A     -3.215013    38A     -3.215009    39A     -3.194043
      40A     -3.190655    41A     -3.190537    42A     -3.181174
      43A     -3.181172    44A     -1.158899    45A     -1.044106
      46A     -0.998008    47A     -0.865800    48A     -0.652997
      49A     -0.583127    50A     -0.555142    51A     -0.463011
      52A     -0.455300    53A     -0.432629    54A     -0.424759
      55A     -0.404340    56A     -0.401491

  @DF-RHF Final Energy: -7755.81126605436839

   => Energetics <=

    Nuclear Repulsion Energy =            803.4742535935595242
    One-Electron Energy =              -12403.7180579850555660
    Two-Electron Energy =                3844.4325383371274256
    Total Energy =                      -7755.8112660543683887
  Basis Set: (AUG-CC-PVTZ AUX)
    Blend: AUG-CC-PVTZ-RI
    Molecular point group: c1

    Geometry (in Angstrom), charge = 0, multiplicity = 1:

       Center              X                  Y                   Z               Mass
    ------------   -----------------  -----------------  -----------------  -----------------
         BR          -0.927549273654     1.607620352507    -0.038323437451    78.918337600000
         BR          -0.928733273654    -1.591093647493    -0.038323437451    78.918337600000
         BR           1.842542726346     0.007238352507    -0.038337437451    78.918337600000
         C            0.090727526346    -0.156956847493     0.618274562549    12.000000000000
         H           -0.004372273654     0.007921352507     1.642225562549     1.007825032230

  Basis Set: AUG-CC-PVTZ
    Blend: AUG-CC-PVTZ
  Basis Set: (AUG-CC-PVTZ AUX)
    Blend: AUG-CC-PVTZ-JKFIT
	 Reference Energy          =   -7755.8112660543683887 [Eh]
	 Singles Energy            =      -0.0000000000000000 [Eh]
	 Same-Spin Energy          =      -0.3110645858887958 [Eh]
	 Opposite-Spin Energy      =      -0.7464374747097209 [Eh]
	 Correlation Energy        =      -1.0575020605985168 [Eh]
	 Total Energy              =   -7756.8687681149667696 [Eh]

	 ================> DF-SCS-MP2 Energies <==================
	-----------------------------------------------------------
	 SCS Same-Spin Scale       =       0.3333333333333333 [-]
	 SCS Opposite-Spin Scale   =       1.2000000000000000 [-]
	 SCS Same-Spin Energy      =      -0.1036881952962653 [Eh]
	 SCS Opposite-Spin Energy  =      -0.8957249696516650 [Eh]
	 SCS Correlation Energy    =      -0.9994131649479303 [Eh]
	 SCS Total Energy          =   -7756.8106792193166257 [Eh]
	-----------------------------------------------------------

  Dipole Moment: [D]
     X:     0.4817      Y:    -0.8341      Z:     0.8517     Total:     1.2857

*** Psi4 exiting successfully. Buy a developer a beer!
