                               Psi4 1.3.2 release

  ==> Input File <==

--------------------------------------------------------------------------
#psi4
#
memory 32 gb

molecule  {
0 1
 Br       -1.0584939     1.4761210    -0.1341846
 Br       -0.9241640    -1.5990150    -0.0468890
 Br        1.8471120    -0.0006830    -0.0469030
  C        0.0001530    -0.0000030     0.5483590
  H        0.0001970     0.0000000     1.6336600
units angstrom
no_reorient  #important for SAPT in psi4, default
symmetry c1  #important for SAPT in psi4, default
}

set PROPERTIES_ORIGIN ["COM"]
properties('MP2/aug-cc-pvtz', properties = ['dipole'])
--------------------------------------------------------------------------

    Molecular point group: c1
  Charge       = 0
  Multiplicity = 1
  Basis Set: AUG-CC-PVTZ
    Blend: AUG-CC-PVTZ
  Basis Set: (AUG-CC-PVTZ AUX)
    Blend: AUG-CC-PVTZ-JKFIT

    Orbital Energies [Eh]
    ---------------------

    Doubly Occupied:

       1A   -490.051647     2A   -490.049406     3A   -490.046015
       4A    -65.191335     5A    -65.189173     6A    -65.185887
       7A    -58.546755     8A    -58.545085     9A    -58.545074
      10A    -58.544589    11A    -58.542915    12A    -58.542891
      13A    -58.541280    14A    -58.539630    15A    -58.539609
      16A    -11.419722    17A     -9.864083    18A     -9.862020
      19A     -9.858837    20A     -7.476142    21A     -7.474111
      22A     -7.470890    23A     -7.468352    24A     -7.468298
      25A     -7.466289    26A     -7.466199    27A     -7.463143
      28A     -7.463074    29A     -3.220135    30A     -3.218110
      31A     -3.216098    32A     -3.216051    33A     -3.214845
      34A     -3.214093    35A     -3.213965    36A     -3.210869
      37A     -3.210754    38A     -3.206006    39A     -3.206004
      40A     -3.203892    41A     -3.203888    42A     -3.200796
      43A     -3.200793    44A     -1.152529    45A     -1.029234
      46A     -1.019926    47A     -0.852041    48A     -0.641058
      49A     -0.573806    50A     -0.565418    51A     -0.461116
      52A     -0.451675    53A     -0.433833    54A     -0.425387
      55A     -0.417468    56A     -0.403758

  @DF-RHF Final Energy: -7755.82396421137764

   => Energetics <=

    Nuclear Repulsion Energy =            808.8270227464473692
    One-Electron Energy =              -12414.4899766143735178
    Two-Electron Energy =                3849.8389896565486197
    Total Energy =                      -7755.8239642113776426
  Basis Set: (AUG-CC-PVTZ AUX)
    Blend: AUG-CC-PVTZ-RI
    Molecular point group: c1

    Geometry (in Angstrom), charge = 0, multiplicity = 1:

       Center              X                  Y                   Z               Mass
    ------------   -----------------  -----------------  -----------------  -----------------
         BR          -1.015673187969     1.515168151651    -0.095088380057    78.918337600000
         BR          -0.881343287969    -1.559967848349    -0.007792780057    78.918337600000
         BR           1.889932712031     0.038364151651    -0.007806780057    78.918337600000
         C            0.042973712031     0.039044151651     0.587455219943    12.000000000000
         H            0.043017712031     0.039047151651     1.672756219943     1.007825032230

  Basis Set: AUG-CC-PVTZ
    Blend: AUG-CC-PVTZ
  Basis Set: (AUG-CC-PVTZ AUX)
    Blend: AUG-CC-PVTZ-JKFIT
	 Reference Energy          =   -7755.8239642113776426 [Eh]
	 Singles Energy            =      -0.0000000000000000 [Eh]
	 Same-Spin Energy          =      -0.3109401832720794 [Eh]
	 Opposite-Spin Energy      =      -0.7456623699570795 [Eh]
	 Correlation Energy        =      -1.0566025532291587 [Eh]
	 Total Energy              =   -7756.8805667646065558 [Eh]

	 ================> DF-SCS-MP2 Energies <==================
	-----------------------------------------------------------
	 SCS Same-Spin Scale       =       0.3333333333333333 [-]
	 SCS Opposite-Spin Scale   =       1.2000000000000000 [-]
	 SCS Same-Spin Energy      =      -0.1036467277573598 [Eh]
	 SCS Opposite-Spin Energy  =      -0.8947948439484953 [Eh]
	 SCS Correlation Energy    =      -0.9984415717058551 [Eh]
	 SCS Total Energy          =   -7756.8224057830839229 [Eh]
	-----------------------------------------------------------

  Dipole Moment: [D]
     X:     0.0521      Y:     0.0676      Z:     0.8646     Total:     0.8689

*** Psi4 exiting successfully. Buy a developer a beer!
