                               Psi4 1.4a3.dev225

  ==> Input File <==

--------------------------------------------------------------------------
#psi4
#
memory 32 gb

molecule  {
0 1
 Br       -0.9203150     1.6009260    -0.0468510
 Br       -0.9262960    -1.5974730    -0.0468510
 Br        1.8466090    -0.0034530    -0.0468510
  C        0.0237282    -0.0412629     0.5630074
  H       -0.0000030     0.0000000     1.6332140
units angstrom
no_reorient  #important for SAPT in psi4, default
symmetry c1  #important for SAPT in psi4, default
}

set PROPERTIES_ORIGIN ["COM"]
properties('MP2/aug-cc-pvtz', properties = ['dipole'])
--------------------------------------------------------------------------

    Molecular point group: c1
  Charge       = 0
  Multiplicity = 1
  Basis Set: AUG-CC-PVTZ
    Blend: AUG-CC-PVTZ
  Basis Set: (AUG-CC-PVTZ AUX)
    Blend: AUG-CC-PVTZ-JKFIT

    Orbital Energies [Eh]
    ---------------------

    Doubly Occupied:

       1A   -490.051921     2A   -490.051920     3A   -490.044678
       4A    -65.191721     5A    -65.191720     6A    -65.184277
       7A    -58.547127     8A    -58.547126     9A    -58.545462
      10A    -58.545461    11A    -58.545459    12A    -58.545458
      13A    -58.539705    14A    -58.538026    15A    -58.538018
      16A    -11.419427    17A     -9.864635    18A     -9.864631
      19A     -9.856826    20A     -7.476737    21A     -7.476734
      22A     -7.468892    23A     -7.468890    24A     -7.468876
      25A     -7.468874    26A     -7.468778    27A     -7.461086
      28A     -7.461068    29A     -3.220757    30A     -3.220735
      31A     -3.216645    32A     -3.216642    33A     -3.216622
      34A     -3.216619    35A     -3.212688    36A     -3.208808
      37A     -3.208755    38A     -3.206554    39A     -3.206552
      40A     -3.206550    41A     -3.206548    42A     -3.198793
      43A     -3.198792    44A     -1.151839    45A     -1.029967
      46A     -1.019163    47A     -0.855013    48A     -0.641778
      49A     -0.572490    50A     -0.566019    51A     -0.457718
      52A     -0.453913    53A     -0.432604    54A     -0.424587
      55A     -0.418754    56A     -0.407177

  @DF-RHF Final Energy: -7755.82536854109821

   => Energetics <=

    Nuclear Repulsion Energy =            804.6953563431623024
    One-Electron Energy =              -12406.1882175931805250
    Two-Electron Energy =                3845.6674927089206903
    Total Energy =                      -7755.8253685410982143
  Basis Set: (AUG-CC-PVTZ AUX)
    Blend: AUG-CC-PVTZ-RI
    Molecular point group: c1

    Geometry (in Angstrom), charge = 0, multiplicity = 1:

       Center              X                  Y                   Z               Mass
    ------------   -----------------  -----------------  -----------------  -----------------
         BR          -0.921454391041     1.602908499896    -0.036080276958    78.918337600000
         BR          -0.927435391041    -1.595490500104    -0.036080276958    78.918337600000
         BR           1.845469608959    -0.001470500104    -0.036080276958    78.918337600000
         C            0.022588808959    -0.039280400104     0.573778123042    12.000000000000
         H           -0.001142391041     0.001982499896     1.643984723042     1.007825032230

  Basis Set: AUG-CC-PVTZ
    Blend: AUG-CC-PVTZ
  Basis Set: (AUG-CC-PVTZ AUX)
    Blend: AUG-CC-PVTZ-JKFIT
	 Reference Energy          =   -7755.8253685410982143 [Eh]
	 Singles Energy            =      -0.0000000000000000 [Eh]
	 Same-Spin Energy          =      -0.3106302358665107 [Eh]
	 Opposite-Spin Energy      =      -0.7454009837265201 [Eh]
	 Correlation Energy        =      -1.0560312195930308 [Eh]
	 Total Energy              =   -7756.8813997606912380 [Eh]

	 ================> DF-SCS-MP2 Energies <==================
	-----------------------------------------------------------
	 SCS Same-Spin Scale       =       0.3333333333333333 [-]
	 SCS Opposite-Spin Scale   =       1.2000000000000000 [-]
	 SCS Same-Spin Energy      =      -0.1035434119555036 [Eh]
	 SCS Opposite-Spin Energy  =      -0.8944811804718241 [Eh]
	 SCS Correlation Energy    =      -0.9980245924273277 [Eh]
	 SCS Total Energy          =   -7756.8233931335253146 [Eh]
	-----------------------------------------------------------

  Dipole Moment: [D]
     X:     0.1199      Y:    -0.2085      Z:     0.8579     Total:     0.8910

*** Psi4 exiting successfully. Buy a developer a beer!
