                               Psi4 1.3.2 release

  ==> Input File <==

--------------------------------------------------------------------------
#psi4
#
memory 32 gb

molecule  {
0 1
 Br       -0.8754845     1.6370583    -0.0162918
 Br       -0.9241640    -1.5990150    -0.0468890
 Br        1.8471120    -0.0006830    -0.0469030
  C        0.0001530    -0.0000030     0.5483590
  H        0.0001970     0.0000000     1.6336600
units angstrom
no_reorient  #important for SAPT in psi4, default
symmetry c1  #important for SAPT in psi4, default
}

set PROPERTIES_ORIGIN ["COM"]
properties('MP2/aug-cc-pvtz', properties = ['dipole'])
--------------------------------------------------------------------------

    Molecular point group: c1
  Charge       = 0
  Multiplicity = 1
  Basis Set: AUG-CC-PVTZ
    Blend: AUG-CC-PVTZ
  Basis Set: (AUG-CC-PVTZ AUX)
    Blend: AUG-CC-PVTZ-JKFIT

    Orbital Energies [Eh]
    ---------------------

    Doubly Occupied:

       1A   -490.050703     2A   -490.049551     3A   -490.048852
       4A    -65.190412     5A    -65.189296     6A    -65.188618
       7A    -58.545831     8A    -58.544708     9A    -58.544158
      10A    -58.544153    11A    -58.544028    12A    -58.543042
      13A    -58.543036    14A    -58.542361    15A    -58.542356
      16A    -11.419218    17A     -9.863184    18A     -9.862105
      19A     -9.861450    20A     -7.475247    21A     -7.474159
      22A     -7.473510    23A     -7.467442    24A     -7.467413
      25A     -7.466378    26A     -7.466345    27A     -7.465712
      28A     -7.465701    29A     -3.219236    30A     -3.218134
      31A     -3.217485    32A     -3.215188    33A     -3.215164
      34A     -3.214106    35A     -3.214070    36A     -3.213459
      37A     -3.213413    38A     -3.205105    39A     -3.205104
      40A     -3.204050    41A     -3.204049    42A     -3.203389
      43A     -3.203388    44A     -1.151432    45A     -1.027055
      46A     -1.024127    47A     -0.850899    48A     -0.639196
      49A     -0.571566    50A     -0.568827    51A     -0.457079
      52A     -0.454169    53A     -0.430833    54A     -0.424346
      55A     -0.421559    56A     -0.407842

  @DF-RHF Final Energy: -7755.82634405662247

   => Energetics <=

    Nuclear Repulsion Energy =            803.9514786716447361
    One-Electron Energy =              -12404.6891651497171551
    Two-Electron Energy =                3844.9113424214501720
    Total Energy =                      -7755.8263440566224745
  Basis Set: (AUG-CC-PVTZ AUX)
    Blend: AUG-CC-PVTZ-RI
    Molecular point group: c1

    Geometry (in Angstrom), charge = 0, multiplicity = 1:

       Center              X                  Y                   Z               Mass
    ------------   -----------------  -----------------  -----------------  -----------------
         BR          -0.890489835024     1.625253594409    -0.014446533288    78.918337600000
         BR          -0.939169335024    -1.610819705591    -0.045043733288    78.918337600000
         BR           1.832106664976    -0.012487705591    -0.045057733288    78.918337600000
         C           -0.014852335024    -0.011807705591     0.550204266712    12.000000000000
         H           -0.014808335024    -0.011804705591     1.635505266712     1.007825032230

  Basis Set: AUG-CC-PVTZ
    Blend: AUG-CC-PVTZ
  Basis Set: (AUG-CC-PVTZ AUX)
    Blend: AUG-CC-PVTZ-JKFIT
	 Reference Energy          =   -7755.8263440566224745 [Eh]
	 Singles Energy            =      -0.0000000000000000 [Eh]
	 Same-Spin Energy          =      -0.3106674032902862 [Eh]
	 Opposite-Spin Energy      =      -0.7453332756058888 [Eh]
	 Correlation Energy        =      -1.0560006788961751 [Eh]
	 Total Energy              =   -7756.8823447355189273 [Eh]

	 ================> DF-SCS-MP2 Energies <==================
	-----------------------------------------------------------
	 SCS Same-Spin Scale       =       0.3333333333333333 [-]
	 SCS Opposite-Spin Scale   =       1.2000000000000000 [-]
	 SCS Same-Spin Energy      =      -0.1035558010967621 [Eh]
	 SCS Opposite-Spin Energy  =      -0.8943999307270666 [Eh]
	 SCS Correlation Energy    =      -0.9979557318238287 [Eh]
	 SCS Total Energy          =   -7756.8242997884462966 [Eh]
	-----------------------------------------------------------

  Dipole Moment: [D]
     X:    -0.0180      Y:    -0.0232      Z:     0.8574     Total:     0.8579

*** Psi4 exiting successfully. Buy a developer a beer!
