                               Psi4 1.3.2 release

  ==> Input File <==

--------------------------------------------------------------------------
#psi4
#
memory 32 gb

molecule  {
0 1
 Br       -0.9229800     1.5996990    -0.0468890
 Br       -0.9241640    -1.5990150    -0.0468890
 Br        1.8471120    -0.0006830    -0.0469030
  C        0.0001530    -0.0000030     0.5483590
  H        0.0001929    -0.0000003     1.5336600
units angstrom
no_reorient  #important for SAPT in psi4, default
symmetry c1  #important for SAPT in psi4, default
}

set PROPERTIES_ORIGIN ["COM"]
properties('MP2/aug-cc-pvtz', properties = ['dipole'])
--------------------------------------------------------------------------

    Molecular point group: c1
  Charge       = 0
  Multiplicity = 1
  Basis Set: AUG-CC-PVTZ
    Blend: AUG-CC-PVTZ
  Basis Set: (AUG-CC-PVTZ AUX)
    Blend: AUG-CC-PVTZ-JKFIT

    Orbital Energies [Eh]
    ---------------------

    Doubly Occupied:

       1A   -490.049731     2A   -490.049720     3A   -490.049719
       4A    -65.189483     5A    -65.189472     6A    -65.189472
       7A    -58.544892     8A    -58.544881     9A    -58.544881
      10A    -58.543230    11A    -58.543227    12A    -58.543219
      13A    -58.543219    14A    -58.543217    15A    -58.543216
      16A    -11.410003    17A     -9.862289    18A     -9.862281
      19A     -9.862276    20A     -7.474334    21A     -7.474324
      22A     -7.474322    23A     -7.466557    24A     -7.466556
      25A     -7.466548    26A     -7.466547    27A     -7.466546
      28A     -7.466545    29A     -3.218316    30A     -3.218286
      31A     -3.218280    32A     -3.214279    33A     -3.214270
      34A     -3.214267    35A     -3.214250    36A     -3.214241
      37A     -3.214238    38A     -3.204254    39A     -3.204254
      40A     -3.204245    41A     -3.204245    42A     -3.204242
      43A     -3.204241    44A     -1.157773    45A     -1.025714
      46A     -1.025691    47A     -0.874598    48A     -0.650092
      49A     -0.570760    50A     -0.570738    51A     -0.456150
      52A     -0.456126    53A     -0.435723    54A     -0.422499
      55A     -0.422476    56A     -0.407934

  @DF-RHF Final Energy: -7755.82087040090573

   => Energetics <=

    Nuclear Repulsion Energy =            805.7956751406966305
    One-Electron Energy =              -12408.2873261437271140
    Two-Electron Energy =                3846.6707806021245233
    Total Energy =                      -7755.8208704009066423
  Basis Set: (AUG-CC-PVTZ AUX)
    Blend: AUG-CC-PVTZ-RI
    Molecular point group: c1

    Geometry (in Angstrom), charge = 0, multiplicity = 1:

       Center              X                  Y                   Z               Mass
    ------------   -----------------  -----------------  -----------------  -----------------
         BR          -0.922978018211     1.599698829374    -0.034972328413    78.918337600000
         BR          -0.924162018211    -1.599015170626    -0.034972328413    78.918337600000
         BR           1.847113981789    -0.000683170626    -0.034986328413    78.918337600000
         C            0.000154981789    -0.000003170626     0.560275671587    12.000000000000
         H            0.000194881789    -0.000000470626     1.545576671587     1.007825032230

  Basis Set: AUG-CC-PVTZ
    Blend: AUG-CC-PVTZ
  Basis Set: (AUG-CC-PVTZ AUX)
    Blend: AUG-CC-PVTZ-JKFIT
	 Reference Energy          =   -7755.8208704009057328 [Eh]
	 Singles Energy            =      -0.0000000000000000 [Eh]
	 Same-Spin Energy          =      -0.3104197305364998 [Eh]
	 Opposite-Spin Energy      =      -0.7451279278368645 [Eh]
	 Correlation Energy        =      -1.0555476583733645 [Eh]
	 Total Energy              =   -7756.8764180592788762 [Eh]

	 ================> DF-SCS-MP2 Energies <==================
	-----------------------------------------------------------
	 SCS Same-Spin Scale       =       0.3333333333333333 [-]
	 SCS Opposite-Spin Scale   =       1.2000000000000000 [-]
	 SCS Same-Spin Energy      =      -0.1034732435121666 [Eh]
	 SCS Opposite-Spin Energy  =      -0.8941535134042374 [Eh]
	 SCS Correlation Energy    =      -0.9976267569164040 [Eh]
	 SCS Total Energy          =   -7756.8184971578220939 [Eh]
	-----------------------------------------------------------

  Dipole Moment: [D]
     X:     0.0002      Y:    -0.0000      Z:     0.8086     Total:     0.8086

*** Psi4 exiting successfully. Buy a developer a beer!
