                               Psi4 1.3.2 release

  ==> Input File <==

--------------------------------------------------------------------------
#psi4
#
memory 32 gb

molecule  {
0 1
 Br       -0.9229800     1.5996990    -0.0468890
 Br       -0.9241640    -1.5990150    -0.0468890
 Br        1.8471120    -0.0006830    -0.0469030
  C        0.0001530    -0.0000030     0.5483590
  H        0.0002051     0.0000006     1.8336600
units angstrom
no_reorient  #important for SAPT in psi4, default
symmetry c1  #important for SAPT in psi4, default
}

set PROPERTIES_ORIGIN ["COM"]
properties('MP2/aug-cc-pvtz', properties = ['dipole'])
--------------------------------------------------------------------------

    Molecular point group: c1
  Charge       = 0
  Multiplicity = 1
  Basis Set: AUG-CC-PVTZ
    Blend: AUG-CC-PVTZ
  Basis Set: (AUG-CC-PVTZ AUX)
    Blend: AUG-CC-PVTZ-JKFIT

    Orbital Energies [Eh]
    ---------------------

    Doubly Occupied:

       1A   -490.049769     2A   -490.049758     3A   -490.049757
       4A    -65.189482     5A    -65.189472     6A    -65.189471
       7A    -58.544906     8A    -58.544895     9A    -58.544894
      10A    -58.543216    11A    -58.543214    12A    -58.543205
      13A    -58.543205    14A    -58.543204    15A    -58.543203
      16A    -11.435455    17A     -9.862281    18A     -9.862272
      19A     -9.862267    20A     -7.474371    21A     -7.474362
      22A     -7.474359    23A     -7.466498    24A     -7.466490
      25A     -7.466489    26A     -7.466487    27A     -7.466480
      28A     -7.466478    29A     -3.218397    30A     -3.218370
      31A     -3.218364    32A     -3.214308    33A     -3.214299
      34A     -3.214296    35A     -3.214280    36A     -3.214270
      37A     -3.214269    38A     -3.204141    39A     -3.204139
      40A     -3.204131    41A     -3.204130    42A     -3.204128
      43A     -3.204126    44A     -1.144260    45A     -1.025090
      46A     -1.025068    47A     -0.817789    48A     -0.614500
      49A     -0.569360    50A     -0.569338    51A     -0.455063
      52A     -0.455039    53A     -0.422421    54A     -0.422398
      55A     -0.422061    56A     -0.407590

  @DF-RHF Final Energy: -7755.80382585454845

   => Energetics <=

    Nuclear Repulsion Energy =            803.2664661802602950
    One-Electron Energy =              -12403.3974537978301669
    Two-Electron Energy =                3844.3271617630207402
    Total Energy =                      -7755.8038258545484496
  Basis Set: (AUG-CC-PVTZ AUX)
    Blend: AUG-CC-PVTZ-RI
    Molecular point group: c1

    Geometry (in Angstrom), charge = 0, multiplicity = 1:

       Center              X                  Y                   Z               Mass
    ------------   -----------------  -----------------  -----------------  -----------------
         BR          -0.922978067439     1.599698825743    -0.036182866828    78.918337600000
         BR          -0.924162067439    -1.599015174257    -0.036182866828    78.918337600000
         BR           1.847113932561    -0.000683174257    -0.036196866828    78.918337600000
         C            0.000154932561    -0.000003174257     0.559065133172    12.000000000000
         H            0.000207032561     0.000000425743     1.844366133172     1.007825032230

  Basis Set: AUG-CC-PVTZ
    Blend: AUG-CC-PVTZ
  Basis Set: (AUG-CC-PVTZ AUX)
    Blend: AUG-CC-PVTZ-JKFIT
	 Reference Energy          =   -7755.8038258545484496 [Eh]
	 Singles Energy            =      -0.0000000000000000 [Eh]
	 Same-Spin Energy          =      -0.3114530318410327 [Eh]
	 Opposite-Spin Energy      =      -0.7468826514253237 [Eh]
	 Correlation Energy        =      -1.0583356832663564 [Eh]
	 Total Energy              =   -7756.8621615378151546 [Eh]

	 ================> DF-SCS-MP2 Energies <==================
	-----------------------------------------------------------
	 SCS Same-Spin Scale       =       0.3333333333333333 [-]
	 SCS Opposite-Spin Scale   =       1.2000000000000000 [-]
	 SCS Same-Spin Energy      =      -0.1038176772803442 [Eh]
	 SCS Opposite-Spin Energy  =      -0.8962591817103884 [Eh]
	 SCS Correlation Energy    =      -1.0000768589907327 [Eh]
	 SCS Total Energy          =   -7756.8039027135391734 [Eh]
	-----------------------------------------------------------

  Dipole Moment: [D]
     X:     0.0002      Y:    -0.0000      Z:     0.9067     Total:     0.9067

*** Psi4 exiting successfully. Buy a developer a beer!
