                               Psi4 1.3.2 release

  ==> Input File <==

--------------------------------------------------------------------------
#psi4
#
memory 32 gb

molecule  {
0 1
 Br       -0.9280306     1.6084538    -0.0145646
 Br       -0.9241640    -1.5990150    -0.0468890
 Br        1.8471120    -0.0006830    -0.0469030
  C        0.0001530    -0.0000030     0.5483590
  H        0.0001970     0.0000000     1.6336600
units angstrom
no_reorient  #important for SAPT in psi4, default
symmetry c1  #important for SAPT in psi4, default
}

set PROPERTIES_ORIGIN ["COM"]
properties('MP2/aug-cc-pvtz', properties = ['dipole'])
--------------------------------------------------------------------------

    Molecular point group: c1
  Charge       = 0
  Multiplicity = 1
  Basis Set: AUG-CC-PVTZ
    Blend: AUG-CC-PVTZ
  Basis Set: (AUG-CC-PVTZ AUX)
    Blend: AUG-CC-PVTZ-JKFIT

    Orbital Energies [Eh]
    ---------------------

    Doubly Occupied:

       1A   -490.049803     2A   -490.049792     3A   -490.049565
       4A    -65.189539     5A    -65.189529     6A    -65.189309
       7A    -58.544954     8A    -58.544943     9A    -58.544721
      10A    -58.543282    11A    -58.543280    12A    -58.543271
      13A    -58.543270    14A    -58.543053    15A    -58.543052
      16A    -11.419219    17A     -9.862339    18A     -9.862329
      19A     -9.862116    20A     -7.474400    21A     -7.474390
      22A     -7.474168    23A     -7.466594    24A     -7.466584
      25A     -7.466584    26A     -7.466574    27A     -7.466383
      28A     -7.466364    29A     -3.218389    30A     -3.218366
      31A     -3.218141    32A     -3.214340    33A     -3.214330
      34A     -3.214316    35A     -3.214305    36A     -3.214102
      37A     -3.214093    38A     -3.204270    39A     -3.204269
      40A     -3.204259    41A     -3.204259    42A     -3.204063
      43A     -3.204063    44A     -1.151387    45A     -1.025781
      46A     -1.025458    47A     -0.850873    48A     -0.639165
      49A     -0.570411    50A     -0.570013    51A     -0.455890
      52A     -0.455288    53A     -0.430763    54A     -0.423112
      55A     -0.422754    56A     -0.408112

  @DF-RHF Final Energy: -7755.82653153109732

   => Energetics <=

    Nuclear Repulsion Energy =            803.8081773248518402
    One-Electron Energy =              -12404.4014612870341807
    Two-Electron Energy =                3844.7667524310845693
    Total Energy =                      -7755.8265315310973165
  Basis Set: (AUG-CC-PVTZ AUX)
    Blend: AUG-CC-PVTZ-RI
    Molecular point group: c1

    Geometry (in Angstrom), charge = 0, multiplicity = 1:

       Center              X                  Y                   Z               Mass
    ------------   -----------------  -----------------  -----------------  -----------------
         BR          -0.926432781027     1.605687346886    -0.013265082023    78.918337600000
         BR          -0.922566181027    -1.601781453114    -0.045589482023    78.918337600000
         BR           1.848709818973    -0.003449453114    -0.045603482023    78.918337600000
         C            0.001750818973    -0.002769453114     0.549658517977    12.000000000000
         H            0.001794818973    -0.002766453114     1.634959517977     1.007825032230

  Basis Set: AUG-CC-PVTZ
    Blend: AUG-CC-PVTZ
  Basis Set: (AUG-CC-PVTZ AUX)
    Blend: AUG-CC-PVTZ-JKFIT
	 Reference Energy          =   -7755.8265315310973165 [Eh]
	 Singles Energy            =      -0.0000000000000000 [Eh]
	 Same-Spin Energy          =      -0.3106543486426299 [Eh]
	 Opposite-Spin Energy      =      -0.7453133345114599 [Eh]
	 Correlation Energy        =      -1.0559676831540896 [Eh]
	 Total Energy              =   -7756.8824992142517658 [Eh]

	 ================> DF-SCS-MP2 Energies <==================
	-----------------------------------------------------------
	 SCS Same-Spin Scale       =       0.3333333333333333 [-]
	 SCS Opposite-Spin Scale   =       1.2000000000000000 [-]
	 SCS Same-Spin Energy      =      -0.1035514495475433 [Eh]
	 SCS Opposite-Spin Energy  =      -0.8943760014137518 [Eh]
	 SCS Correlation Energy    =      -0.9979274509612951 [Eh]
	 SCS Total Energy          =   -7756.8244589820587862 [Eh]
	-----------------------------------------------------------

  Dipole Moment: [D]
     X:     0.0060      Y:    -0.0102      Z:     0.8573     Total:     0.8574

*** Psi4 exiting successfully. Buy a developer a beer!
