                               Psi4 1.3.2 release

  ==> Input File <==

--------------------------------------------------------------------------
#psi4
#
memory 32 gb

molecule  {
0 1
 Br       -0.9229800     1.5996990    -0.0468890
 Br       -0.9241640    -1.5990150    -0.0468890
 Br        1.8471120    -0.0006830    -0.0469030
  C       -0.0474189     0.0824346     0.5176840
  H        0.0001970     0.0000000     1.6336600
units angstrom
no_reorient  #important for SAPT in psi4, default
symmetry c1  #important for SAPT in psi4, default
}

set PROPERTIES_ORIGIN ["COM"]
properties('MP2/aug-cc-pvtz', properties = ['dipole'])
--------------------------------------------------------------------------

    Molecular point group: c1
  Charge       = 0
  Multiplicity = 1
  Basis Set: AUG-CC-PVTZ
    Blend: AUG-CC-PVTZ
  Basis Set: (AUG-CC-PVTZ AUX)
    Blend: AUG-CC-PVTZ-JKFIT

    Orbital Energies [Eh]
    ---------------------

    Doubly Occupied:

       1A   -490.058349     2A   -490.045021     3A   -490.045013
       4A    -65.198584     5A    -65.184666     6A    -65.184659
       7A    -58.553913     8A    -58.552330     9A    -58.552315
      10A    -58.540088    11A    -58.540081    12A    -58.538411
      13A    -58.538406    14A    -58.538404    15A    -58.538399
      16A    -11.420794    17A     -9.872184    18A     -9.857286
      19A     -9.857279    20A     -7.484441    21A     -7.476538
      22A     -7.476461    23A     -7.469257    24A     -7.469250
      25A     -7.461541    26A     -7.461538    27A     -7.461535
      28A     -7.461531    29A     -3.228528    30A     -3.224201
      31A     -3.224148    32A     -3.214192    33A     -3.214192
      34A     -3.213181    35A     -3.213162    36A     -3.209266
      37A     -3.209259    38A     -3.209222    39A     -3.209215
      40A     -3.199254    41A     -3.199252    42A     -3.199247
      43A     -3.199245    44A     -1.157520    45A     -1.035305
      46A     -1.016612    47A     -0.842744    48A     -0.639744
      49A     -0.577558    50A     -0.568287    51A     -0.459713
      52A     -0.450980    53A     -0.428262    54A     -0.425808
      55A     -0.418682    56A     -0.406566

  @DF-RHF Final Energy: -7755.82080284096992

   => Energetics <=

    Nuclear Repulsion Energy =            805.7093660587627255
    One-Electron Energy =              -12408.1970995163683256
    Two-Electron Energy =                3846.6669306166345450
    Total Energy =                      -7755.8208028409699182
  Basis Set: (AUG-CC-PVTZ AUX)
    Blend: AUG-CC-PVTZ-RI
    Molecular point group: c1

    Geometry (in Angstrom), charge = 0, multiplicity = 1:

       Center              X                  Y                   Z               Mass
    ------------   -----------------  -----------------  -----------------  -----------------
         BR          -0.920692415305     1.595738065992    -0.033902043102    78.918337600000
         BR          -0.921876415305    -1.602975934008    -0.033902043102    78.918337600000
         BR           1.849399584695    -0.004643934008    -0.033916043102    78.918337600000
         C           -0.045131315305     0.078473665992     0.530670956898    12.000000000000
         H            0.002484584695    -0.003960934008     1.646646956898     1.007825032230

  Basis Set: AUG-CC-PVTZ
    Blend: AUG-CC-PVTZ
  Basis Set: (AUG-CC-PVTZ AUX)
    Blend: AUG-CC-PVTZ-JKFIT
	 Reference Energy          =   -7755.8208028409699182 [Eh]
	 Singles Energy            =      -0.0000000000000000 [Eh]
	 Same-Spin Energy          =      -0.3113661575948349 [Eh]
	 Opposite-Spin Energy      =      -0.7459664586959838 [Eh]
	 Correlation Energy        =      -1.0573326162908185 [Eh]
	 Total Energy              =   -7756.8781354572611235 [Eh]

	 ================> DF-SCS-MP2 Energies <==================
	-----------------------------------------------------------
	 SCS Same-Spin Scale       =       0.3333333333333333 [-]
	 SCS Opposite-Spin Scale   =       1.2000000000000000 [-]
	 SCS Same-Spin Energy      =      -0.1037887191982783 [Eh]
	 SCS Opposite-Spin Energy  =      -0.8951597504351805 [Eh]
	 SCS Correlation Energy    =      -0.9989484696334587 [Eh]
	 SCS Total Energy          =   -7756.8197513106033512 [Eh]
	-----------------------------------------------------------

  Dipole Moment: [D]
     X:    -0.2479      Y:     0.4297      Z:     0.8624     Total:     0.9949

*** Psi4 exiting successfully. Buy a developer a beer!
