                               Psi4 1.3.2 release

  ==> Input File <==

--------------------------------------------------------------------------
#psi4
#
memory 32 gb

molecule  {
0 1
 Br       -0.9693508     1.5603907    -0.0767610
 Br       -0.9241640    -1.5990150    -0.0468890
 Br        1.8471120    -0.0006830    -0.0469030
  C        0.0001530    -0.0000030     0.5483590
  H        0.0001970     0.0000000     1.6336600
units angstrom
no_reorient  #important for SAPT in psi4, default
symmetry c1  #important for SAPT in psi4, default
}

set PROPERTIES_ORIGIN ["COM"]
properties('MP2/aug-cc-pvtz', properties = ['dipole'])
--------------------------------------------------------------------------

    Molecular point group: c1
  Charge       = 0
  Multiplicity = 1
  Basis Set: AUG-CC-PVTZ
    Blend: AUG-CC-PVTZ
  Basis Set: (AUG-CC-PVTZ AUX)
    Blend: AUG-CC-PVTZ-JKFIT

    Orbital Energies [Eh]
    ---------------------

    Doubly Occupied:

       1A   -490.050270     2A   -490.049532     3A   -490.048390
       4A    -65.189996     5A    -65.189281     6A    -65.188175
       7A    -58.545411     8A    -58.544695     9A    -58.543740
      10A    -58.543737    11A    -58.543581    12A    -58.543024
      13A    -58.543016    14A    -58.541918    15A    -58.541911
      16A    -11.419536    17A     -9.862784    18A     -9.862098
      19A     -9.861027    20A     -7.474841    21A     -7.474164
      22A     -7.473083    23A     -7.467045    24A     -7.467022
      25A     -7.466359    26A     -7.466330    27A     -7.465299
      28A     -7.465278    29A     -3.218825    30A     -3.218149
      31A     -3.217053    32A     -3.214777    33A     -3.214765
      34A     -3.214115    35A     -3.214064    36A     -3.213034
      37A     -3.212984    38A     -3.204716    39A     -3.204715
      40A     -3.204019    41A     -3.204017    42A     -3.202975
      43A     -3.202974    44A     -1.151803    45A     -1.026664
      46A     -1.023630    47A     -0.851430    48A     -0.640100
      49A     -0.571353    50A     -0.568559    51A     -0.457389
      52A     -0.454342    53A     -0.432268    54A     -0.423304
      55A     -0.420488    56A     -0.407031

  @DF-RHF Final Energy: -7755.82613077974383

   => Energetics <=

    Nuclear Repulsion Energy =            806.0161789728736039
    One-Electron Energy =              -12408.8424513141344505
    Two-Electron Energy =                3847.0001415615174665
    Total Energy =                      -7755.8261307797438349
  Basis Set: (AUG-CC-PVTZ AUX)
    Blend: AUG-CC-PVTZ-RI
    Molecular point group: c1

    Geometry (in Angstrom), charge = 0, multiplicity = 1:

       Center              X                  Y                   Z               Mass
    ------------   -----------------  -----------------  -----------------  -----------------
         BR          -0.954696909428     1.572810893486    -0.055809092839    78.918337600000
         BR          -0.909510109428    -1.586594806514    -0.025937092839    78.918337600000
         BR           1.861765890572     0.011737193486    -0.025951092839    78.918337600000
         C            0.014806890572     0.012417193486     0.569310907161    12.000000000000
         H            0.014850890572     0.012420193486     1.654611907161     1.007825032230

  Basis Set: AUG-CC-PVTZ
    Blend: AUG-CC-PVTZ
  Basis Set: (AUG-CC-PVTZ AUX)
    Blend: AUG-CC-PVTZ-JKFIT
	 Reference Energy          =   -7755.8261307797438349 [Eh]
	 Singles Energy            =      -0.0000000000000000 [Eh]
	 Same-Spin Energy          =      -0.3107496002818737 [Eh]
	 Opposite-Spin Energy      =      -0.7454057976352393 [Eh]
	 Correlation Energy        =      -1.0561553979171130 [Eh]
	 Total Energy              =   -7756.8822861776607169 [Eh]

	 ================> DF-SCS-MP2 Energies <==================
	-----------------------------------------------------------
	 SCS Same-Spin Scale       =       0.3333333333333333 [-]
	 SCS Opposite-Spin Scale   =       1.2000000000000000 [-]
	 SCS Same-Spin Energy      =      -0.1035832000939579 [Eh]
	 SCS Opposite-Spin Energy  =      -0.8944869571622871 [Eh]
	 SCS Correlation Energy    =      -0.9980701572562450 [Eh]
	 SCS Total Energy          =   -7756.8242009369996595 [Eh]
	-----------------------------------------------------------

  Dipole Moment: [D]
     X:     0.0180      Y:     0.0229      Z:     0.8620     Total:     0.8625

*** Psi4 exiting successfully. Buy a developer a beer!
