                               Psi4 1.3.2 release

  ==> Input File <==

--------------------------------------------------------------------------
#psi4
#
memory 32 gb

molecule  {
0 1
 Br       -0.9176482     1.5904569    -0.0790320
 Br       -0.9241640    -1.5990150    -0.0468890
 Br        1.8471120    -0.0006830    -0.0469030
  C        0.0001530    -0.0000030     0.5483590
  H        0.0001970     0.0000000     1.6336600
units angstrom
no_reorient  #important for SAPT in psi4, default
symmetry c1  #important for SAPT in psi4, default
}

set PROPERTIES_ORIGIN ["COM"]
properties('MP2/aug-cc-pvtz', properties = ['dipole'])
--------------------------------------------------------------------------

    Molecular point group: c1
  Charge       = 0
  Multiplicity = 1
  Basis Set: AUG-CC-PVTZ
    Blend: AUG-CC-PVTZ
  Basis Set: (AUG-CC-PVTZ AUX)
    Blend: AUG-CC-PVTZ-JKFIT

    Orbital Energies [Eh]
    ---------------------

    Doubly Occupied:

       1A   -490.049546     2A   -490.049326     3A   -490.049315
       4A    -65.189294     5A    -65.189081     6A    -65.189071
       7A    -58.544707     8A    -58.544492     9A    -58.544481
      10A    -58.543035    11A    -58.543031    12A    -58.542823
      13A    -58.542821    14A    -58.542813    15A    -58.542811
      16A    -11.419559    17A     -9.862108    18A     -9.861901
      19A     -9.861890    20A     -7.474173    21A     -7.473956
      22A     -7.473946    23A     -7.466358    24A     -7.466353
      25A     -7.466160    26A     -7.466152    27A     -7.466150
      28A     -7.466142    29A     -3.218159    30A     -3.217939
      31A     -3.217916    32A     -3.214118    33A     -3.214081
      34A     -3.213896    35A     -3.213887    36A     -3.213872
      37A     -3.213862    38A     -3.204031    39A     -3.204030
      40A     -3.203842    41A     -3.203841    42A     -3.203831
      43A     -3.203830    44A     -1.151779    45A     -1.025322
      46A     -1.024972    47A     -0.851437    48A     -0.640130
      49A     -0.570178    50A     -0.569733    51A     -0.456161
      52A     -0.455526    53A     -0.432291    54A     -0.421991
      55A     -0.421594    56A     -0.407286

  @DF-RHF Final Energy: -7755.82631696713725

   => Energetics <=

    Nuclear Repulsion Energy =            806.0047415766698577
    One-Electron Energy =              -12408.8200575520077109
    Two-Electron Energy =                3846.9889990082006079
    Total Energy =                      -7755.8263169671372452
  Basis Set: (AUG-CC-PVTZ AUX)
    Blend: AUG-CC-PVTZ-RI
    Molecular point group: c1

    Geometry (in Angstrom), charge = 0, multiplicity = 1:

       Center              X                  Y                   Z               Mass
    ------------   -----------------  -----------------  -----------------  -----------------
         BR          -0.919330940118     1.593376983131    -0.057362517934    78.918337600000
         BR          -0.925846740118    -1.596094916869    -0.025219517934    78.918337600000
         BR           1.845429259882     0.002237083131    -0.025233517934    78.918337600000
         C           -0.001529740118     0.002917083131     0.570028482066    12.000000000000
         H           -0.001485740118     0.002920083131     1.655329482066     1.007825032230

  Basis Set: AUG-CC-PVTZ
    Blend: AUG-CC-PVTZ
  Basis Set: (AUG-CC-PVTZ AUX)
    Blend: AUG-CC-PVTZ-JKFIT
	 Reference Energy          =   -7755.8263169671372452 [Eh]
	 Singles Energy            =      -0.0000000000000000 [Eh]
	 Same-Spin Energy          =      -0.3107412856914995 [Eh]
	 Opposite-Spin Energy      =      -0.7453896306367126 [Eh]
	 Correlation Energy        =      -1.0561309163282120 [Eh]
	 Total Energy              =   -7756.8824478834658294 [Eh]

	 ================> DF-SCS-MP2 Energies <==================
	-----------------------------------------------------------
	 SCS Same-Spin Scale       =       0.3333333333333333 [-]
	 SCS Opposite-Spin Scale   =       1.2000000000000000 [-]
	 SCS Same-Spin Energy      =      -0.1035804285638332 [Eh]
	 SCS Opposite-Spin Energy  =      -0.8944675567640551 [Eh]
	 SCS Correlation Energy    =      -0.9980479853278883 [Eh]
	 SCS Total Energy          =   -7756.8243649524647481 [Eh]
	-----------------------------------------------------------

  Dipole Moment: [D]
     X:    -0.0057      Y:     0.0101      Z:     0.8622     Total:     0.8623

*** Psi4 exiting successfully. Buy a developer a beer!
