                               Psi4 1.3.2 release

  ==> Input File <==

--------------------------------------------------------------------------
#psi4
#
memory 32 gb

molecule  {
0 1
 Br       -0.9229800     1.5996990    -0.0468890
 Br       -0.9241640    -1.5990150    -0.0468890
 Br        1.8471120    -0.0006830    -0.0469030
  C        0.0001530    -0.0000030     0.5483590
  H        0.0002011     0.0000003     1.7336600
units angstrom
no_reorient  #important for SAPT in psi4, default
symmetry c1  #important for SAPT in psi4, default
}

set PROPERTIES_ORIGIN ["COM"]
properties('MP2/aug-cc-pvtz', properties = ['dipole'])
--------------------------------------------------------------------------

    Molecular point group: c1
  Charge       = 0
  Multiplicity = 1
  Basis Set: AUG-CC-PVTZ
    Blend: AUG-CC-PVTZ
  Basis Set: (AUG-CC-PVTZ AUX)
    Blend: AUG-CC-PVTZ-JKFIT

    Orbital Energies [Eh]
    ---------------------

    Doubly Occupied:

       1A   -490.049572     2A   -490.049561     3A   -490.049560
       4A    -65.189304     5A    -65.189294     6A    -65.189293
       7A    -58.544722     8A    -58.544711     9A    -58.544711
      10A    -58.543042    11A    -58.543041    12A    -58.543031
      13A    -58.543031    14A    -58.543030    15A    -58.543030
      16A    -11.427923    17A     -9.862112    18A     -9.862103
      19A     -9.862098    20A     -7.474185    21A     -7.474176
      22A     -7.474173    23A     -7.466351    24A     -7.466341
      25A     -7.466340    26A     -7.466339    27A     -7.466331
      28A     -7.466329    29A     -3.218194    30A     -3.218166
      31A     -3.218160    32A     -3.214122    33A     -3.214113
      34A     -3.214110    35A     -3.214099    36A     -3.214089
      37A     -3.214087    38A     -3.204012    39A     -3.204011
      40A     -3.204002    41A     -3.204002    42A     -3.203999
      43A     -3.203997    44A     -1.147238    45A     -1.025176
      46A     -1.025154    47A     -0.832254    48A     -0.627590
      49A     -0.569626    50A     -0.569604    51A     -0.455350
      52A     -0.455325    53A     -0.427005    54A     -0.422346
      55A     -0.422323    56A     -0.407584

  @DF-RHF Final Energy: -7755.81881254665859

   => Energetics <=

    Nuclear Repulsion Energy =            804.0532431954330832
    One-Electron Energy =              -12404.9571686319941364
    Two-Electron Energy =                3845.0851128899030300
    Total Energy =                      -7755.8188125466585916
  Basis Set: (AUG-CC-PVTZ AUX)
    Blend: AUG-CC-PVTZ-RI
    Molecular point group: c1

    Geometry (in Angstrom), charge = 0, multiplicity = 1:

       Center              X                  Y                   Z               Mass
    ------------   -----------------  -----------------  -----------------  -----------------
         BR          -0.922978051299     1.599698826953    -0.035779354023    78.918337600000
         BR          -0.924162051299    -1.599015173047    -0.035779354023    78.918337600000
         BR           1.847113948701    -0.000683173047    -0.035793354023    78.918337600000
         C            0.000154948701    -0.000003173047     0.559468645977    12.000000000000
         H            0.000203048701     0.000000126953     1.744769645977     1.007825032230

  Basis Set: AUG-CC-PVTZ
    Blend: AUG-CC-PVTZ
  Basis Set: (AUG-CC-PVTZ AUX)
    Blend: AUG-CC-PVTZ-JKFIT
	 Reference Energy          =   -7755.8188125466585916 [Eh]
	 Singles Energy            =      -0.0000000000000000 [Eh]
	 Same-Spin Energy          =      -0.3110473212895732 [Eh]
	 Opposite-Spin Energy      =      -0.7459379733805839 [Eh]
	 Correlation Energy        =      -1.0569852946701572 [Eh]
	 Total Energy              =   -7756.8757978413286764 [Eh]

	 ================> DF-SCS-MP2 Energies <==================
	-----------------------------------------------------------
	 SCS Same-Spin Scale       =       0.3333333333333333 [-]
	 SCS Opposite-Spin Scale   =       1.2000000000000000 [-]
	 SCS Same-Spin Energy      =      -0.1036824404298577 [Eh]
	 SCS Opposite-Spin Energy  =      -0.8951255680567006 [Eh]
	 SCS Correlation Energy    =      -0.9988080084865584 [Eh]
	 SCS Total Energy          =   -7756.8176205551453677 [Eh]
	-----------------------------------------------------------

  Dipole Moment: [D]
     X:     0.0002      Y:    -0.0000      Z:     0.8938     Total:     0.8938

*** Psi4 exiting successfully. Buy a developer a beer!
