                               Psi4 1.4a3.dev225

  ==> Input File <==

--------------------------------------------------------------------------
#psi4
#
memory 32 gb

molecule  {
0 1
 Br       -0.9203150     1.6009260    -0.0468510
 Br       -0.9262960    -1.5974730    -0.0468510
 Br        1.8466090    -0.0034530    -0.0468510
  C        0.0094961    -0.0165058     0.5538134
  H       -0.0000030     0.0000000     1.6332140
units angstrom
no_reorient  #important for SAPT in psi4, default
symmetry c1  #important for SAPT in psi4, default
}

set PROPERTIES_ORIGIN ["COM"]
properties('MP2/aug-cc-pvtz', properties = ['dipole'])
--------------------------------------------------------------------------

    Molecular point group: c1
  Charge       = 0
  Multiplicity = 1
  Basis Set: AUG-CC-PVTZ
    Blend: AUG-CC-PVTZ
  Basis Set: (AUG-CC-PVTZ AUX)
    Blend: AUG-CC-PVTZ-JKFIT

    Orbital Energies [Eh]
    ---------------------

    Doubly Occupied:

       1A   -490.050482     2A   -490.050481     3A   -490.047645
       4A    -65.190252     5A    -65.190250     6A    -65.187328
       7A    -58.545661     8A    -58.545660     9A    -58.543993
      10A    -58.543992    11A    -58.543992    12A    -58.543991
      13A    -58.542748    14A    -58.541073    15A    -58.541069
      16A    -11.419270    17A     -9.863107    18A     -9.863103
      19A     -9.860027    20A     -7.475182    21A     -7.475180
      22A     -7.472044    23A     -7.467364    24A     -7.467362
      25A     -7.467354    26A     -7.467352    27A     -7.464279
      28A     -7.464276    29A     -3.219184    30A     -3.219162
      31A     -3.215997    32A     -3.215108    33A     -3.215105
      34A     -3.215087    35A     -3.215085    36A     -3.212021
      37A     -3.211985    38A     -3.205037    39A     -3.205036
      40A     -3.205033    41A     -3.205032    42A     -3.201971
      43A     -3.201970    44A     -1.151599    45A     -1.027246
      46A     -1.023011    47A     -0.852650    48A     -0.640383
      49A     -0.571031    50A     -0.568546    51A     -0.456549
      52A     -0.454930    53A     -0.432098    54A     -0.423235
      55A     -0.421000    56A     -0.407569

  @DF-RHF Final Energy: -7755.82631524824319

   => Energetics <=

    Nuclear Repulsion Energy =            804.9114698331565023
    One-Electron Energy =              -12406.6212136366539198
    Two-Electron Energy =                3845.8834285552547954
    Total Energy =                      -7755.8263152482431906
  Basis Set: (AUG-CC-PVTZ AUX)
    Blend: AUG-CC-PVTZ-RI
    Molecular point group: c1

    Geometry (in Angstrom), charge = 0, multiplicity = 1:

       Center              X                  Y                   Z               Mass
    ------------   -----------------  -----------------  -----------------  -----------------
         BR          -0.920770601565     1.601719030708    -0.035638545910    78.918337600000
         BR          -0.926751601565    -1.596679969292    -0.035638545910    78.918337600000
         BR           1.846153398435    -0.002659969292    -0.035638545910    78.918337600000
         C            0.009040498435    -0.015712769292     0.565025854090    12.000000000000
         H           -0.000458601565     0.000793030708     1.644426454090     1.007825032230

  Basis Set: AUG-CC-PVTZ
    Blend: AUG-CC-PVTZ
  Basis Set: (AUG-CC-PVTZ AUX)
    Blend: AUG-CC-PVTZ-JKFIT
	 Reference Energy          =   -7755.8263152482431906 [Eh]
	 Singles Energy            =      -0.0000000000000000 [Eh]
	 Same-Spin Energy          =      -0.3106624434229577 [Eh]
	 Opposite-Spin Energy      =      -0.7453465623733384 [Eh]
	 Correlation Energy        =      -1.0560090057962961 [Eh]
	 Total Energy              =   -7756.8823242540393039 [Eh]

	 ================> DF-SCS-MP2 Energies <==================
	-----------------------------------------------------------
	 SCS Same-Spin Scale       =       0.3333333333333333 [-]
	 SCS Opposite-Spin Scale   =       1.2000000000000000 [-]
	 SCS Same-Spin Energy      =      -0.1035541478076526 [Eh]
	 SCS Opposite-Spin Energy  =      -0.8944158748480061 [Eh]
	 SCS Correlation Energy    =      -0.9979700226556587 [Eh]
	 SCS Total Energy          =   -7756.8242852708990540 [Eh]
	-----------------------------------------------------------

  Dipole Moment: [D]
     X:     0.0481      Y:    -0.0836      Z:     0.8590     Total:     0.8644

*** Psi4 exiting successfully. Buy a developer a beer!
