                               Psi4 1.4a3.dev225

  ==> Input File <==

--------------------------------------------------------------------------
#psi4
#
memory 32 gb

molecule  {
0 1
 Br       -0.9203150     1.6009260    -0.0468510
 Br       -0.9262960    -1.5974730    -0.0468510
 Br        1.8466090    -0.0034530    -0.0468510
  C       -0.0237122     0.0412609     0.5323606
  H       -0.0000030     0.0000000     1.6332140
units angstrom
no_reorient  #important for SAPT in psi4, default
symmetry c1  #important for SAPT in psi4, default
}

set PROPERTIES_ORIGIN ["COM"]
properties('MP2/aug-cc-pvtz', properties = ['dipole'])
--------------------------------------------------------------------------

    Molecular point group: c1
  Charge       = 0
  Multiplicity = 1
  Basis Set: AUG-CC-PVTZ
    Blend: AUG-CC-PVTZ
  Basis Set: (AUG-CC-PVTZ AUX)
    Blend: AUG-CC-PVTZ-JKFIT

    Orbital Energies [Eh]
    ---------------------

    Doubly Occupied:

       1A   -490.054059     2A   -490.047262     3A   -490.047261
       4A    -65.194019     5A    -65.186961     6A    -65.186959
       7A    -58.549399     8A    -58.547762     9A    -58.547756
      10A    -58.542378    11A    -58.542377    12A    -58.540705
      13A    -58.540704    14A    -58.540702    15A    -58.540701
      16A    -11.419735    17A     -9.867183    18A     -9.859680
      19A     -9.859676    20A     -7.479342    21A     -7.471695
      22A     -7.471692    23A     -7.471479    24A     -7.471440
      25A     -7.463936    26A     -7.463934    27A     -7.463933
      28A     -7.463931    29A     -3.223380    30A     -3.219186
      31A     -3.219174    32A     -3.215652    33A     -3.215632
      34A     -3.211669    35A     -3.211666    36A     -3.211634
      37A     -3.211632    38A     -3.209135    39A     -3.209135
      40A     -3.201634    41A     -3.201633    42A     -3.201630
      43A     -3.201629    44A     -1.153553    45A     -1.030971
      46A     -1.021028    47A     -0.846907    48A     -0.638957
      49A     -0.574199    50A     -0.568814    51A     -0.457836
      52A     -0.453509    53A     -0.429160    54A     -0.425430
      55A     -0.420434    56A     -0.407473

  @DF-RHF Final Energy: -7755.82512004741511

   => Energetics <=

    Nuclear Repulsion Energy =            805.4486467393796829
    One-Electron Energy =              -12407.6888323534767551
    Two-Electron Energy =                3846.4150655666812781
    Total Energy =                      -7755.8251200474151119
  Basis Set: (AUG-CC-PVTZ AUX)
    Blend: AUG-CC-PVTZ-RI
    Molecular point group: c1

    Geometry (in Angstrom), charge = 0, multiplicity = 1:

       Center              X                  Y                   Z               Mass
    ------------   -----------------  -----------------  -----------------  -----------------
         BR          -0.919175089585     1.598943596195    -0.034607833727    78.918337600000
         BR          -0.925156089585    -1.599455403805    -0.034607833727    78.918337600000
         BR           1.847748910415    -0.005435403805    -0.034607833727    78.918337600000
         C           -0.022572289585     0.039278496195     0.544603766273    12.000000000000
         H            0.001136910415    -0.001982403805     1.645457166273     1.007825032230

  Basis Set: AUG-CC-PVTZ
    Blend: AUG-CC-PVTZ
  Basis Set: (AUG-CC-PVTZ AUX)
    Blend: AUG-CC-PVTZ-JKFIT
	 Reference Energy          =   -7755.8251200474151119 [Eh]
	 Singles Energy            =      -0.0000000000000000 [Eh]
	 Same-Spin Energy          =      -0.3109564810989086 [Eh]
	 Opposite-Spin Energy      =      -0.7455273038619913 [Eh]
	 Correlation Energy        =      -1.0564837849608999 [Eh]
	 Total Energy              =   -7756.8816038323757311 [Eh]

	 ================> DF-SCS-MP2 Energies <==================
	-----------------------------------------------------------
	 SCS Same-Spin Scale       =       0.3333333333333333 [-]
	 SCS Opposite-Spin Scale   =       1.2000000000000000 [-]
	 SCS Same-Spin Energy      =      -0.1036521603663029 [Eh]
	 SCS Opposite-Spin Energy  =      -0.8946327646343896 [Eh]
	 SCS Correlation Energy    =      -0.9982849250006924 [Eh]
	 SCS Total Energy          =   -7756.8234049724160286 [Eh]
	-----------------------------------------------------------

  Dipole Moment: [D]
     X:    -0.1216      Y:     0.2116      Z:     0.8612     Total:     0.8951

*** Psi4 exiting successfully. Buy a developer a beer!
