                               Psi4 1.3.2 release

  ==> Input File <==

--------------------------------------------------------------------------
#psi4
#
memory 32 gb

molecule  {
0 1
 Br       -0.8999823     1.5598357    -0.1742757
 Br       -0.9241640    -1.5990150    -0.0468890
 Br        1.8471120    -0.0006830    -0.0469030
  C        0.0001530    -0.0000030     0.5483590
  H        0.0001970     0.0000000     1.6336600
units angstrom
no_reorient  #important for SAPT in psi4, default
symmetry c1  #important for SAPT in psi4, default
}

set PROPERTIES_ORIGIN ["COM"]
properties('MP2/aug-cc-pvtz', properties = ['dipole'])
--------------------------------------------------------------------------

    Molecular point group: c1
  Charge       = 0
  Multiplicity = 1
  Basis Set: AUG-CC-PVTZ
    Blend: AUG-CC-PVTZ
  Basis Set: (AUG-CC-PVTZ AUX)
    Blend: AUG-CC-PVTZ-JKFIT

    Orbital Energies [Eh]
    ---------------------

    Doubly Occupied:

       1A   -490.049526     2A   -490.048591     3A   -490.048580
       4A    -65.189282     5A    -65.188375     6A    -65.188365
       7A    -58.544700     8A    -58.543780     9A    -58.543769
      10A    -58.543021    11A    -58.543008    12A    -58.542118
      13A    -58.542112    14A    -58.542108    15A    -58.542102
      16A    -11.420020    17A     -9.862115    18A     -9.861226
      19A     -9.861216    20A     -7.474205    21A     -7.473275
      22A     -7.473265    23A     -7.466361    24A     -7.466322
      25A     -7.465501    26A     -7.465491    27A     -7.465480
      28A     -7.465470    29A     -3.218206    30A     -3.217251
      31A     -3.217227    32A     -3.214163    33A     -3.214085
      34A     -3.213222    35A     -3.213213    36A     -3.213185
      37A     -3.213175    38A     -3.203991    39A     -3.203988
      40A     -3.203182    41A     -3.203180    42A     -3.203171
      43A     -3.203169    44A     -1.152474    45A     -1.025121
      46A     -1.023733    47A     -0.852283    48A     -0.641670
      49A     -0.570436    50A     -0.568553    51A     -0.457575
      52A     -0.455035    53A     -0.434452    54A     -0.420855
      55A     -0.419201    56A     -0.405918

  @DF-RHF Final Energy: -7755.82530613962990

   => Energetics <=

    Nuclear Repulsion Energy =            809.5028477400920792
    One-Electron Energy =              -12415.8541094983338553
    Two-Electron Energy =                3850.5259556186119880
    Total Energy =                      -7755.8253061396299017
  Basis Set: (AUG-CC-PVTZ AUX)
    Blend: AUG-CC-PVTZ-RI
    Molecular point group: c1

    Geometry (in Angstrom), charge = 0, multiplicity = 1:

       Center              X                  Y                   Z               Mass
    ------------   -----------------  -----------------  -----------------  -----------------
         BR          -0.907246989267     1.572431258556    -0.122511770993    78.918337600000
         BR          -0.931428689267    -1.586419441444     0.004874929007    78.918337600000
         BR           1.839847310733     0.011912558556     0.004860929007    78.918337600000
         C           -0.007111689267     0.012592558556     0.600122929007    12.000000000000
         H           -0.007067689267     0.012595558556     1.685423929007     1.007825032230

  Basis Set: AUG-CC-PVTZ
    Blend: AUG-CC-PVTZ
  Basis Set: (AUG-CC-PVTZ AUX)
    Blend: AUG-CC-PVTZ-JKFIT
	 Reference Energy          =   -7755.8253061396299017 [Eh]
	 Singles Energy            =      -0.0000000000000000 [Eh]
	 Same-Spin Energy          =      -0.3109055265351933 [Eh]
	 Opposite-Spin Energy      =      -0.7455660795498307 [Eh]
	 Correlation Energy        =      -1.0564716060850241 [Eh]
	 Total Energy              =   -7756.8817777457152260 [Eh]

	 ================> DF-SCS-MP2 Energies <==================
	-----------------------------------------------------------
	 SCS Same-Spin Scale       =       0.3333333333333333 [-]
	 SCS Opposite-Spin Scale   =       1.2000000000000000 [-]
	 SCS Same-Spin Energy      =      -0.1036351755117311 [Eh]
	 SCS Opposite-Spin Energy  =      -0.8946792954597967 [Eh]
	 SCS Correlation Energy    =      -0.9983144709715278 [Eh]
	 SCS Total Energy          =   -7756.8236206106012105 [Eh]
	-----------------------------------------------------------

  Dipole Moment: [D]
     X:    -0.0232      Y:     0.0405      Z:     0.8678     Total:     0.8691

*** Psi4 exiting successfully. Buy a developer a beer!
