                               Psi4 1.4a3.dev225

  ==> Input File <==

--------------------------------------------------------------------------
#psi4
#
memory 32 gb

molecule  {
0 1
 Br       -0.9203150     1.6009260    -0.0468510
 Br       -0.9262960    -1.5974730    -0.0468510
 Br        1.8466090    -0.0034530    -0.0468510
  C        0.0000080    -0.0000010     0.5476840
  H       -0.0000028    -0.0000000     1.6132140
units angstrom
no_reorient  #important for SAPT in psi4, default
symmetry c1  #important for SAPT in psi4, default
}

set PROPERTIES_ORIGIN ["COM"]
properties('MP2/aug-cc-pvtz', properties = ['dipole'])
--------------------------------------------------------------------------

    Molecular point group: c1
  Charge       = 0
  Multiplicity = 1
  Basis Set: AUG-CC-PVTZ
    Blend: AUG-CC-PVTZ
  Basis Set: (AUG-CC-PVTZ AUX)
    Blend: AUG-CC-PVTZ-JKFIT

    Orbital Energies [Eh]
    ---------------------

    Doubly Occupied:

       1A   -490.049566     2A   -490.049564     3A   -490.049564
       4A    -65.189317     5A    -65.189316     6A    -65.189316
       7A    -58.544728     8A    -58.544727     9A    -58.544727
      10A    -58.543060    11A    -58.543059    12A    -58.543059
      13A    -58.543059    14A    -58.543058    15A    -58.543057
      16A    -11.417469    17A     -9.862133    18A     -9.862132
      19A     -9.862126    20A     -7.474188    21A     -7.474187
      22A     -7.474184    23A     -7.466393    24A     -7.466391
      25A     -7.466390    26A     -7.466386    27A     -7.466385
      28A     -7.466383    29A     -3.218184    30A     -3.218153
      31A     -3.218152    32A     -3.214128    33A     -3.214127
      34A     -3.214124    35A     -3.214104    36A     -3.214103
      37A     -3.214100    38A     -3.204078    39A     -3.204076
      40A     -3.204076    41A     -3.204073    42A     -3.204073
      43A     -3.204070    44A     -1.152837    45A     -1.025509
      46A     -1.025508    47A     -0.855371    48A     -0.641925
      49A     -0.570337    50A     -0.570336    51A     -0.455812
      52A     -0.455811    53A     -0.432330    54A     -0.422403
      55A     -0.422402    56A     -0.407724

  @DF-RHF Final Energy: -7755.82668391708376

   => Energetics <=

    Nuclear Repulsion Energy =            805.2346275108992586
    One-Electron Energy =              -12407.2509188985677611
    Two-Electron Energy =                3846.1896074705846331
    Total Energy =                      -7755.8266839170837557
  Basis Set: (AUG-CC-PVTZ AUX)
    Blend: AUG-CC-PVTZ-RI
    Molecular point group: c1

    Geometry (in Angstrom), charge = 0, multiplicity = 1:

       Center              X                  Y                   Z               Mass
    ------------   -----------------  -----------------  -----------------  -----------------
         BR          -0.920314741120     1.600926048046    -0.035263352781    78.918337600000
         BR          -0.926295741120    -1.597472951954    -0.035263352781    78.918337600000
         BR           1.846609258880    -0.003452951954    -0.035263352781    78.918337600000
         C            0.000008258880    -0.000000951954     0.559271647219    12.000000000000
         H           -0.000002541120     0.000000048046     1.624801647219     1.007825032230

  Basis Set: AUG-CC-PVTZ
    Blend: AUG-CC-PVTZ
  Basis Set: (AUG-CC-PVTZ AUX)
    Blend: AUG-CC-PVTZ-JKFIT
	 Reference Energy          =   -7755.8266839170837557 [Eh]
	 Singles Energy            =      -0.0000000000000000 [Eh]
	 Same-Spin Energy          =      -0.3106515737072618 [Eh]
	 Opposite-Spin Energy      =      -0.7452769859671955 [Eh]
	 Correlation Energy        =      -1.0559285596744572 [Eh]
	 Total Energy              =   -7756.8826124767583678 [Eh]

	 ================> DF-SCS-MP2 Energies <==================
	-----------------------------------------------------------
	 SCS Same-Spin Scale       =       0.3333333333333333 [-]
	 SCS Opposite-Spin Scale   =       1.2000000000000000 [-]
	 SCS Same-Spin Energy      =      -0.1035505245690873 [Eh]
	 SCS Opposite-Spin Energy  =      -0.8943323831606346 [Eh]
	 SCS Correlation Energy    =      -0.9978829077297218 [Eh]
	 SCS Total Energy          =   -7756.8245668248137008 [Eh]
	-----------------------------------------------------------

  Dipole Moment: [D]
     X:     0.0000      Y:    -0.0000      Z:     0.8507     Total:     0.8507

*** Psi4 exiting successfully. Buy a developer a beer!
