                               Psi4 1.3.2 release

  ==> Input File <==

--------------------------------------------------------------------------
#psi4
#
memory 32 gb

molecule  {
0 1
 Br       -0.9229800     1.5996990    -0.0468890
 Br       -0.9241640    -1.5990150    -0.0468890
 Br        1.8471120    -0.0006830    -0.0469030
  C        0.0477249    -0.0824406     0.5790340
  H        0.0001970     0.0000000     1.6336600
units angstrom
no_reorient  #important for SAPT in psi4, default
symmetry c1  #important for SAPT in psi4, default
}

set PROPERTIES_ORIGIN ["COM"]
properties('MP2/aug-cc-pvtz', properties = ['dipole'])
--------------------------------------------------------------------------

    Molecular point group: c1
  Charge       = 0
  Multiplicity = 1
  Basis Set: AUG-CC-PVTZ
    Blend: AUG-CC-PVTZ
  Basis Set: (AUG-CC-PVTZ AUX)
    Blend: AUG-CC-PVTZ-JKFIT

    Orbital Energies [Eh]
    ---------------------

    Doubly Occupied:

       1A   -490.054467     2A   -490.054453     3A   -490.039375
       4A    -65.194310     5A    -65.194296     6A    -65.178876
       7A    -58.549711     8A    -58.549697     9A    -58.548050
      10A    -58.548042    11A    -58.548036    12A    -58.548029
      13A    -58.534307    14A    -58.532633    15A    -58.532620
      16A    -11.420315    17A     -9.867313    18A     -9.867299
      19A     -9.851227    20A     -7.479458    21A     -7.479444
      22A     -7.471569    23A     -7.471555    24A     -7.471539
      25A     -7.471525    26A     -7.463063    27A     -7.455516
      28A     -7.455476    29A     -3.223508    30A     -3.223482
      31A     -3.219349    32A     -3.219335    33A     -3.219303
      34A     -3.219290    35A     -3.209207    36A     -3.209204
      37A     -3.209193    38A     -3.209190    39A     -3.206893
      40A     -3.203173    41A     -3.203095    42A     -3.193269
      43A     -3.193268    44A     -1.153121    45A     -1.034519
      46A     -1.012320    47A     -0.858927    48A     -0.644842
      49A     -0.575372    50A     -0.561809    51A     -0.459534
      52A     -0.453082    53A     -0.431976    54A     -0.427028
      55A     -0.414528    56A     -0.405973

  @DF-RHF Final Energy: -7755.82215619879571

   => Energetics <=

    Nuclear Repulsion Energy =            804.1771212997061866
    One-Electron Energy =              -12405.1465720272335602
    Two-Electron Energy =                3845.1472945287314360
    Total Energy =                      -7755.8221561987957102
  Basis Set: (AUG-CC-PVTZ AUX)
    Blend: AUG-CC-PVTZ-RI
    Molecular point group: c1

    Geometry (in Angstrom), charge = 0, multiplicity = 1:

       Center              X                  Y                   Z               Mass
    ------------   -----------------  -----------------  -----------------  -----------------
         BR          -0.925263654204     1.603659590335    -0.036849639335    78.918337600000
         BR          -0.926447654204    -1.595054409665    -0.036849639335    78.918337600000
         BR           1.844828345796     0.003277590335    -0.036863639335    78.918337600000
         C            0.045441245796    -0.078480009665     0.589073360665    12.000000000000
         H           -0.002086654204     0.003960590335     1.643699360665     1.007825032230

  Basis Set: AUG-CC-PVTZ
    Blend: AUG-CC-PVTZ
  Basis Set: (AUG-CC-PVTZ AUX)
    Blend: AUG-CC-PVTZ-JKFIT
	 Reference Energy          =   -7755.8221561987957102 [Eh]
	 Singles Energy            =      -0.0000000000000000 [Eh]
	 Same-Spin Energy          =      -0.3106626098858860 [Eh]
	 Opposite-Spin Energy      =      -0.7456276641451289 [Eh]
	 Correlation Energy        =      -1.0562902740310149 [Eh]
	 Total Energy              =   -7756.8784464728269086 [Eh]

	 ================> DF-SCS-MP2 Energies <==================
	-----------------------------------------------------------
	 SCS Same-Spin Scale       =       0.3333333333333333 [-]
	 SCS Opposite-Spin Scale   =       1.2000000000000000 [-]
	 SCS Same-Spin Energy      =      -0.1035542032952953 [Eh]
	 SCS Opposite-Spin Energy  =      -0.8947531969741547 [Eh]
	 SCS Correlation Energy    =      -0.9983074002694500 [Eh]
	 SCS Total Energy          =   -7756.8204635990650786 [Eh]
	-----------------------------------------------------------

  Dipole Moment: [D]
     X:     0.2404      Y:    -0.4161      Z:     0.8563     Total:     0.9819

*** Psi4 exiting successfully. Buy a developer a beer!
