                               Psi4 1.3.2 release

  ==> Input File <==

--------------------------------------------------------------------------
#psi4
#
memory 32 gb

molecule  {
0 1
 Br       -0.7773521     1.7057503     0.0469283
 Br       -0.9241640    -1.5990150    -0.0468890
 Br        1.8471120    -0.0006830    -0.0469030
  C        0.0001530    -0.0000030     0.5483590
  H        0.0001970     0.0000000     1.6336600
units angstrom
no_reorient  #important for SAPT in psi4, default
symmetry c1  #important for SAPT in psi4, default
}

set PROPERTIES_ORIGIN ["COM"]
properties('MP2/aug-cc-pvtz', properties = ['dipole'])
--------------------------------------------------------------------------

    Molecular point group: c1
  Charge       = 0
  Multiplicity = 1
  Basis Set: AUG-CC-PVTZ
    Blend: AUG-CC-PVTZ
  Basis Set: (AUG-CC-PVTZ AUX)
    Blend: AUG-CC-PVTZ-JKFIT

    Orbital Energies [Eh]
    ---------------------

    Doubly Occupied:

       1A   -490.052947     2A   -490.049466     3A   -490.047398
       4A    -65.192589     5A    -65.189222     6A    -65.187208
       7A    -58.548021     8A    -58.546340     9A    -58.546324
      10A    -58.544632    11A    -58.542972    12A    -58.542953
      13A    -58.542612    14A    -58.540952    15A    -58.540937
      16A    -11.418787    17A     -9.865292    18A     -9.862043
      19A     -9.860091    20A     -7.477369    21A     -7.474096
      22A     -7.472153    23A     -7.469549    24A     -7.469474
      25A     -7.466342    26A     -7.466253    27A     -7.464375
      28A     -7.464329    29A     -3.221379    30A     -3.218068
      31A     -3.217338    32A     -3.217261    33A     -3.216121
      34A     -3.214077    35A     -3.213976    36A     -3.212123
      37A     -3.212029    38A     -3.207174    39A     -3.207172
      40A     -3.203987    41A     -3.203983    42A     -3.202033
      43A     -3.202031    44A     -1.151378    45A     -1.030252
      46A     -1.021585    47A     -0.850437    48A     -0.638358
      49A     -0.574440    50A     -0.566229    51A     -0.459910
      52A     -0.451342    53A     -0.429578    54A     -0.428303
      55A     -0.420323    56A     -0.406788

  @DF-RHF Final Energy: -7755.82476180076628

   => Energetics <=

    Nuclear Repulsion Energy =            802.5963383855907978
    One-Electron Energy =              -12401.9573994790371216
    Two-Electron Energy =                3843.5362992926802690
    Total Energy =                      -7755.8247618007662822
  Basis Set: (AUG-CC-PVTZ AUX)
    Blend: AUG-CC-PVTZ-RI
    Molecular point group: c1

    Geometry (in Angstrom), charge = 0, multiplicity = 1:

       Center              X                  Y                   Z               Mass
    ------------   -----------------  -----------------  -----------------  -----------------
         BR          -0.823364633452     1.672240770371     0.028797715868    78.918337600000
         BR          -0.970176533452    -1.632524529629    -0.065019584132    78.918337600000
         BR           1.801099466548    -0.034192529629    -0.065033584132    78.918337600000
         C           -0.045859533452    -0.033512529629     0.530228415868    12.000000000000
         H           -0.045815533452    -0.033509529629     1.615529415868     1.007825032230

  Basis Set: AUG-CC-PVTZ
    Blend: AUG-CC-PVTZ
  Basis Set: (AUG-CC-PVTZ AUX)
    Blend: AUG-CC-PVTZ-JKFIT
	 Reference Energy          =   -7755.8247618007662822 [Eh]
	 Singles Energy            =      -0.0000000000000000 [Eh]
	 Same-Spin Energy          =      -0.3106858960605579 [Eh]
	 Opposite-Spin Energy      =      -0.7454351732535591 [Eh]
	 Correlation Energy        =      -1.0561210693141170 [Eh]
	 Total Energy              =   -7756.8808828700803133 [Eh]

	 ================> DF-SCS-MP2 Energies <==================
	-----------------------------------------------------------
	 SCS Same-Spin Scale       =       0.3333333333333333 [-]
	 SCS Opposite-Spin Scale   =       1.2000000000000000 [-]
	 SCS Same-Spin Energy      =      -0.1035619653535193 [Eh]
	 SCS Opposite-Spin Energy  =      -0.8945222079042709 [Eh]
	 SCS Correlation Energy    =      -0.9980841732577902 [Eh]
	 SCS Total Energy          =   -7756.8228459740239487 [Eh]
	-----------------------------------------------------------

  Dipole Moment: [D]
     X:    -0.0550      Y:    -0.0702      Z:     0.8512     Total:     0.8559

*** Psi4 exiting successfully. Buy a developer a beer!
