                               Psi4 1.4a3.dev225

  ==> Input File <==

--------------------------------------------------------------------------
#psi4
#
memory 32 gb

molecule  {
0 1
 Br       -0.9203150     1.6009260    -0.0468510
 Br       -0.9262960    -1.5974730    -0.0468510
 Br        1.8466090    -0.0034530    -0.0468510
  C        0.0000080    -0.0000010     0.5476840
  H       -0.0000025    -0.0000000     1.5832140
units angstrom
no_reorient  #important for SAPT in psi4, default
symmetry c1  #important for SAPT in psi4, default
}

set PROPERTIES_ORIGIN ["COM"]
properties('MP2/aug-cc-pvtz', properties = ['dipole'])
--------------------------------------------------------------------------

    Molecular point group: c1
  Charge       = 0
  Multiplicity = 1
  Basis Set: AUG-CC-PVTZ
    Blend: AUG-CC-PVTZ
  Basis Set: (AUG-CC-PVTZ AUX)
    Blend: AUG-CC-PVTZ-JKFIT

    Orbital Energies [Eh]
    ---------------------

    Doubly Occupied:

       1A   -490.049608     2A   -490.049607     3A   -490.049606
       4A    -65.189361     5A    -65.189360     6A    -65.189360
       7A    -58.544771     8A    -58.544770     9A    -58.544770
      10A    -58.543106    11A    -58.543105    12A    -58.543105
      13A    -58.543104    14A    -58.543103    15A    -58.543103
      16A    -11.414678    17A     -9.862177    18A     -9.862176
      19A     -9.862170    20A     -7.474228    21A     -7.474227
      22A     -7.474224    23A     -7.466441    24A     -7.466438
      25A     -7.466437    26A     -7.466436    27A     -7.466435
      28A     -7.466432    29A     -3.218220    30A     -3.218189
      31A     -3.218188    32A     -3.214169    33A     -3.214168
      34A     -3.214164    35A     -3.214143    36A     -3.214143
      37A     -3.214139    38A     -3.204131    39A     -3.204129
      40A     -3.204128    41A     -3.204126    42A     -3.204125
      43A     -3.204123    44A     -1.154591    45A     -1.025601
      46A     -1.025600    47A     -0.862207    48A     -0.645143
      49A     -0.570527    50A     -0.570526    51A     -0.455939
      52A     -0.455937    53A     -0.433603    54A     -0.422436
      55A     -0.422435    56A     -0.407788

  @DF-RHF Final Energy: -7755.82586649375935

   => Energetics <=

    Nuclear Repulsion Energy =            805.5022412122433479
    One-Electron Energy =              -12407.7583062350677210
    Two-Electron Energy =                3846.4301985290644552
    Total Energy =                      -7755.8258664937602589
  Basis Set: (AUG-CC-PVTZ AUX)
    Blend: AUG-CC-PVTZ-RI
    Molecular point group: c1

    Geometry (in Angstrom), charge = 0, multiplicity = 1:

       Center              X                  Y                   Z               Mass
    ------------   -----------------  -----------------  -----------------  -----------------
         BR          -0.920314742331     1.600926048046    -0.035142298940    78.918337600000
         BR          -0.926295742331    -1.597472951954    -0.035142298940    78.918337600000
         BR           1.846609257669    -0.003452951954    -0.035142298940    78.918337600000
         C            0.000008257669    -0.000000951954     0.559392701060    12.000000000000
         H           -0.000002242331     0.000000048046     1.594922701060     1.007825032230

  Basis Set: AUG-CC-PVTZ
    Blend: AUG-CC-PVTZ
  Basis Set: (AUG-CC-PVTZ AUX)
    Blend: AUG-CC-PVTZ-JKFIT
	 Reference Energy          =   -7755.8258664937593494 [Eh]
	 Singles Energy            =      -0.0000000000000000 [Eh]
	 Same-Spin Energy          =      -0.3105648298650421 [Eh]
	 Opposite-Spin Energy      =      -0.7451937632362785 [Eh]
	 Correlation Energy        =      -1.0557585931013205 [Eh]
	 Total Energy              =   -7756.8816250868603674 [Eh]

	 ================> DF-SCS-MP2 Energies <==================
	-----------------------------------------------------------
	 SCS Same-Spin Scale       =       0.3333333333333333 [-]
	 SCS Opposite-Spin Scale   =       1.2000000000000000 [-]
	 SCS Same-Spin Energy      =      -0.1035216099550140 [Eh]
	 SCS Opposite-Spin Energy  =      -0.8942325158835341 [Eh]
	 SCS Correlation Energy    =      -0.9977541258385482 [Eh]
	 SCS Total Energy          =   -7756.8236206195979321 [Eh]
	-----------------------------------------------------------

  Dipole Moment: [D]
     X:     0.0000      Y:    -0.0000      Z:     0.8360     Total:     0.8360

*** Psi4 exiting successfully. Buy a developer a beer!
