                               Psi4 1.3.2 release

  ==> Input File <==

--------------------------------------------------------------------------
#psi4
#
memory 32 gb

molecule  {
0 1
 Br       -0.9327985     1.6167187     0.0179312
 Br       -0.9241640    -1.5990150    -0.0468890
 Br        1.8471120    -0.0006830    -0.0469030
  C        0.0001530    -0.0000030     0.5483590
  H        0.0001970     0.0000000     1.6336600
units angstrom
no_reorient  #important for SAPT in psi4, default
symmetry c1  #important for SAPT in psi4, default
}

set PROPERTIES_ORIGIN ["COM"]
properties('MP2/aug-cc-pvtz', properties = ['dipole'])
--------------------------------------------------------------------------

    Molecular point group: c1
  Charge       = 0
  Multiplicity = 1
  Basis Set: AUG-CC-PVTZ
    Blend: AUG-CC-PVTZ
  Basis Set: (AUG-CC-PVTZ AUX)
    Blend: AUG-CC-PVTZ-JKFIT

    Orbital Energies [Eh]
    ---------------------

    Doubly Occupied:

       1A   -490.050037     2A   -490.050026     3A   -490.049578
       4A    -65.189764     5A    -65.189754     6A    -65.189321
       7A    -58.545181     8A    -58.545170     9A    -58.544731
      10A    -58.543507    11A    -58.543505    12A    -58.543497
      13A    -58.543494    14A    -58.543068    15A    -58.543063
      16A    -11.419038    17A     -9.862555    18A     -9.862544
      19A     -9.862124    20A     -7.474618    21A     -7.474608
      22A     -7.474170    23A     -7.466808    24A     -7.466798
      25A     -7.466795    26A     -7.466785    27A     -7.466402
      28A     -7.466371    29A     -3.218610    30A     -3.218587
      31A     -3.218140    32A     -3.214560    33A     -3.214549
      34A     -3.214532    35A     -3.214522    36A     -3.214104
      37A     -3.214100    38A     -3.204480    39A     -3.204479
      40A     -3.204469    41A     -3.204469    42A     -3.204082
      43A     -3.204082    44A     -1.151212    45A     -1.026181
      46A     -1.025527    47A     -0.850591    48A     -0.638705
      49A     -0.570713    50A     -0.569933    51A     -0.456078
      52A     -0.454872    53A     -0.429974    54A     -0.423849
      55A     -0.423137    56A     -0.408502

  @DF-RHF Final Energy: -7755.82650216281581

   => Energetics <=

    Nuclear Repulsion Energy =            802.7499858918039308
    One-Electron Energy =              -12402.2722640392566973
    Two-Electron Energy =                3843.6957759846372937
    Total Energy =                      -7755.8265021628158138
  Basis Set: (AUG-CC-PVTZ AUX)
    Blend: AUG-CC-PVTZ-RI
    Molecular point group: c1

    Geometry (in Angstrom), charge = 0, multiplicity = 1:

       Center              X                  Y                   Z               Mass
    ------------   -----------------  -----------------  -----------------  -----------------
         BR          -0.929694152893     1.611340760830     0.008962919384    78.918337600000
         BR          -0.921059652893    -1.604392939170    -0.055857280616    78.918337600000
         BR           1.850216347107    -0.006060939170    -0.055871280616    78.918337600000
         C            0.003257347107    -0.005380939170     0.539390719384    12.000000000000
         H            0.003301347107    -0.005377939170     1.624691719384     1.007825032230

  Basis Set: AUG-CC-PVTZ
    Blend: AUG-CC-PVTZ
  Basis Set: (AUG-CC-PVTZ AUX)
    Blend: AUG-CC-PVTZ-JKFIT
	 Reference Energy          =   -7755.8265021628158138 [Eh]
	 Singles Energy            =      -0.0000000000000000 [Eh]
	 Same-Spin Energy          =      -0.3106175965791080 [Eh]
	 Opposite-Spin Energy      =      -0.7452876281777574 [Eh]
	 Correlation Energy        =      -1.0559052247568654 [Eh]
	 Total Energy              =   -7756.8824073875730392 [Eh]

	 ================> DF-SCS-MP2 Energies <==================
	-----------------------------------------------------------
	 SCS Same-Spin Scale       =       0.3333333333333333 [-]
	 SCS Opposite-Spin Scale   =       1.2000000000000000 [-]
	 SCS Same-Spin Energy      =      -0.1035391988597027 [Eh]
	 SCS Opposite-Spin Energy  =      -0.8943451538133088 [Eh]
	 SCS Correlation Energy    =      -0.9978843526730115 [Eh]
	 SCS Total Energy          =   -7756.8243865154890955 [Eh]
	-----------------------------------------------------------

  Dipole Moment: [D]
     X:     0.0119      Y:    -0.0203      Z:     0.8546     Total:     0.8549

*** Psi4 exiting successfully. Buy a developer a beer!
