                               Psi4 1.3.2 release

  ==> Input File <==

--------------------------------------------------------------------------
#psi4
#
memory 32 gb

molecule  {
0 1
 Br       -0.9229800     1.5996990    -0.0468890
 Br       -0.9241640    -1.5990150    -0.0468890
 Br        1.8471120    -0.0006830    -0.0469030
  C        0.0001530    -0.0000030     0.5483590
  H        0.0001889    -0.0000006     1.4336600
units angstrom
no_reorient  #important for SAPT in psi4, default
symmetry c1  #important for SAPT in psi4, default
}

set PROPERTIES_ORIGIN ["COM"]
properties('MP2/aug-cc-pvtz', properties = ['dipole'])
--------------------------------------------------------------------------

    Molecular point group: c1
  Charge       = 0
  Multiplicity = 1
  Basis Set: AUG-CC-PVTZ
    Blend: AUG-CC-PVTZ
  Basis Set: (AUG-CC-PVTZ AUX)
    Blend: AUG-CC-PVTZ-JKFIT

    Orbital Energies [Eh]
    ---------------------

    Doubly Occupied:

       1A   -490.050047     2A   -490.050036     3A   -490.050036
       4A    -65.189798     5A    -65.189788     6A    -65.189788
       7A    -58.545206     8A    -58.545196     9A    -58.545195
      10A    -58.543550    11A    -58.543545    12A    -58.543540
      13A    -58.543539    14A    -58.543535    15A    -58.543534
      16A    -11.400377    17A     -9.862596    18A     -9.862587
      19A     -9.862582    20A     -7.474631    21A     -7.474622
      22A     -7.474619    23A     -7.466878    24A     -7.466869
      25A     -7.466869    26A     -7.466867    27A     -7.466860
      28A     -7.466858    29A     -3.218606    30A     -3.218575
      31A     -3.218569    32A     -3.214582    33A     -3.214573
      34A     -3.214570    35A     -3.214546    36A     -3.214537
      37A     -3.214534    38A     -3.204580    39A     -3.204580
      40A     -3.204572    41A     -3.204571    42A     -3.204568
      43A     -3.204567    44A     -1.166520    45A     -1.026094
      46A     -1.026072    47A     -0.901859    48A     -0.658735
      49A     -0.571577    50A     -0.571556    51A     -0.456593
      52A     -0.456568    53A     -0.439616    54A     -0.422693
      55A     -0.422671    56A     -0.408240

  @DF-RHF Final Energy: -7755.79200789975130

   => Energetics <=

    Nuclear Repulsion Energy =            806.7757140885312310
    One-Electron Energy =              -12410.0777012828530133
    Two-Electron Energy =                3847.5099792945698027
    Total Energy =                      -7755.7920078997522069
  Basis Set: (AUG-CC-PVTZ AUX)
    Blend: AUG-CC-PVTZ-RI
    Molecular point group: c1

    Geometry (in Angstrom), charge = 0, multiplicity = 1:

       Center              X                  Y                   Z               Mass
    ------------   -----------------  -----------------  -----------------  -----------------
         BR          -0.922978002070     1.599698830585    -0.034568815609    78.918337600000
         BR          -0.924162002070    -1.599015169415    -0.034568815609    78.918337600000
         BR           1.847113997930    -0.000683169415    -0.034582815609    78.918337600000
         C            0.000154997930    -0.000003169415     0.560679184391    12.000000000000
         H            0.000190897930    -0.000000769415     1.445980184391     1.007825032230

  Basis Set: AUG-CC-PVTZ
    Blend: AUG-CC-PVTZ
  Basis Set: (AUG-CC-PVTZ AUX)
    Blend: AUG-CC-PVTZ-JKFIT
	 Reference Energy          =   -7755.7920078997512974 [Eh]
	 Singles Energy            =      -0.0000000000000000 [Eh]
	 Same-Spin Energy          =      -0.3102360588750118 [Eh]
	 Opposite-Spin Energy      =      -0.7452896099050428 [Eh]
	 Correlation Energy        =      -1.0555256687800545 [Eh]
	 Total Energy              =   -7756.8475335685316168 [Eh]

	 ================> DF-SCS-MP2 Energies <==================
	-----------------------------------------------------------
	 SCS Same-Spin Scale       =       0.3333333333333333 [-]
	 SCS Opposite-Spin Scale   =       1.2000000000000000 [-]
	 SCS Same-Spin Energy      =      -0.1034120196250039 [Eh]
	 SCS Opposite-Spin Energy  =      -0.8943475318860513 [Eh]
	 SCS Correlation Energy    =      -0.9977595515110552 [Eh]
	 SCS Total Energy          =   -7756.7897674512623780 [Eh]
	-----------------------------------------------------------

  Dipole Moment: [D]
     X:     0.0002      Y:    -0.0000      Z:     0.7441     Total:     0.7441

*** Psi4 exiting successfully. Buy a developer a beer!
