                               Psi4 1.4a3.dev225

  ==> Input File <==

--------------------------------------------------------------------------
#psi4
#
memory 32 gb

molecule  {
0 1
 Br       -0.9203150     1.6009260    -0.0468510
 Br       -0.9262960    -1.5974730    -0.0468510
 Br        1.8466090    -0.0034530    -0.0468510
  C       -0.0094801     0.0165038     0.5415546
  H       -0.0000030     0.0000000     1.6332140
units angstrom
no_reorient  #important for SAPT in psi4, default
symmetry c1  #important for SAPT in psi4, default
}

set PROPERTIES_ORIGIN ["COM"]
properties('MP2/aug-cc-pvtz', properties = ['dipole'])
--------------------------------------------------------------------------

    Molecular point group: c1
  Charge       = 0
  Multiplicity = 1
  Basis Set: AUG-CC-PVTZ
    Blend: AUG-CC-PVTZ
  Basis Set: (AUG-CC-PVTZ AUX)
    Blend: AUG-CC-PVTZ-JKFIT

    Orbital Energies [Eh]
    ---------------------

    Doubly Occupied:

       1A   -490.051387     2A   -490.048625     3A   -490.048624
       4A    -65.191213     5A    -65.188354     6A    -65.188353
       7A    -58.546614     8A    -58.544955     9A    -58.544953
      10A    -58.543768    11A    -58.543767    12A    -58.542097
      13A    -58.542096    14A    -58.542095    15A    -58.542094
      16A    -11.419401    17A     -9.864157    18A     -9.861131
      19A     -9.861127    20A     -7.476256    21A     -7.473172
      22A     -7.473169    23A     -7.468427    24A     -7.468408
      25A     -7.465388    26A     -7.465386    27A     -7.465382
      28A     -7.465380    29A     -3.220260    30A     -3.217147
      31A     -3.217127    32A     -3.216155    33A     -3.216144
      34A     -3.213125    35A     -3.213122    36A     -3.213097
      37A     -3.213095    38A     -3.206095    39A     -3.206094
      40A     -3.203075    41A     -3.203075    42A     -3.203072
      43A     -3.203071    44A     -1.152230    45A     -1.027770
      46A     -1.023673    47A     -0.849405    48A     -0.639222
      49A     -0.571855    50A     -0.569546    51A     -0.456571
      52A     -0.454873    53A     -0.430647    54A     -0.423678
      55A     -0.421576    56A     -0.407688

  @DF-RHF Final Energy: -7755.82626680530939

   => Energetics <=

    Nuclear Repulsion Energy =            805.2114969521715011
    One-Electron Energy =              -12407.2190029028479330
    Two-Electron Energy =                3846.1812391453672717
    Total Energy =                      -7755.8262668053084781
  Basis Set: (AUG-CC-PVTZ AUX)
    Blend: AUG-CC-PVTZ-RI
    Molecular point group: c1

    Geometry (in Angstrom), charge = 0, multiplicity = 1:

       Center              X                  Y                   Z               Mass
    ------------   -----------------  -----------------  -----------------  -----------------
         BR          -0.919858879061     1.600133065384    -0.035049564774    78.918337600000
         BR          -0.925839879061    -1.598265934616    -0.035049564774    78.918337600000
         BR           1.847065120939    -0.004245934616    -0.035049564774    78.918337600000
         C           -0.009023979061     0.015710865384     0.553356035226    12.000000000000
         H            0.000453120939    -0.000792934616     1.645015435226     1.007825032230

  Basis Set: AUG-CC-PVTZ
    Blend: AUG-CC-PVTZ
  Basis Set: (AUG-CC-PVTZ AUX)
    Blend: AUG-CC-PVTZ-JKFIT
	 Reference Energy          =   -7755.8262668053093876 [Eh]
	 Singles Energy            =      -0.0000000000000000 [Eh]
	 Same-Spin Energy          =      -0.3107900608529027 [Eh]
	 Opposite-Spin Energy      =      -0.7453920463029791 [Eh]
	 Correlation Energy        =      -1.0561821071558817 [Eh]
	 Total Energy              =   -7756.8824489124654065 [Eh]

	 ================> DF-SCS-MP2 Energies <==================
	-----------------------------------------------------------
	 SCS Same-Spin Scale       =       0.3333333333333333 [-]
	 SCS Opposite-Spin Scale   =       1.2000000000000000 [-]
	 SCS Same-Spin Energy      =      -0.1035966869509676 [Eh]
	 SCS Opposite-Spin Energy  =      -0.8944704555635749 [Eh]
	 SCS Correlation Energy    =      -0.9980671425145424 [Eh]
	 SCS Total Energy          =   -7756.8243339478240159 [Eh]
	-----------------------------------------------------------

  Dipole Moment: [D]
     X:    -0.0483      Y:     0.0841      Z:     0.8603     Total:     0.8658

*** Psi4 exiting successfully. Buy a developer a beer!
