                               Psi4 1.3.2 release

  ==> Input File <==

--------------------------------------------------------------------------
#psi4
#
memory 32 gb

molecule  {
0 1
 Br       -0.9120368     1.5807303    -0.1109840
 Br       -0.9241640    -1.5990150    -0.0468890
 Br        1.8471120    -0.0006830    -0.0469030
  C        0.0001530    -0.0000030     0.5483590
  H        0.0001970     0.0000000     1.6336600
units angstrom
no_reorient  #important for SAPT in psi4, default
symmetry c1  #important for SAPT in psi4, default
}

set PROPERTIES_ORIGIN ["COM"]
properties('MP2/aug-cc-pvtz', properties = ['dipole'])
--------------------------------------------------------------------------

    Molecular point group: c1
  Charge       = 0
  Multiplicity = 1
  Basis Set: AUG-CC-PVTZ
    Blend: AUG-CC-PVTZ
  Basis Set: (AUG-CC-PVTZ AUX)
    Blend: AUG-CC-PVTZ-JKFIT

    Orbital Energies [Eh]
    ---------------------

    Doubly Occupied:

       1A   -490.049538     2A   -490.049084     3A   -490.049073
       4A    -65.189288     5A    -65.188848     6A    -65.188838
       7A    -58.544703     8A    -58.544257     9A    -58.544246
      10A    -58.543029    11A    -58.543022    12A    -58.542591
      13A    -58.542588    14A    -58.542580    15A    -58.542577
      16A    -11.419719    17A     -9.862108    18A     -9.861678
      19A     -9.861667    20A     -7.474181    21A     -7.473731
      22A     -7.473721    23A     -7.466357    24A     -7.466341
      25A     -7.465942    26A     -7.465932    27A     -7.465931
      28A     -7.465921    29A     -3.218171    30A     -3.217711
      31A     -3.217689    32A     -3.214130    33A     -3.214079
      34A     -3.213673    35A     -3.213663    36A     -3.213646
      37A     -3.213636    38A     -3.204017    39A     -3.204015
      40A     -3.203624    41A     -3.203623    42A     -3.203614
      43A     -3.203612    44A     -1.151996    45A     -1.025254
      46A     -1.024563    47A     -0.851719    48A     -0.640632
      49A     -0.570262    50A     -0.569361    51A     -0.456618
      52A     -0.455354    53A     -0.433030    54A     -0.421610
      55A     -0.420812    56A     -0.406848

  @DF-RHF Final Energy: -7755.82607234988154

   => Energetics <=

    Nuclear Repulsion Energy =            807.1434915391034792
    One-Electron Energy =              -12411.1102170873145951
    Two-Electron Energy =                3848.1406531983298009
    Total Energy =                      -7755.8260723498806328
  Basis Set: (AUG-CC-PVTZ AUX)
    Blend: AUG-CC-PVTZ-RI
    Molecular point group: c1

    Geometry (in Angstrom), charge = 0, multiplicity = 1:

       Center              X                  Y                   Z               Mass
    ------------   -----------------  -----------------  -----------------  -----------------
         BR          -0.915492591559     1.586723727065    -0.079218545511    78.918337600000
         BR          -0.927619791559    -1.593021572935    -0.015123545511    78.918337600000
         BR           1.843656208441     0.005310427065    -0.015137545511    78.918337600000
         C           -0.003302791559     0.005990427065     0.580124454489    12.000000000000
         H           -0.003258791559     0.005993427065     1.665425454489     1.007825032230

  Basis Set: AUG-CC-PVTZ
    Blend: AUG-CC-PVTZ
  Basis Set: (AUG-CC-PVTZ AUX)
    Blend: AUG-CC-PVTZ-JKFIT
	 Reference Energy          =   -7755.8260723498815423 [Eh]
	 Singles Energy            =      -0.0000000000000000 [Eh]
	 Same-Spin Energy          =      -0.3107914898718325 [Eh]
	 Opposite-Spin Energy      =      -0.7454401652618733 [Eh]
	 Correlation Energy        =      -1.0562316551337059 [Eh]
	 Total Energy              =   -7756.8823040050156123 [Eh]

	 ================> DF-SCS-MP2 Energies <==================
	-----------------------------------------------------------
	 SCS Same-Spin Scale       =       0.3333333333333333 [-]
	 SCS Opposite-Spin Scale   =       1.2000000000000000 [-]
	 SCS Same-Spin Energy      =      -0.1035971632906108 [Eh]
	 SCS Opposite-Spin Energy  =      -0.8945281983142479 [Eh]
	 SCS Correlation Energy    =      -0.9981253616048588 [Eh]
	 SCS Total Energy          =   -7756.8241977114867041 [Eh]
	-----------------------------------------------------------

  Dipole Moment: [D]
     X:    -0.0116      Y:     0.0203      Z:     0.8643     Total:     0.8646

*** Psi4 exiting successfully. Buy a developer a beer!
