                               Psi4 1.3.2 release

  ==> Input File <==

--------------------------------------------------------------------------
#psi4
#
memory 32 gb

molecule  {
0 1
 Br       -0.9229800     1.5996990    -0.0468890
 Br       -0.9241640    -1.5990150    -0.0468890
 Br        1.8471120    -0.0006830    -0.0469030
  C        0.0001530    -0.0000030     0.5483590
  H        0.0001970     0.0000000     1.6336600
units angstrom
no_reorient  #important for SAPT in psi4, default
symmetry c1  #important for SAPT in psi4, default
}

set PROPERTIES_ORIGIN ["COM"]
properties('MP2/aug-cc-pvtz', properties = ['dipole'])
--------------------------------------------------------------------------

    Molecular point group: c1
  Charge       = 0
  Multiplicity = 1
  Basis Set: AUG-CC-PVTZ
    Blend: AUG-CC-PVTZ
  Basis Set: (AUG-CC-PVTZ AUX)
    Blend: AUG-CC-PVTZ-JKFIT

    Orbital Energies [Eh]
    ---------------------

    Doubly Occupied:

       1A   -490.049566     2A   -490.049555     3A   -490.049554
       4A    -65.189311     5A    -65.189301     6A    -65.189300
       7A    -58.544724     8A    -58.544713     9A    -58.544713
      10A    -58.543054    11A    -58.543052    12A    -58.543043
      13A    -58.543043    14A    -58.543042    15A    -58.543041
      16A    -11.419392    17A     -9.862121    18A     -9.862113
      19A     -9.862108    20A     -7.474179    21A     -7.474170
      22A     -7.474167    23A     -7.466378    24A     -7.466370
      25A     -7.466368    26A     -7.466366    27A     -7.466361
      28A     -7.466359    29A     -3.218173    30A     -3.218144
      31A     -3.218138    32A     -3.214119    33A     -3.214110
      34A     -3.214107    35A     -3.214096    36A     -3.214086
      37A     -3.214084    38A     -3.204057    39A     -3.204056
      40A     -3.204048    41A     -3.204048    42A     -3.204045
      43A     -3.204043    44A     -1.151576    45A     -1.025395
      46A     -1.025373    47A     -0.851155    48A     -0.639640
      49A     -0.570100    50A     -0.570078    51A     -0.455724
      52A     -0.455699    53A     -0.431535    54A     -0.422378
      55A     -0.422355    56A     -0.407707

  @DF-RHF Final Energy: -7755.82646989820842

   => Energetics <=

    Nuclear Repulsion Energy =            804.8930318489799447
    One-Electron Energy =              -12406.5839298658866028
    Two-Electron Energy =                3845.8644281186975604
    Total Energy =                      -7755.8264698982093250
  Basis Set: (AUG-CC-PVTZ AUX)
    Blend: AUG-CC-PVTZ-RI
    Molecular point group: c1

    Geometry (in Angstrom), charge = 0, multiplicity = 1:

       Center              X                  Y                   Z               Mass
    ------------   -----------------  -----------------  -----------------  -----------------
         BR          -0.922978034755     1.599698828164    -0.035375841218    78.918337600000
         BR          -0.924162034755    -1.599015171836    -0.035375841218    78.918337600000
         BR           1.847113965245    -0.000683171836    -0.035389841218    78.918337600000
         C            0.000154965245    -0.000003171836     0.559872158782    12.000000000000
         H            0.000198965245    -0.000000171836     1.645173158782     1.007825032230

  Basis Set: AUG-CC-PVTZ
    Blend: AUG-CC-PVTZ
  Basis Set: (AUG-CC-PVTZ AUX)
    Blend: AUG-CC-PVTZ-JKFIT
	 Reference Energy          =   -7755.8264698982084155 [Eh]
	 Singles Energy            =      -0.0000000000000000 [Eh]
	 Same-Spin Energy          =      -0.3106955774185793 [Eh]
	 Opposite-Spin Energy      =      -0.7453473492434590 [Eh]
	 Correlation Energy        =      -1.0560429266620384 [Eh]
	 Total Energy              =   -7756.8825128248709007 [Eh]

	 ================> DF-SCS-MP2 Energies <==================
	-----------------------------------------------------------
	 SCS Same-Spin Scale       =       0.3333333333333333 [-]
	 SCS Opposite-Spin Scale   =       1.2000000000000000 [-]
	 SCS Same-Spin Energy      =      -0.1035651924728598 [Eh]
	 SCS Opposite-Spin Energy  =      -0.8944168190921508 [Eh]
	 SCS Correlation Energy    =      -0.9979820115650105 [Eh]
	 SCS Total Energy          =   -7756.8244519097734155 [Eh]
	-----------------------------------------------------------

  Dipole Moment: [D]
     X:     0.0002      Y:    -0.0000      Z:     0.8599     Total:     0.8599

*** Psi4 exiting successfully. Buy a developer a beer!
