                               Psi4 1.3.2 release

  ==> Input File <==

--------------------------------------------------------------------------
#psi4
#
memory 32 gb

molecule  {
0 1
 Br       -0.9490149     1.6448306     0.1494306
 Br       -0.9241640    -1.5990150    -0.0468890
 Br        1.8471120    -0.0006830    -0.0469030
  C        0.0001530    -0.0000030     0.5483590
  H        0.0001970     0.0000000     1.6336600
units angstrom
no_reorient  #important for SAPT in psi4, default
symmetry c1  #important for SAPT in psi4, default
}

set PROPERTIES_ORIGIN ["COM"]
properties('MP2/aug-cc-pvtz', properties = ['dipole'])
--------------------------------------------------------------------------

    Molecular point group: c1
  Charge       = 0
  Multiplicity = 1
  Basis Set: AUG-CC-PVTZ
    Blend: AUG-CC-PVTZ
  Basis Set: (AUG-CC-PVTZ AUX)
    Blend: AUG-CC-PVTZ-JKFIT

    Orbital Energies [Eh]
    ---------------------

    Doubly Occupied:

       1A   -490.050942     2A   -490.050931     3A   -490.049660
       4A    -65.190634     5A    -65.190624     6A    -65.189402
       7A    -58.546058     8A    -58.546048     9A    -58.544809
      10A    -58.544380    11A    -58.544372    12A    -58.544369
      13A    -58.544362    14A    -58.543159    15A    -58.543142
      16A    -11.418238    17A     -9.863390    18A     -9.863379
      19A     -9.862201    20A     -7.475465    21A     -7.475455
      22A     -7.474231    23A     -7.467638    24A     -7.467628
      25A     -7.467608    26A     -7.467598    27A     -7.466514
      28A     -7.466435    29A     -3.219467    30A     -3.219446
      31A     -3.218186    32A     -3.215415    33A     -3.215404
      34A     -3.215369    35A     -3.215359    36A     -3.214198
      37A     -3.214140    38A     -3.205290    39A     -3.205290
      40A     -3.205280    41A     -3.205279    42A     -3.204188
      43A     -3.204187    44A     -1.150652    45A     -1.027769
      46A     -1.025798    47A     -0.849455    48A     -0.637040
      49A     -0.571670    50A     -0.569625    51A     -0.456860
      52A     -0.453329    53A     -0.426919    54A     -0.426402
      55A     -0.424669    56A     -0.409925

  @DF-RHF Final Energy: -7755.82547833846911

   => Energetics <=

    Nuclear Repulsion Energy =            798.7805152114204930
    One-Electron Energy =              -12394.2814195715418464
    Two-Electron Energy =                3839.6754260216525836
    Total Energy =                      -7755.8254783384691109
  Basis Set: (AUG-CC-PVTZ AUX)
    Blend: AUG-CC-PVTZ-RI
    Molecular point group: c1

    Geometry (in Angstrom), charge = 0, multiplicity = 1:

       Center              X                  Y                   Z               Mass
    ------------   -----------------  -----------------  -----------------  -----------------
         BR          -0.940786606749     1.630570056700     0.098912046599    78.918337600000
         BR          -0.915935706749    -1.613275543300    -0.097407553401    78.918337600000
         BR           1.855340293251    -0.014943543300    -0.097421553401    78.918337600000
         C            0.008381293251    -0.014263543300     0.497840446599    12.000000000000
         H            0.008425293251    -0.014260543300     1.583141446599     1.007825032230

  Basis Set: AUG-CC-PVTZ
    Blend: AUG-CC-PVTZ
  Basis Set: (AUG-CC-PVTZ AUX)
    Blend: AUG-CC-PVTZ-JKFIT
	 Reference Energy          =   -7755.8254783384691109 [Eh]
	 Singles Energy            =      -0.0000000000000000 [Eh]
	 Same-Spin Energy          =      -0.3105158549997497 [Eh]
	 Opposite-Spin Energy      =      -0.7452697028094102 [Eh]
	 Correlation Energy        =      -1.0557855578091599 [Eh]
	 Total Energy              =   -7756.8812638962781421 [Eh]

	 ================> DF-SCS-MP2 Energies <==================
	-----------------------------------------------------------
	 SCS Same-Spin Scale       =       0.3333333333333333 [-]
	 SCS Opposite-Spin Scale   =       1.2000000000000000 [-]
	 SCS Same-Spin Energy      =      -0.1035052849999165 [Eh]
	 SCS Opposite-Spin Energy  =      -0.8943236433712922 [Eh]
	 SCS Correlation Energy    =      -0.9978289283712087 [Eh]
	 SCS Total Energy          =   -7756.8233072668399473 [Eh]
	-----------------------------------------------------------

  Dipole Moment: [D]
     X:     0.0351      Y:    -0.0606      Z:     0.8411     Total:     0.8441

*** Psi4 exiting successfully. Buy a developer a beer!
