                               Psi4 1.3.2 release

  ==> Input File <==

--------------------------------------------------------------------------
#psi4
#
memory 32 gb

molecule  {
0 1
 Br       -1.0145405     1.5191813    -0.1058713
 Br       -0.9241640    -1.5990150    -0.0468890
 Br        1.8471120    -0.0006830    -0.0469030
  C        0.0001530    -0.0000030     0.5483590
  H        0.0001970     0.0000000     1.6336600
units angstrom
no_reorient  #important for SAPT in psi4, default
symmetry c1  #important for SAPT in psi4, default
}

set PROPERTIES_ORIGIN ["COM"]
properties('MP2/aug-cc-pvtz', properties = ['dipole'])
--------------------------------------------------------------------------

    Molecular point group: c1
  Charge       = 0
  Multiplicity = 1
  Basis Set: AUG-CC-PVTZ
    Blend: AUG-CC-PVTZ
  Basis Set: (AUG-CC-PVTZ AUX)
    Blend: AUG-CC-PVTZ-JKFIT

    Orbital Energies [Eh]
    ---------------------

    Doubly Occupied:

       1A   -490.050964     2A   -490.049483     3A   -490.047210
       4A    -65.190670     5A    -65.189239     6A    -65.187037
       7A    -58.546088     8A    -58.544654     9A    -58.544418
      10A    -58.544410    11A    -58.542982    12A    -58.542966
      13A    -58.542436    14A    -58.540780    15A    -58.540766
      16A    -11.419647    17A     -9.863438    18A     -9.862067
      19A     -9.859935    20A     -7.475496    21A     -7.474145
      22A     -7.471989    23A     -7.467703    24A     -7.467665
      25A     -7.466334    26A     -7.466275    27A     -7.464225
      28A     -7.464180    29A     -3.219484    30A     -3.218136
      31A     -3.215951    32A     -3.215440    33A     -3.215414
      34A     -3.214111    35A     -3.214023    36A     -3.211954
      37A     -3.211872    38A     -3.205366    39A     -3.205364
      40A     -3.203967    41A     -3.203964    42A     -3.201891
      43A     -3.201888    44A     -1.152118    45A     -1.027942
      46A     -1.021816    47A     -0.851724    48A     -0.640573
      49A     -0.572588    50A     -0.567005    51A     -0.459180
      52A     -0.453000    53A     -0.433033    54A     -0.424316
      55A     -0.418840    56A     -0.405732

  @DF-RHF Final Energy: -7755.82530471380778

   => Energetics <=

    Nuclear Repulsion Energy =            807.3257244203257414
    One-Electron Energy =              -12411.4742676013211167
    Two-Electron Energy =                3848.3232384671878208
    Total Energy =                      -7755.8253047138077818
  Basis Set: (AUG-CC-PVTZ AUX)
    Blend: AUG-CC-PVTZ-RI
    Molecular point group: c1

    Geometry (in Angstrom), charge = 0, multiplicity = 1:

       Center              X                  Y                   Z               Mass
    ------------   -----------------  -----------------  -----------------  -----------------
         BR          -0.985607879928     1.544622555265    -0.075721321168    78.918337600000
         BR          -0.895231379928    -1.573573744735    -0.016739021168    78.918337600000
         BR           1.876044620072     0.024758255265    -0.016753021168    78.918337600000
         C            0.029085620072     0.025438255265     0.578508978832    12.000000000000
         H            0.029129620072     0.025441255265     1.663809978832     1.007825032230

  Basis Set: AUG-CC-PVTZ
    Blend: AUG-CC-PVTZ
  Basis Set: (AUG-CC-PVTZ AUX)
    Blend: AUG-CC-PVTZ-JKFIT
	 Reference Energy          =   -7755.8253047138077818 [Eh]
	 Singles Energy            =      -0.0000000000000000 [Eh]
	 Same-Spin Energy          =      -0.3108306135782049 [Eh]
	 Opposite-Spin Energy      =      -0.7455100993226402 [Eh]
	 Correlation Energy        =      -1.0563407129008451 [Eh]
	 Total Energy              =   -7756.8816454267089284 [Eh]

	 ================> DF-SCS-MP2 Energies <==================
	-----------------------------------------------------------
	 SCS Same-Spin Scale       =       0.3333333333333333 [-]
	 SCS Opposite-Spin Scale   =       1.2000000000000000 [-]
	 SCS Same-Spin Energy      =      -0.1036102045260683 [Eh]
	 SCS Opposite-Spin Energy  =      -0.8946121191871682 [Eh]
	 SCS Correlation Energy    =      -0.9982223237132365 [Eh]
	 SCS Total Energy          =   -7756.8235270375207620 [Eh]
	-----------------------------------------------------------

  Dipole Moment: [D]
     X:     0.0354      Y:     0.0455      Z:     0.8636     Total:     0.8655

*** Psi4 exiting successfully. Buy a developer a beer!
