                               Psi4 1.3.2 release

  ==> Input File <==

--------------------------------------------------------------------------
#psi4
#
memory 32 gb

molecule  {
0 1
 Br       -0.9414803     1.6317687     0.0833977
 Br       -0.9241640    -1.5990150    -0.0468890
 Br        1.8471120    -0.0006830    -0.0469030
  C        0.0001530    -0.0000030     0.5483590
  H        0.0001970     0.0000000     1.6336600
units angstrom
no_reorient  #important for SAPT in psi4, default
symmetry c1  #important for SAPT in psi4, default
}

set PROPERTIES_ORIGIN ["COM"]
properties('MP2/aug-cc-pvtz', properties = ['dipole'])
--------------------------------------------------------------------------

    Molecular point group: c1
  Charge       = 0
  Multiplicity = 1
  Basis Set: AUG-CC-PVTZ
    Blend: AUG-CC-PVTZ
  Basis Set: (AUG-CC-PVTZ AUX)
    Blend: AUG-CC-PVTZ-JKFIT

    Orbital Energies [Eh]
    ---------------------

    Doubly Occupied:

       1A   -490.050496     2A   -490.050485     3A   -490.049612
       4A    -65.190205     5A    -65.190195     6A    -65.189354
       7A    -58.545626     8A    -58.545615     9A    -58.544762
      10A    -58.543950    11A    -58.543945    12A    -58.543939
      13A    -58.543934    14A    -58.543106    15A    -58.543095
      16A    -11.418654    17A     -9.862978    18A     -9.862968
      19A     -9.862153    20A     -7.475047    21A     -7.475037
      22A     -7.474190    23A     -7.467229    24A     -7.467219
      25A     -7.467207    26A     -7.467197    27A     -7.466450
      28A     -7.466395    29A     -3.219044    30A     -3.219022
      31A     -3.218152    32A     -3.214992    33A     -3.214982
      34A     -3.214957    35A     -3.214947    36A     -3.214141
      37A     -3.214110    38A     -3.204891    39A     -3.204891
      40A     -3.204881    41A     -3.204880    42A     -3.204129
      43A     -3.204128    44A     -1.150904    45A     -1.026976
      46A     -1.025664    47A     -0.850024    48A     -0.637836
      49A     -0.571244    50A     -0.569777    51A     -0.456465
      52A     -0.454077    53A     -0.428354    54A     -0.425276
      55A     -0.423904    56A     -0.409240

  @DF-RHF Final Energy: -7755.82617130297967

   => Energetics <=

    Nuclear Repulsion Energy =            800.7129310659236126
    One-Electron Energy =              -12398.1723432212729676
    Two-Electron Energy =                3841.6332408523694539
    Total Energy =                      -7755.8261713029796738
  Basis Set: (AUG-CC-PVTZ AUX)
    Blend: AUG-CC-PVTZ-RI
    Molecular point group: c1

    Geometry (in Angstrom), charge = 0, multiplicity = 1:

       Center              X                  Y                   Z               Mass
    ------------   -----------------  -----------------  -----------------  -----------------
         BR          -0.935632737652     1.621635365707     0.053743766573    78.918337600000
         BR          -0.918316437652    -1.609148334293    -0.076542933427    78.918337600000
         BR           1.852959562348    -0.010816334293    -0.076556933427    78.918337600000
         C            0.006000562348    -0.010136334293     0.518705066573    12.000000000000
         H            0.006044562348    -0.010133334293     1.604006066573     1.007825032230

  Basis Set: AUG-CC-PVTZ
    Blend: AUG-CC-PVTZ
  Basis Set: (AUG-CC-PVTZ AUX)
    Blend: AUG-CC-PVTZ-JKFIT
	 Reference Energy          =   -7755.8261713029796738 [Eh]
	 Singles Energy            =      -0.0000000000000000 [Eh]
	 Same-Spin Energy          =      -0.3105575952752053 [Eh]
	 Opposite-Spin Energy      =      -0.7452614509768687 [Eh]
	 Correlation Energy        =      -1.0558190462520740 [Eh]
	 Total Energy              =   -7756.8819903492321828 [Eh]

	 ================> DF-SCS-MP2 Energies <==================
	-----------------------------------------------------------
	 SCS Same-Spin Scale       =       0.3333333333333333 [-]
	 SCS Opposite-Spin Scale   =       1.2000000000000000 [-]
	 SCS Same-Spin Energy      =      -0.1035191984250684 [Eh]
	 SCS Opposite-Spin Energy  =      -0.8943137411722424 [Eh]
	 SCS Correlation Energy    =      -0.9978329395973108 [Eh]
	 SCS Total Energy          =   -7756.8240042425768479 [Eh]
	-----------------------------------------------------------

  Dipole Moment: [D]
     X:     0.0236      Y:    -0.0406      Z:     0.8483     Total:     0.8496

*** Psi4 exiting successfully. Buy a developer a beer!
