                               Psi4 1.3.2 release

  ==> Input File <==

--------------------------------------------------------------------------
#psi4
#
memory 32 gb

molecule  {
0 1
 Br       -0.8868310     1.5370407    -0.2366869
 Br       -0.9241640    -1.5990150    -0.0468890
 Br        1.8471120    -0.0006830    -0.0469030
  C        0.0001530    -0.0000030     0.5483590
  H        0.0001970     0.0000000     1.6336600
units angstrom
no_reorient  #important for SAPT in psi4, default
symmetry c1  #important for SAPT in psi4, default
}

set PROPERTIES_ORIGIN ["COM"]
properties('MP2/aug-cc-pvtz', properties = ['dipole'])
--------------------------------------------------------------------------

    Molecular point group: c1
  Charge       = 0
  Multiplicity = 1
  Basis Set: AUG-CC-PVTZ
    Blend: AUG-CC-PVTZ
  Basis Set: (AUG-CC-PVTZ AUX)
    Blend: AUG-CC-PVTZ-JKFIT

    Orbital Energies [Eh]
    ---------------------

    Doubly Occupied:

       1A   -490.049515     2A   -490.048088     3A   -490.048078
       4A    -65.189280     5A    -65.187893     6A    -65.187883
       7A    -58.544700     8A    -58.543294     9A    -58.543284
      10A    -58.543015    11A    -58.542997    12A    -58.541637
      13A    -58.541628    14A    -58.541627    15A    -58.541618
      16A    -11.420295    17A     -9.862128    18A     -9.860767
      19A     -9.860756    20A     -7.474239    21A     -7.472812
      22A     -7.472802    23A     -7.466369    24A     -7.466307
      25A     -7.465052    26A     -7.465042    27A     -7.465020
      28A     -7.465010    29A     -3.218252    30A     -3.216783
      31A     -3.216759    32A     -3.214203    33A     -3.214099
      34A     -3.212766    35A     -3.212757    36A     -3.212715
      37A     -3.212705    38A     -3.203966    39A     -3.203962
      40A     -3.202731    41A     -3.202728    42A     -3.202721
      43A     -3.202718    44A     -1.153011    45A     -1.024993
      46A     -1.022884    47A     -0.852846    48A     -0.642746
      49A     -0.570617    50A     -0.567667    51A     -0.458593
      52A     -0.454765    53A     -0.435791    54A     -0.420111
      55A     -0.417524    56A     -0.404910

  @DF-RHF Final Energy: -7755.82416664864286

   => Energetics <=

    Nuclear Repulsion Energy =            811.9726582524621108
    One-Electron Energy =              -12420.8187280542388180
    Two-Electron Energy =                3853.0219031531337350
    Total Energy =                      -7755.8241666486428585
  Basis Set: (AUG-CC-PVTZ AUX)
    Blend: AUG-CC-PVTZ-RI
    Molecular point group: c1

    Geometry (in Angstrom), charge = 0, multiplicity = 1:

       Center              X                  Y                   Z               Mass
    ------------   -----------------  -----------------  -----------------  -----------------
         BR          -0.898251146269     1.556838865321    -0.165202710788    78.918337600000
         BR          -0.935584146269    -1.579216834679     0.024595189212    78.918337600000
         BR           1.835691853731     0.019115165321     0.024581189212    78.918337600000
         C           -0.011267146269     0.019795165321     0.619843189212    12.000000000000
         H           -0.011223146269     0.019798165321     1.705144189212     1.007825032230

  Basis Set: AUG-CC-PVTZ
    Blend: AUG-CC-PVTZ
  Basis Set: (AUG-CC-PVTZ AUX)
    Blend: AUG-CC-PVTZ-JKFIT
	 Reference Energy          =   -7755.8241666486428585 [Eh]
	 Singles Energy            =      -0.0000000000000000 [Eh]
	 Same-Spin Energy          =      -0.3110381145924107 [Eh]
	 Opposite-Spin Energy      =      -0.7457255262975286 [Eh]
	 Correlation Energy        =      -1.0567636408899395 [Eh]
	 Total Energy              =   -7756.8809302895324436 [Eh]

	 ================> DF-SCS-MP2 Energies <==================
	-----------------------------------------------------------
	 SCS Same-Spin Scale       =       0.3333333333333333 [-]
	 SCS Opposite-Spin Scale   =       1.2000000000000000 [-]
	 SCS Same-Spin Energy      =      -0.1036793715308036 [Eh]
	 SCS Opposite-Spin Energy  =      -0.8948706315570344 [Eh]
	 SCS Correlation Energy    =      -0.9985500030878379 [Eh]
	 SCS Total Energy          =   -7756.8227166517308433 [Eh]
	-----------------------------------------------------------

  Dipole Moment: [D]
     X:    -0.0347      Y:     0.0604      Z:     0.8703     Total:     0.8731

*** Psi4 exiting successfully. Buy a developer a beer!
