                               Psi4 1.3.2 release

  ==> Input File <==

--------------------------------------------------------------------------
#psi4
#
memory 32 gb

molecule  {
0 1
 Br       -0.9229800     1.5996990    -0.0468890
 Br       -0.9241640    -1.5990150    -0.0468890
 Br        1.8471120    -0.0006830    -0.0469030
  C       -0.0949908     0.1648722     0.4870090
  H        0.0001970     0.0000000     1.6336600
units angstrom
no_reorient  #important for SAPT in psi4, default
symmetry c1  #important for SAPT in psi4, default
}

set PROPERTIES_ORIGIN ["COM"]
properties('MP2/aug-cc-pvtz', properties = ['dipole'])
--------------------------------------------------------------------------

    Molecular point group: c1
  Charge       = 0
  Multiplicity = 1
  Basis Set: AUG-CC-PVTZ
    Blend: AUG-CC-PVTZ
  Basis Set: (AUG-CC-PVTZ AUX)
    Blend: AUG-CC-PVTZ-JKFIT

    Orbital Energies [Eh]
    ---------------------

    Doubly Occupied:

       1A   -490.066739     2A   -490.040282     3A   -490.040278
       4A    -65.207767     5A    -65.179839     6A    -65.179836
       7A    -58.562934     8A    -58.561522     9A    -58.561484
      10A    -58.535266    11A    -58.535263    12A    -58.533585
      13A    -58.533582    14A    -58.533578    15A    -58.533575
      16A    -11.423851    17A     -9.882597    18A     -9.852292
      19A     -9.852287    20A     -7.495070    21A     -7.487121
      22A     -7.486941    23A     -7.464170    24A     -7.464166
      25A     -7.456555    26A     -7.456552    27A     -7.456532
      28A     -7.456529    29A     -3.239232    30A     -3.234597
      31A     -3.234438    32A     -3.224832    33A     -3.224832
      34A     -3.208027    35A     -3.208012    36A     -3.204244
      37A     -3.204239    38A     -3.204182    39A     -3.204178
      40A     -3.194297    41A     -3.194294    42A     -3.194294
      43A     -3.194290    44A     -1.174702    45A     -1.039674
      46A     -1.007914    47A     -0.833978    48A     -0.646065
      49A     -0.583100    50A     -0.571059    51A     -0.461993
      52A     -0.444842    53A     -0.431802    54A     -0.417911
      55A     -0.415442    56A     -0.402728

  @DF-RHF Final Energy: -7755.80120851545416

   => Energetics <=

    Nuclear Repulsion Energy =            806.7230417171217596
    One-Electron Energy =              -12410.1697221962167532
    Two-Electron Energy =                3847.6454719636412847
    Total Energy =                      -7755.8012085154541637
  Basis Set: (AUG-CC-PVTZ AUX)
    Blend: AUG-CC-PVTZ-RI
    Molecular point group: c1

    Geometry (in Angstrom), charge = 0, multiplicity = 1:

       Center              X                  Y                   Z               Mass
    ------------   -----------------  -----------------  -----------------  -----------------
         BR          -0.918406795855     1.591777303820    -0.032428244985    78.918337600000
         BR          -0.919590795855    -1.606936696180    -0.032428244985    78.918337600000
         BR           1.851685204145    -0.008604696180    -0.032442244985    78.918337600000
         C           -0.090417595855     0.156950503820     0.501469755015    12.000000000000
         H            0.004770204145    -0.007921696180     1.648120755015     1.007825032230

  Basis Set: AUG-CC-PVTZ
    Blend: AUG-CC-PVTZ
  Basis Set: (AUG-CC-PVTZ AUX)
    Blend: AUG-CC-PVTZ-JKFIT
	 Reference Energy          =   -7755.8012085154541637 [Eh]
	 Singles Energy            =      -0.0000000000000000 [Eh]
	 Same-Spin Energy          =      -0.3128647202931792 [Eh]
	 Opposite-Spin Energy      =      -0.7478111402342977 [Eh]
	 Correlation Energy        =      -1.0606758605274771 [Eh]
	 Total Energy              =   -7756.8618843759813899 [Eh]

	 ================> DF-SCS-MP2 Energies <==================
	-----------------------------------------------------------
	 SCS Same-Spin Scale       =       0.3333333333333333 [-]
	 SCS Opposite-Spin Scale   =       1.2000000000000000 [-]
	 SCS Same-Spin Energy      =      -0.1042882400977264 [Eh]
	 SCS Opposite-Spin Energy  =      -0.8973733682811572 [Eh]
	 SCS Correlation Energy    =      -1.0016616083788836 [Eh]
	 SCS Total Energy          =   -7756.8028701238326903 [Eh]
	-----------------------------------------------------------

  Dipole Moment: [D]
     X:    -0.5224      Y:     0.9053      Z:     0.8612     Total:     1.3543

*** Psi4 exiting successfully. Buy a developer a beer!
