                               Psi4 1.4a3.dev225

  ==> Input File <==

--------------------------------------------------------------------------
#psi4
#
memory 32 gb

molecule  {
0 1
 Br       -0.9203150     1.6009260    -0.0468510
 Br       -0.9262960    -1.5974730    -0.0468510
 Br        1.8466090    -0.0034530    -0.0468510
  C        0.0000080    -0.0000010     0.5476840
  H       -0.0000032     0.0000000     1.6532140
units angstrom
no_reorient  #important for SAPT in psi4, default
symmetry c1  #important for SAPT in psi4, default
}

set PROPERTIES_ORIGIN ["COM"]
properties('MP2/aug-cc-pvtz', properties = ['dipole'])
--------------------------------------------------------------------------

    Molecular point group: c1
  Charge       = 0
  Multiplicity = 1
  Basis Set: AUG-CC-PVTZ
    Blend: AUG-CC-PVTZ
  Basis Set: (AUG-CC-PVTZ AUX)
    Blend: AUG-CC-PVTZ-JKFIT

    Orbital Energies [Eh]
    ---------------------

    Doubly Occupied:

       1A   -490.049533     2A   -490.049532     3A   -490.049532
       4A    -65.189280     5A    -65.189279     6A    -65.189279
       7A    -58.544693     8A    -58.544692     9A    -58.544692
      10A    -58.543022    11A    -58.543020    12A    -58.543020
      13A    -58.543020    14A    -58.543019    15A    -58.543019
      16A    -11.421072    17A     -9.862097    18A     -9.862096
      19A     -9.862090    20A     -7.474158    21A     -7.474157
      22A     -7.474154    23A     -7.466351    24A     -7.466348
      25A     -7.466348    26A     -7.466342    27A     -7.466341
      28A     -7.466339    29A     -3.218159    30A     -3.218128
      31A     -3.218127    32A     -3.214096    33A     -3.214095
      34A     -3.214091    35A     -3.214073    36A     -3.214072
      37A     -3.214069    38A     -3.204029    39A     -3.204027
      40A     -3.204026    41A     -3.204024    42A     -3.204023
      43A     -3.204020    44A     -1.150769    45A     -1.025400
      46A     -1.025398    47A     -0.846894    48A     -0.637399
      49A     -0.570109    50A     -0.570108    51A     -0.455650
      52A     -0.455649    53A     -0.430588    54A     -0.422372
      55A     -0.422370    56A     -0.407652

  @DF-RHF Final Energy: -7755.82577945076991

   => Energetics <=

    Nuclear Repulsion Energy =            804.8868387261021553
    One-Electron Energy =              -12406.5853565431771131
    Two-Electron Energy =                3845.8727383663044748
    Total Energy =                      -7755.8257794507699145
  Basis Set: (AUG-CC-PVTZ AUX)
    Blend: AUG-CC-PVTZ-RI
    Molecular point group: c1

    Geometry (in Angstrom), charge = 0, multiplicity = 1:

       Center              X                  Y                   Z               Mass
    ------------   -----------------  -----------------  -----------------  -----------------
         BR          -0.920314739506     1.600926048046    -0.035424757903    78.918337600000
         BR          -0.926295739506    -1.597472951954    -0.035424757903    78.918337600000
         BR           1.846609260494    -0.003452951954    -0.035424757903    78.918337600000
         C            0.000008260494    -0.000000951954     0.559110242097    12.000000000000
         H           -0.000002939506     0.000000048046     1.664640242097     1.007825032230

  Basis Set: AUG-CC-PVTZ
    Blend: AUG-CC-PVTZ
  Basis Set: (AUG-CC-PVTZ AUX)
    Blend: AUG-CC-PVTZ-JKFIT
	 Reference Energy          =   -7755.8257794507699145 [Eh]
	 Singles Energy            =      -0.0000000000000000 [Eh]
	 Same-Spin Energy          =      -0.3107784202002511 [Eh]
	 Opposite-Spin Energy      =      -0.7454403452893199 [Eh]
	 Correlation Energy        =      -1.0562187654895712 [Eh]
	 Total Energy              =   -7756.8819982162594897 [Eh]

	 ================> DF-SCS-MP2 Energies <==================
	-----------------------------------------------------------
	 SCS Same-Spin Scale       =       0.3333333333333333 [-]
	 SCS Opposite-Spin Scale   =       1.2000000000000000 [-]
	 SCS Same-Spin Energy      =      -0.1035928067334170 [Eh]
	 SCS Opposite-Spin Energy  =      -0.8945284143471839 [Eh]
	 SCS Correlation Energy    =      -0.9981212210806010 [Eh]
	 SCS Total Energy          =   -7756.8239006718504243 [Eh]
	-----------------------------------------------------------

  Dipole Moment: [D]
     X:     0.0000      Y:    -0.0000      Z:     0.8679     Total:     0.8679

*** Psi4 exiting successfully. Buy a developer a beer!
