                               Psi4 1.3.2 release

  ==> Input File <==

--------------------------------------------------------------------------
#psi4
#
memory 32 gb

molecule  {
0 1
 Br       -0.9463096     1.5802855    -0.0619179
 Br       -0.9241640    -1.5990150    -0.0468890
 Br        1.8471120    -0.0006830    -0.0469030
  C        0.0001530    -0.0000030     0.5483590
  H        0.0001970     0.0000000     1.6336600
units angstrom
no_reorient  #important for SAPT in psi4, default
symmetry c1  #important for SAPT in psi4, default
}

set PROPERTIES_ORIGIN ["COM"]
properties('MP2/aug-cc-pvtz', properties = ['dipole'])
--------------------------------------------------------------------------

    Molecular point group: c1
  Charge       = 0
  Multiplicity = 1
  Basis Set: AUG-CC-PVTZ
    Blend: AUG-CC-PVTZ
  Basis Set: (AUG-CC-PVTZ AUX)
    Blend: AUG-CC-PVTZ-JKFIT

    Orbital Energies [Eh]
    ---------------------

    Doubly Occupied:

       1A   -490.049919     2A   -490.049547     3A   -490.048975
       4A    -65.189655     5A    -65.189294     6A    -65.188740
       7A    -58.545069     8A    -58.544707     9A    -58.544149
      10A    -58.543397    11A    -58.543396    12A    -58.543036
      13A    -58.543032    14A    -58.542482    15A    -58.542478
      16A    -11.419468    17A     -9.862453    18A     -9.862106
      19A     -9.861570    20A     -7.474511    21A     -7.474168
      22A     -7.473627    23A     -7.466712    24A     -7.466697
      25A     -7.466364    26A     -7.466349    27A     -7.465832
      28A     -7.465823    29A     -3.218493    30A     -3.218150
      31A     -3.217602    32A     -3.214447    33A     -3.214433
      34A     -3.214112    35A     -3.214077    36A     -3.213572
      37A     -3.213536    38A     -3.204387    39A     -3.204387
      40A     -3.204036    41A     -3.204035    42A     -3.203513
      43A     -3.203512    44A     -1.151679    45A     -1.026029
      46A     -1.024510    47A     -0.851290    48A     -0.639869
      49A     -0.570728    50A     -0.569323    51A     -0.456541
      52A     -0.455018    53A     -0.431898    54A     -0.422828
      55A     -0.421401    56A     -0.407442

  @DF-RHF Final Energy: -7755.82635971340187

   => Energetics <=

    Nuclear Repulsion Energy =            805.4316190687231938
    One-Electron Energy =              -12407.6671503704583301
    Two-Electron Energy =                3846.4091715883337201
    Total Energy =                      -7755.8263597134027805
  Basis Set: (AUG-CC-PVTZ AUX)
    Blend: AUG-CC-PVTZ-RI
    Molecular point group: c1

    Geometry (in Angstrom), charge = 0, multiplicity = 1:

       Center              X                  Y                   Z               Mass
    ------------   -----------------  -----------------  -----------------  -----------------
         BR          -0.938936108771     1.586419471899    -0.045656013128    78.918337600000
         BR          -0.916790508771    -1.592881028101    -0.030627113128    78.918337600000
         BR           1.854485491229     0.005450971899    -0.030641113128    78.918337600000
         C            0.007526491229     0.006130971899     0.564620886872    12.000000000000
         H            0.007570491229     0.006133971899     1.649921886872     1.007825032230

  Basis Set: AUG-CC-PVTZ
    Blend: AUG-CC-PVTZ
  Basis Set: (AUG-CC-PVTZ AUX)
    Blend: AUG-CC-PVTZ-JKFIT
	 Reference Energy          =   -7755.8263597134018710 [Eh]
	 Singles Energy            =      -0.0000000000000000 [Eh]
	 Same-Spin Energy          =      -0.3107192960975547 [Eh]
	 Opposite-Spin Energy      =      -0.7453709486744186 [Eh]
	 Correlation Energy        =      -1.0560902447719731 [Eh]
	 Total Energy              =   -7756.8824499581742202 [Eh]

	 ================> DF-SCS-MP2 Energies <==================
	-----------------------------------------------------------
	 SCS Same-Spin Scale       =       0.3333333333333333 [-]
	 SCS Opposite-Spin Scale   =       1.2000000000000000 [-]
	 SCS Same-Spin Energy      =      -0.1035730986991849 [Eh]
	 SCS Opposite-Spin Energy  =      -0.8944451384093023 [Eh]
	 SCS Correlation Energy    =      -0.9980182371084871 [Eh]
	 SCS Total Energy          =   -7756.8243779505100974 [Eh]
	-----------------------------------------------------------

  Dipole Moment: [D]
     X:     0.0091      Y:     0.0115      Z:     0.8610     Total:     0.8611

*** Psi4 exiting successfully. Buy a developer a beer!
