                               Psi4 1.4a3.dev225

  ==> Input File <==

--------------------------------------------------------------------------
#psi4
#
memory 32 gb

molecule  {
0 1
 Br       -0.9203150     1.6009260    -0.0468510
 Br       -0.9262960    -1.5974730    -0.0468510
 Br        1.8466090    -0.0034530    -0.0468510
  C        0.0000080    -0.0000010     0.5476840
  H       -0.0000035     0.0000000     1.6832140
units angstrom
no_reorient  #important for SAPT in psi4, default
symmetry c1  #important for SAPT in psi4, default
}

set PROPERTIES_ORIGIN ["COM"]
properties('MP2/aug-cc-pvtz', properties = ['dipole'])
--------------------------------------------------------------------------

    Molecular point group: c1
  Charge       = 0
  Multiplicity = 1
  Basis Set: AUG-CC-PVTZ
    Blend: AUG-CC-PVTZ
  Basis Set: (AUG-CC-PVTZ AUX)
    Blend: AUG-CC-PVTZ-JKFIT

    Orbital Energies [Eh]
    ---------------------

    Doubly Occupied:

       1A   -490.049527     2A   -490.049525     3A   -490.049525
       4A    -65.189270     5A    -65.189269     6A    -65.189269
       7A    -58.544685     8A    -58.544683     9A    -58.544683
      10A    -58.543010    11A    -58.543009    12A    -58.543009
      13A    -58.543009    14A    -58.543008    15A    -58.543008
      16A    -11.423677    17A     -9.862086    18A     -9.862086
      19A     -9.862079    20A     -7.474152    21A     -7.474151
      22A     -7.474148    23A     -7.466336    24A     -7.466333
      25A     -7.466332    26A     -7.466326    27A     -7.466325
      28A     -7.466322    29A     -3.218157    30A     -3.218127
      31A     -3.218126    32A     -3.214089    33A     -3.214088
      34A     -3.214084    35A     -3.214066    36A     -3.214065
      37A     -3.214063    38A     -3.204008    39A     -3.204006
      40A     -3.204005    41A     -3.204003    42A     -3.204002
      43A     -3.203999    44A     -1.149402    45A     -1.025329
      46A     -1.025327    47A     -0.841023    48A     -0.633841
      49A     -0.569958    50A     -0.569957    51A     -0.455534
      52A     -0.455533    53A     -0.429244    54A     -0.422358
      55A     -0.422356    56A     -0.407610

  @DF-RHF Final Energy: -7755.82386548296563

   => Energetics <=

    Nuclear Repulsion Energy =            804.6323622788743251
    One-Electron Energy =              -12406.0940434806434496
    Two-Electron Energy =                3845.6378157188032674
    Total Energy =                      -7755.8238654829656298
  Basis Set: (AUG-CC-PVTZ AUX)
    Blend: AUG-CC-PVTZ-RI
    Molecular point group: c1

    Geometry (in Angstrom), charge = 0, multiplicity = 1:

       Center              X                  Y                   Z               Mass
    ------------   -----------------  -----------------  -----------------  -----------------
         BR          -0.920314738295     1.600926048046    -0.035545811745    78.918337600000
         BR          -0.926295738295    -1.597472951954    -0.035545811745    78.918337600000
         BR           1.846609261705    -0.003452951954    -0.035545811745    78.918337600000
         C            0.000008261705    -0.000000951954     0.558989188255    12.000000000000
         H           -0.000003238295     0.000000048046     1.694519188255     1.007825032230

  Basis Set: AUG-CC-PVTZ
    Blend: AUG-CC-PVTZ
  Basis Set: (AUG-CC-PVTZ AUX)
    Blend: AUG-CC-PVTZ-JKFIT
	 Reference Energy          =   -7755.8238654829656298 [Eh]
	 Singles Energy            =      -0.0000000000000000 [Eh]
	 Same-Spin Energy          =      -0.3108811908552644 [Eh]
	 Opposite-Spin Energy      =      -0.7456016541743176 [Eh]
	 Correlation Energy        =      -1.0564828450295820 [Eh]
	 Total Energy              =   -7756.8803483279953070 [Eh]

	 ================> DF-SCS-MP2 Energies <==================
	-----------------------------------------------------------
	 SCS Same-Spin Scale       =       0.3333333333333333 [-]
	 SCS Opposite-Spin Scale   =       1.2000000000000000 [-]
	 SCS Same-Spin Energy      =      -0.1036270636184215 [Eh]
	 SCS Opposite-Spin Energy  =      -0.8947219850091811 [Eh]
	 SCS Correlation Energy    =      -0.9983490486276025 [Eh]
	 SCS Total Energy          =   -7756.8222145315930902 [Eh]
	-----------------------------------------------------------

  Dipole Moment: [D]
     X:     0.0000      Y:    -0.0000      Z:     0.8790     Total:     0.8790

*** Psi4 exiting successfully. Buy a developer a beer!
