                               Psi4 1.3.2 release

  ==> Input File <==

--------------------------------------------------------------------------
#psi4
#
memory 32 gb

molecule  {
0 1
 Br       -0.8269221     1.6724231     0.0149933
 Br       -0.9241640    -1.5990150    -0.0468890
 Br        1.8471120    -0.0006830    -0.0469030
  C        0.0001530    -0.0000030     0.5483590
  H        0.0001970     0.0000000     1.6336600
units angstrom
no_reorient  #important for SAPT in psi4, default
symmetry c1  #important for SAPT in psi4, default
}

set PROPERTIES_ORIGIN ["COM"]
properties('MP2/aug-cc-pvtz', properties = ['dipole'])
--------------------------------------------------------------------------

    Molecular point group: c1
  Charge       = 0
  Multiplicity = 1
  Basis Set: AUG-CC-PVTZ
    Blend: AUG-CC-PVTZ
  Basis Set: (AUG-CC-PVTZ AUX)
    Blend: AUG-CC-PVTZ-JKFIT

    Orbital Energies [Eh]
    ---------------------

    Doubly Occupied:

       1A   -490.051834     2A   -490.049521     3A   -490.048129
       4A    -65.191509     5A    -65.189270     6A    -65.187917
       7A    -58.546934     8A    -58.545257     9A    -58.545247
      10A    -58.544681    11A    -58.543324    12A    -58.543019
      13A    -58.543006    14A    -58.541661    15A    -58.541650
      16A    -11.419016    17A     -9.864244    18A     -9.862082
      19A     -9.860774    20A     -7.476314    21A     -7.474134
      22A     -7.472834    23A     -7.468503    24A     -7.468451
      25A     -7.466370    26A     -7.466309    27A     -7.465046
      28A     -7.465018    29A     -3.220313    30A     -3.218107
      31A     -3.216806    32A     -3.216268    33A     -3.216219
      34A     -3.214099    35A     -3.214031    36A     -3.212793
      37A     -3.212724    38A     -3.206148    39A     -3.206146
      40A     -3.204030    41A     -3.204027    42A     -3.202714
      43A     -3.202713    44A     -1.151367    45A     -1.028679
      46A     -1.022859    47A     -0.850660    48A     -0.638768
      49A     -0.573020    50A     -0.567537    51A     -0.458481
      52A     -0.452712    53A     -0.430163    54A     -0.426366
      55A     -0.420872    56A     -0.407515

  @DF-RHF Final Energy: -7755.82577040316846

   => Energetics <=

    Nuclear Repulsion Energy =            803.1872038254564359
    One-Electron Energy =              -12403.1495640536777501
    Two-Electron Energy =                3844.1365898250519422
    Total Energy =                      -7755.8257704031693720
  Basis Set: (AUG-CC-PVTZ AUX)
    Blend: AUG-CC-PVTZ-RI
    Molecular point group: c1

    Geometry (in Angstrom), charge = 0, multiplicity = 1:

       Center              X                  Y                   Z               Mass
    ------------   -----------------  -----------------  -----------------  -----------------
         BR          -0.857271846991     1.649444068998     0.006953316748    78.918337600000
         BR          -0.954513746991    -1.621994031002    -0.054928983252    78.918337600000
         BR           1.816762253009    -0.023662031002    -0.054942983252    78.918337600000
         C           -0.030196746991    -0.022982031002     0.540319016748    12.000000000000
         H           -0.030152746991    -0.022979031002     1.625620016748     1.007825032230

  Basis Set: AUG-CC-PVTZ
    Blend: AUG-CC-PVTZ
  Basis Set: (AUG-CC-PVTZ AUX)
    Blend: AUG-CC-PVTZ-JKFIT
	 Reference Energy          =   -7755.8257704031684625 [Eh]
	 Singles Energy            =      -0.0000000000000000 [Eh]
	 Same-Spin Energy          =      -0.3106643172711060 [Eh]
	 Opposite-Spin Energy      =      -0.7453626791545271 [Eh]
	 Correlation Energy        =      -1.0560269964256332 [Eh]
	 Total Energy              =   -7756.8817973995937791 [Eh]

	 ================> DF-SCS-MP2 Energies <==================
	-----------------------------------------------------------
	 SCS Same-Spin Scale       =       0.3333333333333333 [-]
	 SCS Opposite-Spin Scale   =       1.2000000000000000 [-]
	 SCS Same-Spin Energy      =      -0.1035547724237020 [Eh]
	 SCS Opposite-Spin Energy  =      -0.8944352149854325 [Eh]
	 SCS Correlation Energy    =      -0.9979899874091346 [Eh]
	 SCS Total Energy          =   -7756.8237603905772630 [Eh]
	-----------------------------------------------------------

  Dipole Moment: [D]
     X:    -0.0364      Y:    -0.0467      Z:     0.8545     Total:     0.8566

*** Psi4 exiting successfully. Buy a developer a beer!
