                               Psi4 1.3.2 release

  ==> Input File <==

--------------------------------------------------------------------------
#psi4
#
memory 32 gb

molecule  {
0 1
 Br       -0.8993692     1.6186252    -0.0316787
 Br       -0.9241640    -1.5990150    -0.0468890
 Br        1.8471120    -0.0006830    -0.0469030
  C        0.0001530    -0.0000030     0.5483590
  H        0.0001970     0.0000000     1.6336600
units angstrom
no_reorient  #important for SAPT in psi4, default
symmetry c1  #important for SAPT in psi4, default
}

set PROPERTIES_ORIGIN ["COM"]
properties('MP2/aug-cc-pvtz', properties = ['dipole'])
--------------------------------------------------------------------------

    Molecular point group: c1
  Charge       = 0
  Multiplicity = 1
  Basis Set: AUG-CC-PVTZ
    Blend: AUG-CC-PVTZ
  Basis Set: (AUG-CC-PVTZ AUX)
    Blend: AUG-CC-PVTZ-JKFIT

    Orbital Energies [Eh]
    ---------------------

    Doubly Occupied:

       1A   -490.050131     2A   -490.049556     3A   -490.049210
       4A    -65.189859     5A    -65.189301     6A    -65.188966
       7A    -58.545274     8A    -58.544713     9A    -58.544377
      10A    -58.543602    11A    -58.543600    12A    -58.543045
      13A    -58.543042    14A    -58.542708    15A    -58.542705
      16A    -11.419309    17A     -9.862649    18A     -9.862110
      19A     -9.861786    20A     -7.474709    21A     -7.474165
      22A     -7.473845    23A     -7.466906    24A     -7.466888
      25A     -7.466374    26A     -7.466356    27A     -7.466043
      28A     -7.466039    29A     -3.218694    30A     -3.218143
      31A     -3.217822    32A     -3.214647    33A     -3.214629
      34A     -3.214107    35A     -3.214082    36A     -3.213789
      37A     -3.213755    38A     -3.204578    39A     -3.204577
      40A     -3.204051    41A     -3.204050    42A     -3.203724
      43A     -3.203723    44A     -1.151494    45A     -1.026222
      46A     -1.024761    47A     -0.851025    48A     -0.639416
      49A     -0.570827    50A     -0.569466    51A     -0.456387
      52A     -0.454933    53A     -0.431180    54A     -0.423342
      55A     -0.421953    56A     -0.407837

  @DF-RHF Final Energy: -7755.82646392017250

   => Energetics <=

    Nuclear Repulsion Energy =            804.3998380985556196
    One-Electron Energy =              -12405.5916390111942746
    Two-Electron Energy =                3845.3653369924659273
    Total Energy =                      -7755.8264639201725004
  Basis Set: (AUG-CC-PVTZ AUX)
    Blend: AUG-CC-PVTZ-RI
    Molecular point group: c1

    Geometry (in Angstrom), charge = 0, multiplicity = 1:

       Center              X                  Y                   Z               Mass
    ------------   -----------------  -----------------  -----------------  -----------------
         BR          -0.906827612374     1.612644858119    -0.024971586829    78.918337600000
         BR          -0.931622412374    -1.604995341881    -0.040181886829    78.918337600000
         BR           1.839653587626    -0.006663341881    -0.040195886829    78.918337600000
         C           -0.007305412374    -0.005983341881     0.555066113171    12.000000000000
         H           -0.007261412374    -0.005980341881     1.640367113171     1.007825032230

  Basis Set: AUG-CC-PVTZ
    Blend: AUG-CC-PVTZ
  Basis Set: (AUG-CC-PVTZ AUX)
    Blend: AUG-CC-PVTZ-JKFIT
	 Reference Energy          =   -7755.8264639201725004 [Eh]
	 Singles Energy            =      -0.0000000000000000 [Eh]
	 Same-Spin Energy          =      -0.3106783154863262 [Eh]
	 Opposite-Spin Energy      =      -0.7453348347057155 [Eh]
	 Correlation Energy        =      -1.0560131501920416 [Eh]
	 Total Energy              =   -7756.8824770703649847 [Eh]

	 ================> DF-SCS-MP2 Energies <==================
	-----------------------------------------------------------
	 SCS Same-Spin Scale       =       0.3333333333333333 [-]
	 SCS Opposite-Spin Scale   =       1.2000000000000000 [-]
	 SCS Same-Spin Energy      =      -0.1035594384954421 [Eh]
	 SCS Opposite-Spin Energy  =      -0.8944018016468586 [Eh]
	 SCS Correlation Energy    =      -0.9979612401423006 [Eh]
	 SCS Total Energy          =   -7756.8244251603146040 [Eh]
	-----------------------------------------------------------

  Dipole Moment: [D]
     X:    -0.0089      Y:    -0.0116      Z:     0.8587     Total:     0.8588

*** Psi4 exiting successfully. Buy a developer a beer!
