                               Psi4 1.3.2 release

  ==> Input File <==

--------------------------------------------------------------------------
#psi4
#
memory 32 gb

molecule  {
0 1
  O       -2.3409430    -1.1152500    -0.1201430
  C       -1.5156830    -0.0261920     0.3177710
  C       -0.1702520    -0.2529640    -0.2898400
  C        2.3348890    -0.4444240    -0.1997250
  C        0.9740050    -0.2811540     0.4036300
  C       -2.1103090     1.3065560    -0.1212920
  C        3.2132980     0.7871720     0.0273270
  H       -1.4208040    -0.0402330     1.4151950
  H       -0.1609320    -0.3839550    -1.3725900
  H        2.2351040    -0.6390970    -1.2733090
  H        2.8261900    -1.3231820     0.2368400
  H        0.9367840    -0.1585690     1.4880300
  H       -1.4764410     2.1380570     0.1977940
  H       -2.2008650     1.3268630    -1.2105240
  H       -3.1068830     1.4512670     0.3117270
  H        3.3300870     0.9922950     1.0954650
  H        2.7636150     1.6688370    -0.4368240
  H        4.2103780     0.6456890    -0.3991480
  H       -3.2411570    -0.9446250     0.2124840
units angstrom
no_reorient  #important for SAPT in psi4, default
symmetry c1  #important for SAPT in psi4, default
}

set PROPERTIES_ORIGIN ["COM"]
properties('MP2/aug-cc-pvtz', properties = ['dipole'])
--------------------------------------------------------------------------

    Molecular point group: c1
  Charge       = 0
  Multiplicity = 1
  Basis Set: AUG-CC-PVTZ
    Blend: AUG-CC-PVTZ
  Basis Set: (AUG-CC-PVTZ AUX)
    Blend: AUG-CC-PVTZ-JKFIT

    Orbital Energies [Eh]
    ---------------------

    Doubly Occupied:

       1A    -20.555296     2A    -11.282830     3A    -11.227680
       4A    -11.224464     5A    -11.220880     6A    -11.219326
       7A    -11.215246     8A     -1.354076     9A     -1.090028
      10A     -1.033580    11A     -0.971156    12A     -0.875878
      13A     -0.810405    14A     -0.755057    15A     -0.681607
      16A     -0.633540    17A     -0.624645    18A     -0.598268
      19A     -0.589249    20A     -0.543103    21A     -0.539802
      22A     -0.531187    23A     -0.516485    24A     -0.501872
      25A     -0.481950    26A     -0.462667    27A     -0.443704
      28A     -0.349826

  @DF-RHF Final Energy:  -309.14943729358464

   => Energetics <=

    Nuclear Repulsion Energy =            299.2127668165194336
    One-Electron Energy =               -1012.0567997238077851
    Two-Electron Energy =                 403.6945956137037115
    Total Energy =                       -309.1494372935846400
  Basis Set: (AUG-CC-PVTZ AUX)
    Blend: AUG-CC-PVTZ-RI
    Molecular point group: c1

    Geometry (in Angstrom), charge = 0, multiplicity = 1:

       Center              X                  Y                   Z               Mass
    ------------   -----------------  -----------------  -----------------  -----------------
         O           -2.340943076999    -1.115249850766    -0.120142897110    15.994914619570
         C           -1.515683076999    -0.026191850766     0.317771102890    12.000000000000
         C           -0.170252076999    -0.252963850766    -0.289839897110    12.000000000000
         C            2.334888923001    -0.444423850766    -0.199724897110    12.000000000000
         C            0.974004923001    -0.281153850766     0.403630102890    12.000000000000
         C           -2.110309076999     1.306556149234    -0.121291897110    12.000000000000
         C            3.213297923001     0.787172149234     0.027327102890    12.000000000000
         H           -1.420804076999    -0.040232850766     1.415195102890     1.007825032230
         H           -0.160932076999    -0.383954850766    -1.372589897110     1.007825032230
         H            2.235103923001    -0.639096850766    -1.273308897110     1.007825032230
         H            2.826189923001    -1.323181850766     0.236840102890     1.007825032230
         H            0.936783923001    -0.158568850766     1.488030102890     1.007825032230
         H           -1.476441076999     2.138057149234     0.197794102890     1.007825032230
         H           -2.200865076999     1.326863149234    -1.210523897110     1.007825032230
         H           -3.106883076999     1.451267149234     0.311727102890     1.007825032230
         H            3.330086923001     0.992295149234     1.095465102890     1.007825032230
         H            2.763614923001     1.668837149234    -0.436823897110     1.007825032230
         H            4.210377923001     0.645689149234    -0.399147897110     1.007825032230
         H           -3.241157076999    -0.944624850766     0.212484102890     1.007825032230

  Basis Set: AUG-CC-PVTZ
    Blend: AUG-CC-PVTZ
  Basis Set: (AUG-CC-PVTZ AUX)
    Blend: AUG-CC-PVTZ-JKFIT
	 Reference Energy          =    -309.1494372935846400 [Eh]
	 Singles Energy            =      -0.0000000000000000 [Eh]
	 Same-Spin Energy          =      -0.3165313347654675 [Eh]
	 Opposite-Spin Energy      =      -1.1023707307041382 [Eh]
	 Correlation Energy        =      -1.4189020654696056 [Eh]
	 Total Energy              =    -310.5683393590542209 [Eh]

	 ================> DF-SCS-MP2 Energies <==================
	-----------------------------------------------------------
	 SCS Same-Spin Scale       =       0.3333333333333333 [-]
	 SCS Opposite-Spin Scale   =       1.2000000000000000 [-]
	 SCS Same-Spin Energy      =      -0.1055104449218225 [Eh]
	 SCS Opposite-Spin Energy  =      -1.3228448768449657 [Eh]
	 SCS Correlation Energy    =      -1.4283553217667881 [Eh]
	 SCS Total Energy          =    -310.5777926153514272 [Eh]
	-----------------------------------------------------------

  Dipole Moment: [D]
     X:    -0.0953      Y:     1.3793      Z:     0.8141     Total:     1.6045

*** Psi4 exiting successfully. Buy a developer a beer!
