                               Psi4 1.3.2 release

  ==> Input File <==

--------------------------------------------------------------------------
#psi4
#
memory 32 gb

molecule  {
0 1
  O       -2.3409430    -1.1152500    -0.1201430
  C       -1.5156830    -0.0261920     0.3177710
  C       -0.1702520    -0.2529640    -0.2898400
  C        2.3348890    -0.4444240    -0.1997250
  C        0.9740050    -0.2811540     0.4036300
  C       -2.1103090     1.3065560    -0.1212920
  C        3.2132980     0.7871720     0.0273270
  H       -1.4208040    -0.0402330     1.4151950
  H       -0.1609320    -0.3839550    -1.3725900
  H        2.2351040    -0.6390970    -1.2733090
  H        2.8261900    -1.3231820     0.2368400
  H        0.9169195    -0.4064673     1.5135611
  H       -1.4764410     2.1380570     0.1977940
  H       -2.2008650     1.3268630    -1.2105240
  H       -3.1068830     1.4512670     0.3117270
  H        3.3300870     0.9922950     1.0954650
  H        2.7636150     1.6688370    -0.4368240
  H        4.2103780     0.6456890    -0.3991480
  H       -3.2411570    -0.9446250     0.2124840
units angstrom
no_reorient  #important for SAPT in psi4, default
symmetry c1  #important for SAPT in psi4, default
}

set PROPERTIES_ORIGIN ["COM"]
properties('MP2/aug-cc-pvtz', properties = ['dipole'])
--------------------------------------------------------------------------

    Molecular point group: c1
  Charge       = 0
  Multiplicity = 1
  Basis Set: AUG-CC-PVTZ
    Blend: AUG-CC-PVTZ
  Basis Set: (AUG-CC-PVTZ AUX)
    Blend: AUG-CC-PVTZ-JKFIT

    Orbital Energies [Eh]
    ---------------------

    Doubly Occupied:

       1A    -20.555494     2A    -11.283252     3A    -11.230266
       4A    -11.224375     5A    -11.222322     6A    -11.219672
       7A    -11.214522     8A     -1.354399     9A     -1.089631
      10A     -1.033621    11A     -0.971252    12A     -0.875911
      13A     -0.809969    14A     -0.751683    15A     -0.680696
      16A     -0.633703    17A     -0.624505    18A     -0.598415
      19A     -0.588643    20A     -0.543178    21A     -0.537920
      22A     -0.533568    23A     -0.515635    24A     -0.502148
      25A     -0.479058    26A     -0.461661    27A     -0.443703
      28A     -0.349467

  @DF-RHF Final Energy:  -309.14542451019491

   => Energetics <=

    Nuclear Repulsion Energy =            299.0441175772545535
    One-Electron Energy =               -1011.7217475006431187
    Two-Electron Energy =                 403.5322054131937080
    Total Energy =                       -309.1454245101949141
  Basis Set: (AUG-CC-PVTZ AUX)
    Blend: AUG-CC-PVTZ-RI
    Molecular point group: c1

    Geometry (in Angstrom), charge = 0, multiplicity = 1:

       Center              X                  Y                   Z               Mass
    ------------   -----------------  -----------------  -----------------  -----------------
         O           -2.340743055245    -1.112753686613    -0.120399977601    15.994914619570
         C           -1.515483055245    -0.023695686613     0.317514022399    12.000000000000
         C           -0.170052055245    -0.250467686613    -0.290096977601    12.000000000000
         C            2.335088944755    -0.441927686613    -0.199981977601    12.000000000000
         C            0.974204944755    -0.278657686613     0.403373022399    12.000000000000
         C           -2.110109055245     1.309052313387    -0.121548977601    12.000000000000
         C            3.213497944755     0.789668313387     0.027070022399    12.000000000000
         H           -1.420604055245    -0.037736686613     1.414938022399     1.007825032230
         H           -0.160732055245    -0.381458686613    -1.372846977601     1.007825032230
         H            2.235303944755    -0.636600686613    -1.273565977601     1.007825032230
         H            2.826389944755    -1.320685686613     0.236583022399     1.007825032230
         H            0.917119444755    -0.403970986613     1.513304122399     1.007825032230
         H           -1.476241055245     2.140553313387     0.197537022399     1.007825032230
         H           -2.200665055245     1.329359313387    -1.210780977601     1.007825032230
         H           -3.106683055245     1.453763313387     0.311470022399     1.007825032230
         H            3.330286944755     0.994791313387     1.095208022399     1.007825032230
         H            2.763814944755     1.671333313387    -0.437080977601     1.007825032230
         H            4.210577944755     0.648185313387    -0.399404977601     1.007825032230
         H           -3.240957055245    -0.942128686613     0.212227022399     1.007825032230

  Basis Set: AUG-CC-PVTZ
    Blend: AUG-CC-PVTZ
  Basis Set: (AUG-CC-PVTZ AUX)
    Blend: AUG-CC-PVTZ-JKFIT
	 Reference Energy          =    -309.1454245101949141 [Eh]
	 Singles Energy            =      -0.0000000000000000 [Eh]
	 Same-Spin Energy          =      -0.3167084323621422 [Eh]
	 Opposite-Spin Energy      =      -1.1029189860268613 [Eh]
	 Correlation Energy        =      -1.4196274183890036 [Eh]
	 Total Energy              =    -310.5650519285838982 [Eh]

	 ================> DF-SCS-MP2 Energies <==================
	-----------------------------------------------------------
	 SCS Same-Spin Scale       =       0.3333333333333333 [-]
	 SCS Opposite-Spin Scale   =       1.2000000000000000 [-]
	 SCS Same-Spin Energy      =      -0.1055694774540474 [Eh]
	 SCS Opposite-Spin Energy  =      -1.3235027832322335 [Eh]
	 SCS Correlation Energy    =      -1.4290722606862809 [Eh]
	 SCS Total Energy          =    -310.5744967708811828 [Eh]
	-----------------------------------------------------------

  Dipole Moment: [D]
     X:    -0.1441      Y:     1.2356      Z:     0.8003     Total:     1.4791

*** Psi4 exiting successfully. Buy a developer a beer!
