                               Psi4 1.3.2 release

  ==> Input File <==

--------------------------------------------------------------------------
#psi4
#
memory 32 gb

molecule  {
0 1
  O       -2.3409430    -1.1152500    -0.1201430
  C       -1.5156830    -0.0261920     0.3177710
  C       -0.1702520    -0.2529640    -0.2898400
  C        2.3348890    -0.4444240    -0.1997250
  C        0.9740050    -0.2811540     0.4036300
  C       -2.1103090     1.3065560    -0.1212920
  C        3.2132980     0.7871720     0.0273270
  H       -1.4208040    -0.0402330     1.4151950
  H       -0.1346001    -0.1372986    -1.4036907
  H        2.2351040    -0.6390970    -1.2733090
  H        2.8261900    -1.3231820     0.2368400
  H        0.9367840    -0.1585690     1.4880300
  H       -1.4764410     2.1380570     0.1977940
  H       -2.2008650     1.3268630    -1.2105240
  H       -3.1068830     1.4512670     0.3117270
  H        3.3300870     0.9922950     1.0954650
  H        2.7636150     1.6688370    -0.4368240
  H        4.2103780     0.6456890    -0.3991480
  H       -3.2411570    -0.9446250     0.2124840
units angstrom
no_reorient  #important for SAPT in psi4, default
symmetry c1  #important for SAPT in psi4, default
}

set PROPERTIES_ORIGIN ["COM"]
properties('MP2/aug-cc-pvtz', properties = ['dipole'])
--------------------------------------------------------------------------

    Molecular point group: c1
  Charge       = 0
  Multiplicity = 1
  Basis Set: AUG-CC-PVTZ
    Blend: AUG-CC-PVTZ
  Basis Set: (AUG-CC-PVTZ AUX)
    Blend: AUG-CC-PVTZ-JKFIT

    Orbital Energies [Eh]
    ---------------------

    Doubly Occupied:

       1A    -20.554426     2A    -11.282817     3A    -11.229346
       4A    -11.225000     5A    -11.224055     6A    -11.219723
       7A    -11.215781     8A     -1.353242     9A     -1.090449
      10A     -1.034016    11A     -0.971062    12A     -0.875923
      13A     -0.810940    14A     -0.751678    15A     -0.681540
      16A     -0.633661    17A     -0.626104    18A     -0.598326
      19A     -0.586146    20A     -0.543263    21A     -0.538761
      22A     -0.528610    23A     -0.517261    24A     -0.502292
      25A     -0.482400    26A     -0.463704    27A     -0.441606
      28A     -0.350423

  @DF-RHF Final Energy:  -309.14533700430798

   => Energetics <=

    Nuclear Repulsion Energy =            299.1260472645064965
    One-Electron Energy =               -1011.8776613851423463
    Two-Electron Energy =                 403.6062771163278740
    Total Energy =                       -309.1453370043079758
  Basis Set: (AUG-CC-PVTZ AUX)
    Blend: AUG-CC-PVTZ-RI
    Molecular point group: c1

    Geometry (in Angstrom), charge = 0, multiplicity = 1:

       Center              X                  Y                   Z               Mass
    ------------   -----------------  -----------------  -----------------  -----------------
         O           -2.341208220991    -1.117733509847    -0.119829734606    15.994914619570
         C           -1.515948220991    -0.028675509847     0.318084265394    12.000000000000
         C           -0.170517220991    -0.255447509847    -0.289526734606    12.000000000000
         C            2.334623779009    -0.446907509847    -0.199411734606    12.000000000000
         C            0.973739779009    -0.283637509847     0.403943265394    12.000000000000
         C           -2.110574220991     1.304072490153    -0.120978734606    12.000000000000
         C            3.213032779009     0.784688490153     0.027640265394    12.000000000000
         H           -1.421069220991    -0.042716509847     1.415508265394     1.007825032230
         H           -0.134865320991    -0.139782109847    -1.403377434606     1.007825032230
         H            2.234838779009    -0.641580509847    -1.272995734606     1.007825032230
         H            2.825924779009    -1.325665509847     0.237153265394     1.007825032230
         H            0.936518779009    -0.161052509847     1.488343265394     1.007825032230
         H           -1.476706220991     2.135573490153     0.198107265394     1.007825032230
         H           -2.201130220991     1.324379490153    -1.210210734606     1.007825032230
         H           -3.107148220991     1.448783490153     0.312040265394     1.007825032230
         H            3.329821779009     0.989811490153     1.095778265394     1.007825032230
         H            2.763349779009     1.666353490153    -0.436510734606     1.007825032230
         H            4.210112779009     0.643205490153    -0.398834734606     1.007825032230
         H           -3.241422220991    -0.947108509847     0.212797265394     1.007825032230

  Basis Set: AUG-CC-PVTZ
    Blend: AUG-CC-PVTZ
  Basis Set: (AUG-CC-PVTZ AUX)
    Blend: AUG-CC-PVTZ-JKFIT
	 Reference Energy          =    -309.1453370043079758 [Eh]
	 Singles Energy            =      -0.0000000000000000 [Eh]
	 Same-Spin Energy          =      -0.3167635302125745 [Eh]
	 Opposite-Spin Energy      =      -1.1030015121904784 [Eh]
	 Correlation Energy        =      -1.4197650424030530 [Eh]
	 Total Energy              =    -310.5651020467110470 [Eh]

	 ================> DF-SCS-MP2 Energies <==================
	-----------------------------------------------------------
	 SCS Same-Spin Scale       =       0.3333333333333333 [-]
	 SCS Opposite-Spin Scale   =       1.2000000000000000 [-]
	 SCS Same-Spin Energy      =      -0.1055878434041915 [Eh]
	 SCS Opposite-Spin Energy  =      -1.3236018146285740 [Eh]
	 SCS Correlation Energy    =      -1.4291896580327654 [Eh]
	 SCS Total Energy          =    -310.5745266623407588 [Eh]
	-----------------------------------------------------------

  Dipole Moment: [D]
     X:    -0.0348      Y:     1.5329      Z:     0.8419     Total:     1.7493

*** Psi4 exiting successfully. Buy a developer a beer!
