                               Psi4 1.3.2 release

  ==> Input File <==

--------------------------------------------------------------------------
#psi4
#
memory 32 gb

molecule  {
0 1
  O       -2.3409430    -1.1152500    -0.1201430
  C       -1.5156830    -0.0261920     0.3177710
  C       -0.1702520    -0.2529640    -0.2898400
  C        2.3348890    -0.4444240    -0.1997250
  C        0.9740050    -0.2811540     0.4036300
  C       -2.1103090     1.3065560    -0.1212920
  C        3.2132980     0.7871720     0.0273270
  H       -1.4208040    -0.0402330     1.4151950
  H       -0.1451328    -0.2359612    -1.3912504
  H        2.2351040    -0.6390970    -1.2733090
  H        2.8261900    -1.3231820     0.2368400
  H        0.9367840    -0.1585690     1.4880300
  H       -1.4764410     2.1380570     0.1977940
  H       -2.2008650     1.3268630    -1.2105240
  H       -3.1068830     1.4512670     0.3117270
  H        3.3300870     0.9922950     1.0954650
  H        2.7636150     1.6688370    -0.4368240
  H        4.2103780     0.6456890    -0.3991480
  H       -3.2411570    -0.9446250     0.2124840
units angstrom
no_reorient  #important for SAPT in psi4, default
symmetry c1  #important for SAPT in psi4, default
}

set PROPERTIES_ORIGIN ["COM"]
properties('MP2/aug-cc-pvtz', properties = ['dipole'])
--------------------------------------------------------------------------

    Molecular point group: c1
  Charge       = 0
  Multiplicity = 1
  Basis Set: AUG-CC-PVTZ
    Blend: AUG-CC-PVTZ
  Basis Set: (AUG-CC-PVTZ AUX)
    Blend: AUG-CC-PVTZ-JKFIT

    Orbital Energies [Eh]
    ---------------------

    Doubly Occupied:

       1A    -20.554787     2A    -11.282798     3A    -11.228396
       4A    -11.224712     5A    -11.222154     6A    -11.219593
       7A    -11.215492     8A     -1.353588     9A     -1.090279
      10A     -1.033837    11A     -0.971101    12A     -0.875889
      13A     -0.810696    14A     -0.753832    15A     -0.681550
      16A     -0.633561    17A     -0.625736    18A     -0.598171
      19A     -0.587733    20A     -0.543194    21A     -0.539209
      22A     -0.530232    23A     -0.516919    24A     -0.502124
      25A     -0.482177    26A     -0.463346    27A     -0.442517
      28A     -0.350348

  @DF-RHF Final Energy:  -309.14802948337910

   => Energetics <=

    Nuclear Repulsion Energy =            299.1856714711385621
    One-Electron Energy =               -1011.9994582388991375
    Two-Electron Energy =                 403.6657572843814705
    Total Energy =                       -309.1480294833791049
  Basis Set: (AUG-CC-PVTZ AUX)
    Blend: AUG-CC-PVTZ-RI
    Molecular point group: c1

    Geometry (in Angstrom), charge = 0, multiplicity = 1:

       Center              X                  Y                   Z               Mass
    ------------   -----------------  -----------------  -----------------  -----------------
         O           -2.341102163998    -1.116740045812    -0.119954999809    15.994914619570
         C           -1.515842163998    -0.027682045812     0.317959000191    12.000000000000
         C           -0.170411163998    -0.254454045812    -0.289651999809    12.000000000000
         C            2.334729836002    -0.445914045812    -0.199536999809    12.000000000000
         C            0.973845836002    -0.282644045812     0.403818000191    12.000000000000
         C           -2.110468163998     1.305065954188    -0.121103999809    12.000000000000
         C            3.213138836002     0.785681954188     0.027515000191    12.000000000000
         H           -1.420963163998    -0.041723045812     1.415383000191     1.007825032230
         H           -0.145291963998    -0.237451245812    -1.391062399809     1.007825032230
         H            2.234944836002    -0.640587045812    -1.273120999809     1.007825032230
         H            2.826030836002    -1.324672045812     0.237028000191     1.007825032230
         H            0.936624836002    -0.160059045812     1.488218000191     1.007825032230
         H           -1.476600163998     2.136566954188     0.197982000191     1.007825032230
         H           -2.201024163998     1.325372954188    -1.210335999809     1.007825032230
         H           -3.107042163998     1.449776954188     0.311915000191     1.007825032230
         H            3.329927836002     0.990804954188     1.095653000191     1.007825032230
         H            2.763455836002     1.667346954188    -0.436635999809     1.007825032230
         H            4.210218836002     0.644198954188    -0.398959999809     1.007825032230
         H           -3.241316163998    -0.946115045812     0.212672000191     1.007825032230

  Basis Set: AUG-CC-PVTZ
    Blend: AUG-CC-PVTZ
  Basis Set: (AUG-CC-PVTZ AUX)
    Blend: AUG-CC-PVTZ-JKFIT
	 Reference Energy          =    -309.1480294833791049 [Eh]
	 Singles Energy            =      -0.0000000000000000 [Eh]
	 Same-Spin Energy          =      -0.3166187059199590 [Eh]
	 Opposite-Spin Energy      =      -1.1026138719162013 [Eh]
	 Correlation Energy        =      -1.4192325778361603 [Eh]
	 Total Energy              =    -310.5672620612152741 [Eh]

	 ================> DF-SCS-MP2 Energies <==================
	-----------------------------------------------------------
	 SCS Same-Spin Scale       =       0.3333333333333333 [-]
	 SCS Opposite-Spin Scale   =       1.2000000000000000 [-]
	 SCS Same-Spin Energy      =      -0.1055395686399863 [Eh]
	 SCS Opposite-Spin Energy  =      -1.3231366462994416 [Eh]
	 SCS Correlation Energy    =      -1.4286762149394279 [Eh]
	 SCS Total Energy          =    -310.5767056983185057 [Eh]
	-----------------------------------------------------------

  Dipole Moment: [D]
     X:    -0.0626      Y:     1.4729      Z:     0.8223     Total:     1.6880

*** Psi4 exiting successfully. Buy a developer a beer!
