                               Psi4 1.3.2 release

  ==> Input File <==

--------------------------------------------------------------------------
#psi4
#
memory 32 gb

molecule  {
0 1
  O       -2.3409430    -1.1152500    -0.1201430
  C       -1.5156830    -0.0261920     0.3177710
  C       -0.1702520    -0.2529640    -0.2898400
  C        2.3348890    -0.4444240    -0.1997250
  C        0.9740050    -0.2811540     0.4036300
  C       -2.1103090     1.3065560    -0.1212920
  C        3.2132980     0.7871720     0.0273270
  H       -1.4208040    -0.0402330     1.4151950
  H       -0.1503992    -0.2852924    -1.3850303
  H        2.2351040    -0.6390970    -1.2733090
  H        2.8261900    -1.3231820     0.2368400
  H        0.9367840    -0.1585690     1.4880300
  H       -1.4764410     2.1380570     0.1977940
  H       -2.2008650     1.3268630    -1.2105240
  H       -3.1068830     1.4512670     0.3117270
  H        3.3300870     0.9922950     1.0954650
  H        2.7636150     1.6688370    -0.4368240
  H        4.2103780     0.6456890    -0.3991480
  H       -3.2411570    -0.9446250     0.2124840
units angstrom
no_reorient  #important for SAPT in psi4, default
symmetry c1  #important for SAPT in psi4, default
}

set PROPERTIES_ORIGIN ["COM"]
properties('MP2/aug-cc-pvtz', properties = ['dipole'])
--------------------------------------------------------------------------

    Molecular point group: c1
  Charge       = 0
  Multiplicity = 1
  Basis Set: AUG-CC-PVTZ
    Blend: AUG-CC-PVTZ
  Basis Set: (AUG-CC-PVTZ AUX)
    Blend: AUG-CC-PVTZ-JKFIT

    Orbital Energies [Eh]
    ---------------------

    Doubly Occupied:

       1A    -20.554963     2A    -11.282803     3A    -11.228061
       4A    -11.224604     5A    -11.221512     6A    -11.219514
       7A    -11.215384     8A     -1.353757     9A     -1.090196
      10A     -1.033750    11A     -0.971123    12A     -0.875882
      13A     -0.810589    14A     -0.754530    15A     -0.681564
      16A     -0.633541    17A     -0.625440    18A     -0.598157
      19A     -0.588380    20A     -0.543163    21A     -0.539435
      22A     -0.530721    23A     -0.516764    24A     -0.502040
      25A     -0.482086    26A     -0.463135    27A     -0.442938
      28A     -0.350231

  @DF-RHF Final Energy:  -309.14881781159096

   => Energetics <=

    Nuclear Repulsion Energy =            299.2033204195937515
    One-Electron Energy =               -1012.0357533117547746
    Two-Electron Energy =                 403.6836150805700640
    Total Energy =                       -309.1488178115909591
  Basis Set: (AUG-CC-PVTZ AUX)
    Blend: AUG-CC-PVTZ-RI
    Molecular point group: c1

    Geometry (in Angstrom), charge = 0, multiplicity = 1:

       Center              X                  Y                   Z               Mass
    ------------   -----------------  -----------------  -----------------  -----------------
         O           -2.341049134999    -1.116243314801    -0.120017631907    15.994914619570
         C           -1.515789134999    -0.027185314801     0.317896368093    12.000000000000
         C           -0.170358134999    -0.253957314801    -0.289714631907    12.000000000000
         C            2.334782865001    -0.445417314801    -0.199599631907    12.000000000000
         C            0.973898865001    -0.282147314801     0.403755368093    12.000000000000
         C           -2.110415134999     1.305562685199    -0.121166631907    12.000000000000
         C            3.213191865001     0.786178685199     0.027452368093    12.000000000000
         H           -1.420910134999    -0.041226314801     1.415320368093     1.007825032230
         H           -0.150505334999    -0.286285714801    -1.384904931907     1.007825032230
         H            2.234997865001    -0.640090314801    -1.273183631907     1.007825032230
         H            2.826083865001    -1.324175314801     0.236965368093     1.007825032230
         H            0.936677865001    -0.159562314801     1.488155368093     1.007825032230
         H           -1.476547134999     2.137063685199     0.197919368093     1.007825032230
         H           -2.200971134999     1.325869685199    -1.210398631907     1.007825032230
         H           -3.106989134999     1.450273685199     0.311852368093     1.007825032230
         H            3.329980865001     0.991301685199     1.095590368093     1.007825032230
         H            2.763508865001     1.667843685199    -0.436698631907     1.007825032230
         H            4.210271865001     0.644695685199    -0.399022631907     1.007825032230
         H           -3.241263134999    -0.945618314801     0.212609368093     1.007825032230

  Basis Set: AUG-CC-PVTZ
    Blend: AUG-CC-PVTZ
  Basis Set: (AUG-CC-PVTZ AUX)
    Blend: AUG-CC-PVTZ-JKFIT
	 Reference Energy          =    -309.1488178115909591 [Eh]
	 Singles Energy            =      -0.0000000000000000 [Eh]
	 Same-Spin Energy          =      -0.3165718554259331 [Eh]
	 Opposite-Spin Energy      =      -1.1024874817382402 [Eh]
	 Correlation Energy        =      -1.4190593371641733 [Eh]
	 Total Energy              =    -310.5678771487551444 [Eh]

	 ================> DF-SCS-MP2 Energies <==================
	-----------------------------------------------------------
	 SCS Same-Spin Scale       =       0.3333333333333333 [-]
	 SCS Opposite-Spin Scale   =       1.2000000000000000 [-]
	 SCS Same-Spin Energy      =      -0.1055239518086444 [Eh]
	 SCS Opposite-Spin Energy  =      -1.3229849780858882 [Eh]
	 SCS Correlation Energy    =      -1.4285089298945326 [Eh]
	 SCS Total Energy          =    -310.5773267414854786 [Eh]
	-----------------------------------------------------------

  Dipole Moment: [D]
     X:    -0.0748      Y:     1.4420      Z:     0.8167     Total:     1.6589

*** Psi4 exiting successfully. Buy a developer a beer!
