                               Psi4 1.3.2 release

  ==> Input File <==

--------------------------------------------------------------------------
#psi4
#
memory 32 gb

molecule  {
0 1
  O       -2.3409430    -1.1152500    -0.1201430
  C       -1.5156830    -0.0261920     0.3177710
  C       -0.1702520    -0.2529640    -0.2898400
  C        2.3348890    -0.4444240    -0.1997250
  C        0.9740050    -0.2811540     0.4036300
  C       -2.1103090     1.3065560    -0.1212920
  C        3.2132980     0.7871720     0.0273270
  H       -1.4208040    -0.0402330     1.4151950
  H       -0.1398665    -0.1866299    -1.3974705
  H        2.2351040    -0.6390970    -1.2733090
  H        2.8261900    -1.3231820     0.2368400
  H        0.9367840    -0.1585690     1.4880300
  H       -1.4764410     2.1380570     0.1977940
  H       -2.2008650     1.3268630    -1.2105240
  H       -3.1068830     1.4512670     0.3117270
  H        3.3300870     0.9922950     1.0954650
  H        2.7636150     1.6688370    -0.4368240
  H        4.2103780     0.6456890    -0.3991480
  H       -3.2411570    -0.9446250     0.2124840
units angstrom
no_reorient  #important for SAPT in psi4, default
symmetry c1  #important for SAPT in psi4, default
}

set PROPERTIES_ORIGIN ["COM"]
properties('MP2/aug-cc-pvtz', properties = ['dipole'])
--------------------------------------------------------------------------

    Molecular point group: c1
  Charge       = 0
  Multiplicity = 1
  Basis Set: AUG-CC-PVTZ
    Blend: AUG-CC-PVTZ
  Basis Set: (AUG-CC-PVTZ AUX)
    Blend: AUG-CC-PVTZ-JKFIT

    Orbital Energies [Eh]
    ---------------------

    Doubly Occupied:

       1A    -20.554607     2A    -11.282802     3A    -11.228824
       4A    -11.224844     5A    -11.223005     6A    -11.219663
       7A    -11.215625     8A     -1.353415     9A     -1.090363
      10A     -1.033925    11A     -0.971079    12A     -0.875902
      13A     -0.810812    14A     -0.752871    15A     -0.681542
      16A     -0.633600    17A     -0.625958    18A     -0.598230
      19A     -0.586978    20A     -0.543228    21A     -0.538979
      22A     -0.529538    23A     -0.517085    24A     -0.502208
      25A     -0.482283    26A     -0.463537    27A     -0.442073
      28A     -0.350411

  @DF-RHF Final Energy:  -309.14688236423206

   => Energetics <=

    Nuclear Repulsion Energy =            299.1597796019622137
    One-Electron Energy =               -1011.9465519817356380
    Two-Electron Energy =                 403.6398900155413685
    Total Energy =                       -309.1468823642320558
  Basis Set: (AUG-CC-PVTZ AUX)
    Blend: AUG-CC-PVTZ-RI
    Molecular point group: c1

    Geometry (in Angstrom), charge = 0, multiplicity = 1:

       Center              X                  Y                   Z               Mass
    ------------   -----------------  -----------------  -----------------  -----------------
         O           -2.341155191991    -1.117236777829    -0.119892367711    15.994914619570
         C           -1.515895191991    -0.028178777829     0.318021632289    12.000000000000
         C           -0.170464191991    -0.254950777829    -0.289589367711    12.000000000000
         C            2.334676808009    -0.446410777829    -0.199474367711    12.000000000000
         C            0.973792808009    -0.283140777829     0.403880632289    12.000000000000
         C           -2.110521191991     1.304569222171    -0.121041367711    12.000000000000
         C            3.213085808009     0.785185222171     0.027577632289    12.000000000000
         H           -1.421016191991    -0.042219777829     1.415445632289     1.007825032230
         H           -0.140078691991    -0.188616677829    -1.397219867711     1.007825032230
         H            2.234891808009    -0.641083777829    -1.273058367711     1.007825032230
         H            2.825977808009    -1.325168777829     0.237090632289     1.007825032230
         H            0.936571808009    -0.160555777829     1.488280632289     1.007825032230
         H           -1.476653191991     2.136070222171     0.198044632289     1.007825032230
         H           -2.201077191991     1.324876222171    -1.210273367711     1.007825032230
         H           -3.107095191991     1.449280222171     0.311977632289     1.007825032230
         H            3.329874808009     0.990308222171     1.095715632289     1.007825032230
         H            2.763402808009     1.666850222171    -0.436573367711     1.007825032230
         H            4.210165808009     0.643702222171    -0.398897367711     1.007825032230
         H           -3.241369191991    -0.946611777829     0.212734632289     1.007825032230

  Basis Set: AUG-CC-PVTZ
    Blend: AUG-CC-PVTZ
  Basis Set: (AUG-CC-PVTZ AUX)
    Blend: AUG-CC-PVTZ-JKFIT
	 Reference Energy          =    -309.1468823642320558 [Eh]
	 Singles Energy            =      -0.0000000000000000 [Eh]
	 Same-Spin Energy          =      -0.3166827768773031 [Eh]
	 Opposite-Spin Energy      =      -1.1027853304914297 [Eh]
	 Correlation Energy        =      -1.4194681073687327 [Eh]
	 Total Energy              =    -310.5663504716007992 [Eh]

	 ================> DF-SCS-MP2 Energies <==================
	-----------------------------------------------------------
	 SCS Same-Spin Scale       =       0.3333333333333333 [-]
	 SCS Opposite-Spin Scale   =       1.2000000000000000 [-]
	 SCS Same-Spin Energy      =      -0.1055609256257677 [Eh]
	 SCS Opposite-Spin Energy  =      -1.3233423965897155 [Eh]
	 SCS Correlation Energy    =      -1.4289033222154832 [Eh]
	 SCS Total Energy          =    -310.5757856864475457 [Eh]
	-----------------------------------------------------------

  Dipole Moment: [D]
     X:    -0.0492      Y:     1.5032      Z:     0.8307     Total:     1.7182

*** Psi4 exiting successfully. Buy a developer a beer!
