                               Psi4 1.3.2 release

  ==> Input File <==

--------------------------------------------------------------------------
#psi4
#
memory 32 gb

molecule  {
0 1
  O       -2.3409430    -1.1152500    -0.1201430
  C       -1.5156830    -0.0261920     0.3177710
  C       -0.1702520    -0.2529640    -0.2898400
  C        2.3348890    -0.4444240    -0.1997250
  C        0.9740050    -0.2811540     0.4036300
  C       -2.1103090     1.3065560    -0.1212920
  C        3.2132980     0.7871720     0.0273270
  H       -1.4208040    -0.0402330     1.4151950
  H       -0.1556656    -0.3346237    -1.3788101
  H        2.2351040    -0.6390970    -1.2733090
  H        2.8261900    -1.3231820     0.2368400
  H        0.9367840    -0.1585690     1.4880300
  H       -1.4764410     2.1380570     0.1977940
  H       -2.2008650     1.3268630    -1.2105240
  H       -3.1068830     1.4512670     0.3117270
  H        3.3300870     0.9922950     1.0954650
  H        2.7636150     1.6688370    -0.4368240
  H        4.2103780     0.6456890    -0.3991480
  H       -3.2411570    -0.9446250     0.2124840
units angstrom
no_reorient  #important for SAPT in psi4, default
symmetry c1  #important for SAPT in psi4, default
}

set PROPERTIES_ORIGIN ["COM"]
properties('MP2/aug-cc-pvtz', properties = ['dipole'])
--------------------------------------------------------------------------

    Molecular point group: c1
  Charge       = 0
  Multiplicity = 1
  Basis Set: AUG-CC-PVTZ
    Blend: AUG-CC-PVTZ
  Basis Set: (AUG-CC-PVTZ AUX)
    Blend: AUG-CC-PVTZ-JKFIT

    Orbital Energies [Eh]
    ---------------------

    Doubly Occupied:

       1A    -20.555133     2A    -11.282814     3A    -11.227823
       4A    -11.224521     5A    -11.221087     6A    -11.219425
       7A    -11.215302     8A     -1.353920     9A     -1.090113
      10A     -1.033664    11A     -0.971142    12A     -0.875879
      13A     -0.810492    14A     -0.754943    15A     -0.681583
      16A     -0.633535    17A     -0.625074    18A     -0.598189
      19A     -0.588892    20A     -0.543132    21A     -0.539638
      22A     -0.531030    23A     -0.516619    24A     -0.501956
      25A     -0.482010    26A     -0.462908    27A     -0.443334
      28A     -0.350057

  @DF-RHF Final Energy:  -309.14927979687241

   => Energetics <=

    Nuclear Repulsion Energy =            299.2124188026475053
    One-Electron Energy =               -1012.0549666188255742
    Two-Electron Energy =                 403.6932680193056058
    Total Energy =                       -309.1492797968724062
  Basis Set: (AUG-CC-PVTZ AUX)
    Blend: AUG-CC-PVTZ-RI
    Molecular point group: c1

    Geometry (in Angstrom), charge = 0, multiplicity = 1:

       Center              X                  Y                   Z               Mass
    ------------   -----------------  -----------------  -----------------  -----------------
         O           -2.340996105999    -1.115746582784    -0.120080265012    15.994914619570
         C           -1.515736105999    -0.026688582784     0.317833734988    12.000000000000
         C           -0.170305105999    -0.253460582784    -0.289777265012    12.000000000000
         C            2.334835894001    -0.444920582784    -0.199662265012    12.000000000000
         C            0.973951894001    -0.281650582784     0.403692734988    12.000000000000
         C           -2.110362105999     1.306059417216    -0.121229265012    12.000000000000
         C            3.213244894001     0.786675417216     0.027389734988    12.000000000000
         H           -1.420857105999    -0.040729582784     1.415257734988     1.007825032230
         H           -0.155718705999    -0.335120282784    -1.378747365012     1.007825032230
         H            2.235050894001    -0.639593582784    -1.273246265012     1.007825032230
         H            2.826136894001    -1.323678582784     0.236902734988     1.007825032230
         H            0.936730894001    -0.159065582784     1.488092734988     1.007825032230
         H           -1.476494105999     2.137560417216     0.197856734988     1.007825032230
         H           -2.200918105999     1.326366417216    -1.210461265012     1.007825032230
         H           -3.106936105999     1.450770417216     0.311789734988     1.007825032230
         H            3.330033894001     0.991798417216     1.095527734988     1.007825032230
         H            2.763561894001     1.668340417216    -0.436761265012     1.007825032230
         H            4.210324894001     0.645192417216    -0.399085265012     1.007825032230
         H           -3.241210105999    -0.945121582784     0.212546734988     1.007825032230

  Basis Set: AUG-CC-PVTZ
    Blend: AUG-CC-PVTZ
  Basis Set: (AUG-CC-PVTZ AUX)
    Blend: AUG-CC-PVTZ-JKFIT
	 Reference Energy          =    -309.1492797968724062 [Eh]
	 Singles Energy            =      -0.0000000000000000 [Eh]
	 Same-Spin Energy          =      -0.3165426365189657 [Eh]
	 Opposite-Spin Energy      =      -1.1024063841946845 [Eh]
	 Correlation Energy        =      -1.4189490207136501 [Eh]
	 Total Energy              =    -310.5682288175860322 [Eh]

	 ================> DF-SCS-MP2 Energies <==================
	-----------------------------------------------------------
	 SCS Same-Spin Scale       =       0.3333333333333333 [-]
	 SCS Opposite-Spin Scale   =       1.2000000000000000 [-]
	 SCS Same-Spin Energy      =      -0.1055142121729886 [Eh]
	 SCS Opposite-Spin Energy  =      -1.3228876610336213 [Eh]
	 SCS Correlation Energy    =      -1.4284018732066099 [Eh]
	 SCS Total Energy          =    -310.5776816700790164 [Eh]
	-----------------------------------------------------------

  Dipole Moment: [D]
     X:    -0.0858      Y:     1.4107      Z:     0.8140     Total:     1.6310

*** Psi4 exiting successfully. Buy a developer a beer!
