                               Psi4 1.3.2 release

  ==> Input File <==

--------------------------------------------------------------------------
#psi4
#
memory 32 gb

molecule  {
0 1
  O       -2.3409430    -1.1152500    -0.1201430
  C       -1.5156830    -0.0261920     0.3177710
  C       -0.1702520    -0.2529640    -0.2898400
  C        2.3348890    -0.4444240    -0.1997250
  C        0.9740050    -0.2811540     0.4036300
  C       -2.1103090     1.3065560    -0.1212920
  C        3.2132980     0.7871720     0.0273270
  H       -1.4208040    -0.0402330     1.4151950
  H       -0.1609320    -0.3839550    -1.3725900
  H        2.2351040    -0.6390970    -1.2733090
  H        2.8261900    -1.3231820     0.2368400
  H        0.9208924    -0.3568876     1.5084549
  H       -1.4764410     2.1380570     0.1977940
  H       -2.2008650     1.3268630    -1.2105240
  H       -3.1068830     1.4512670     0.3117270
  H        3.3300870     0.9922950     1.0954650
  H        2.7636150     1.6688370    -0.4368240
  H        4.2103780     0.6456890    -0.3991480
  H       -3.2411570    -0.9446250     0.2124840
units angstrom
no_reorient  #important for SAPT in psi4, default
symmetry c1  #important for SAPT in psi4, default
}

set PROPERTIES_ORIGIN ["COM"]
properties('MP2/aug-cc-pvtz', properties = ['dipole'])
--------------------------------------------------------------------------

    Molecular point group: c1
  Charge       = 0
  Multiplicity = 1
  Basis Set: AUG-CC-PVTZ
    Blend: AUG-CC-PVTZ
  Basis Set: (AUG-CC-PVTZ AUX)
    Blend: AUG-CC-PVTZ-JKFIT

    Orbital Energies [Eh]
    ---------------------

    Doubly Occupied:

       1A    -20.555408     2A    -11.283126     3A    -11.229309
       4A    -11.224381     5A    -11.221843     6A    -11.219557
       7A    -11.214677     8A     -1.354287     9A     -1.089733
      10A     -1.033580    11A     -0.971235    12A     -0.875917
      13A     -0.810026    14A     -0.752786    15A     -0.681056
      16A     -0.633750    17A     -0.624506    18A     -0.598324
      19A     -0.588819    20A     -0.543108    21A     -0.538434
      22A     -0.533206    23A     -0.515852    24A     -0.502076
      25A     -0.479756    26A     -0.461956    27A     -0.443683
      28A     -0.349634

  @DF-RHF Final Energy:  -309.14694411570918

   => Energetics <=

    Nuclear Repulsion Energy =            299.0941542358063998
    One-Electron Energy =               -1011.8221497066291477
    Two-Electron Energy =                 403.5810513551135728
    Total Energy =                       -309.1469441157091751
  Basis Set: (AUG-CC-PVTZ AUX)
    Blend: AUG-CC-PVTZ-RI
    Molecular point group: c1

    Geometry (in Angstrom), charge = 0, multiplicity = 1:

       Center              X                  Y                   Z               Mass
    ------------   -----------------  -----------------  -----------------  -----------------
         O           -2.340783059596    -1.113252919846    -0.120348561704    15.994914619570
         C           -1.515523059596    -0.024194919846     0.317565438296    12.000000000000
         C           -0.170092059596    -0.250966919846    -0.290045561704    12.000000000000
         C            2.335048940404    -0.442426919846    -0.199930561704    12.000000000000
         C            0.974164940404    -0.279156919846     0.403424438296    12.000000000000
         C           -2.110149059596     1.308553080154    -0.121497561704    12.000000000000
         C            3.213457940404     0.789169080154     0.027121438296    12.000000000000
         H           -1.420644059596    -0.038235919846     1.414989438296     1.007825032230
         H           -0.160772059596    -0.381957919846    -1.372795561704     1.007825032230
         H            2.235263940404    -0.637099919846    -1.273514561704     1.007825032230
         H            2.826349940404    -1.321184919846     0.236634438296     1.007825032230
         H            0.921052340404    -0.354890519846     1.508249338296     1.007825032230
         H           -1.476281059596     2.140054080154     0.197588438296     1.007825032230
         H           -2.200705059596     1.328860080154    -1.210729561704     1.007825032230
         H           -3.106723059596     1.453264080154     0.311521438296     1.007825032230
         H            3.330246940404     0.994292080154     1.095259438296     1.007825032230
         H            2.763774940404     1.670834080154    -0.437029561704     1.007825032230
         H            4.210537940404     0.647686080154    -0.399353561704     1.007825032230
         H           -3.240997059596    -0.942627919846     0.212278438296     1.007825032230

  Basis Set: AUG-CC-PVTZ
    Blend: AUG-CC-PVTZ
  Basis Set: (AUG-CC-PVTZ AUX)
    Blend: AUG-CC-PVTZ-JKFIT
	 Reference Energy          =    -309.1469441157091751 [Eh]
	 Singles Energy            =      -0.0000000000000000 [Eh]
	 Same-Spin Energy          =      -0.3166426782506504 [Eh]
	 Opposite-Spin Energy      =      -1.1027209970493943 [Eh]
	 Correlation Energy        =      -1.4193636753000447 [Eh]
	 Total Energy              =    -310.5663077910091943 [Eh]

	 ================> DF-SCS-MP2 Energies <==================
	-----------------------------------------------------------
	 SCS Same-Spin Scale       =       0.3333333333333333 [-]
	 SCS Opposite-Spin Scale   =       1.2000000000000000 [-]
	 SCS Same-Spin Energy      =      -0.1055475594168835 [Eh]
	 SCS Opposite-Spin Energy  =      -1.3232651964592732 [Eh]
	 SCS Correlation Energy    =      -1.4288127558761567 [Eh]
	 SCS Total Energy          =    -310.5757568715853267 [Eh]
	-----------------------------------------------------------

  Dipole Moment: [D]
     X:    -0.1317      Y:     1.2637      Z:     0.8091     Total:     1.5063

*** Psi4 exiting successfully. Buy a developer a beer!
