                               Psi4 1.3.2 release

  ==> Input File <==

--------------------------------------------------------------------------
#psi4
#
memory 32 gb

molecule  {
0 1
  O       -2.3409430    -1.1152500    -0.1201430
  C       -1.5156830    -0.0261920     0.3177710
  C       -0.1702520    -0.2529640    -0.2898400
  C        2.3348890    -0.4444240    -0.1997250
  C        0.9740050    -0.2811540     0.4036300
  C       -2.1103090     1.3065560    -0.1212920
  C        3.2132980     0.7871720     0.0273270
  H       -1.4208040    -0.0402330     1.4151950
  H       -0.1609320    -0.3839550    -1.3725900
  H        2.2351040    -0.6390970    -1.2733090
  H        2.8261900    -1.3231820     0.2368400
  H        0.9129466    -0.4560469     1.5186674
  H       -1.4764410     2.1380570     0.1977940
  H       -2.2008650     1.3268630    -1.2105240
  H       -3.1068830     1.4512670     0.3117270
  H        3.3300870     0.9922950     1.0954650
  H        2.7636150     1.6688370    -0.4368240
  H        4.2103780     0.6456890    -0.3991480
  H       -3.2411570    -0.9446250     0.2124840
units angstrom
no_reorient  #important for SAPT in psi4, default
symmetry c1  #important for SAPT in psi4, default
}

set PROPERTIES_ORIGIN ["COM"]
properties('MP2/aug-cc-pvtz', properties = ['dipole'])
--------------------------------------------------------------------------

    Molecular point group: c1
  Charge       = 0
  Multiplicity = 1
  Basis Set: AUG-CC-PVTZ
    Blend: AUG-CC-PVTZ
  Basis Set: (AUG-CC-PVTZ AUX)
    Blend: AUG-CC-PVTZ-JKFIT

    Orbital Energies [Eh]
    ---------------------

    Doubly Occupied:

       1A    -20.555602     2A    -11.283396     3A    -11.231427
       4A    -11.224378     5A    -11.222889     6A    -11.219807
       7A    -11.214366     8A     -1.354533     9A     -1.089527
      10A     -1.033678    11A     -0.971272    12A     -0.875901
      13A     -0.809936    14A     -0.750428    15A     -0.680253
      16A     -0.633620    17A     -0.624512    18A     -0.598530
      19A     -0.588456    20A     -0.543270    21A     -0.537373
      22A     -0.533846    23A     -0.515396    24A     -0.502229
      25A     -0.478326    26A     -0.461286    27A     -0.443729
      28A     -0.349257

  @DF-RHF Final Energy:  -309.14347281840173

   => Energetics <=

    Nuclear Repulsion Energy =            298.9867500591275871
    One-Electron Energy =               -1011.6060020699262623
    Two-Electron Energy =                 403.4757791923968853
    Total Energy =                       -309.1434728184017331
  Basis Set: (AUG-CC-PVTZ AUX)
    Blend: AUG-CC-PVTZ-RI
    Molecular point group: c1

    Geometry (in Angstrom), charge = 0, multiplicity = 1:

       Center              X                  Y                   Z               Mass
    ------------   -----------------  -----------------  -----------------  -----------------
         O           -2.340703050894    -1.112254454386    -0.120451394505    15.994914619570
         C           -1.515443050894    -0.023196454386     0.317462605495    12.000000000000
         C           -0.170012050894    -0.249968454386    -0.290148394505    12.000000000000
         C            2.335128949106    -0.441428454386    -0.200033394505    12.000000000000
         C            0.974244949106    -0.278158454386     0.403321605495    12.000000000000
         C           -2.110069050894     1.309551545614    -0.121600394505    12.000000000000
         C            3.213537949106     0.790167545614     0.027018605495    12.000000000000
         H           -1.420564050894    -0.037237454386     1.414886605495     1.007825032230
         H           -0.160692050894    -0.380959454386    -1.372898394505     1.007825032230
         H            2.235343949106    -0.636101454386    -1.273617394505     1.007825032230
         H            2.826429949106    -1.320186454386     0.236531605495     1.007825032230
         H            0.913186549106    -0.453051354386     1.518359005495     1.007825032230
         H           -1.476201050894     2.141052545614     0.197485605495     1.007825032230
         H           -2.200625050894     1.329858545614    -1.210832394505     1.007825032230
         H           -3.106643050894     1.454262545614     0.311418605495     1.007825032230
         H            3.330326949106     0.995290545614     1.095156605495     1.007825032230
         H            2.763854949106     1.671832545614    -0.437132394505     1.007825032230
         H            4.210617949106     0.648684545614    -0.399456394505     1.007825032230
         H           -3.240917050894    -0.941629454386     0.212175605495     1.007825032230

  Basis Set: AUG-CC-PVTZ
    Blend: AUG-CC-PVTZ
  Basis Set: (AUG-CC-PVTZ AUX)
    Blend: AUG-CC-PVTZ-JKFIT
	 Reference Energy          =    -309.1434728184017331 [Eh]
	 Singles Energy            =      -0.0000000000000000 [Eh]
	 Same-Spin Energy          =      -0.3167879450118700 [Eh]
	 Opposite-Spin Energy      =      -1.1031601009778749 [Eh]
	 Correlation Energy        =      -1.4199480459897449 [Eh]
	 Total Energy              =    -310.5634208643915031 [Eh]

	 ================> DF-SCS-MP2 Energies <==================
	-----------------------------------------------------------
	 SCS Same-Spin Scale       =       0.3333333333333333 [-]
	 SCS Opposite-Spin Scale   =       1.2000000000000000 [-]
	 SCS Same-Spin Energy      =      -0.1055959816706233 [Eh]
	 SCS Opposite-Spin Energy  =      -1.3237921211734498 [Eh]
	 SCS Correlation Energy    =      -1.4293881028440731 [Eh]
	 SCS Total Energy          =    -310.5728609212458196 [Eh]
	-----------------------------------------------------------

  Dipole Moment: [D]
     X:    -0.1573      Y:     1.2080      Z:     0.7886     Total:     1.4511

*** Psi4 exiting successfully. Buy a developer a beer!
