                               Psi4 1.3.2 release

  ==> Input File <==

--------------------------------------------------------------------------
#psi4
#
memory 32 gb

molecule  {
0 1
  O       -2.3409430    -1.1152500    -0.1201430
  C       -1.5156830    -0.0261920     0.3177710
  C       -0.1702520    -0.2529640    -0.2898400
  C        2.3348890    -0.4444240    -0.1997250
  C        0.9740050    -0.2811540     0.4036300
  C       -2.1103090     1.3065560    -0.1212920
  C        3.2132980     0.7871720     0.0273270
  H       -1.4208040    -0.0402330     1.4151950
  H       -0.1609320    -0.3839550    -1.3725900
  H        2.2351040    -0.6390970    -1.2733090
  H        2.8261900    -1.3231820     0.2368400
  H        0.9248653    -0.3073080     1.5033487
  H       -1.4764410     2.1380570     0.1977940
  H       -2.2008650     1.3268630    -1.2105240
  H       -3.1068830     1.4512670     0.3117270
  H        3.3300870     0.9922950     1.0954650
  H        2.7636150     1.6688370    -0.4368240
  H        4.2103780     0.6456890    -0.3991480
  H       -3.2411570    -0.9446250     0.2124840
units angstrom
no_reorient  #important for SAPT in psi4, default
symmetry c1  #important for SAPT in psi4, default
}

set PROPERTIES_ORIGIN ["COM"]
properties('MP2/aug-cc-pvtz', properties = ['dipole'])
--------------------------------------------------------------------------

    Molecular point group: c1
  Charge       = 0
  Multiplicity = 1
  Basis Set: AUG-CC-PVTZ
    Blend: AUG-CC-PVTZ
  Basis Set: (AUG-CC-PVTZ AUX)
    Blend: AUG-CC-PVTZ-JKFIT

    Orbital Energies [Eh]
    ---------------------

    Doubly Occupied:

       1A    -20.555344     2A    -11.283020     3A    -11.228567
       4A    -11.224394     5A    -11.221455     6A    -11.219463
       7A    -11.214829     8A     -1.354198     9A     -1.089827
      10A     -1.033555    11A     -0.971217    12A     -0.875917
      13A     -0.810103    14A     -0.753702    15A     -0.681328
      16A     -0.633757    17A     -0.624519    18A     -0.598261
      19A     -0.588975    20A     -0.543063    21A     -0.538886
      22A     -0.532782    23A     -0.516047    24A     -0.502013
      25A     -0.480405    26A     -0.462190    27A     -0.443670
      28A     -0.349756

  @DF-RHF Final Energy:  -309.14807245659824

   => Energetics <=

    Nuclear Repulsion Energy =            299.1363816069162453
    One-Electron Energy =               -1011.9064192902494597
    Two-Electron Energy =                 403.6219652267349147
    Total Energy =                       -309.1480724565982428
  Basis Set: (AUG-CC-PVTZ AUX)
    Blend: AUG-CC-PVTZ-RI
    Molecular point group: c1

    Geometry (in Angstrom), charge = 0, multiplicity = 1:

       Center              X                  Y                   Z               Mass
    ------------   -----------------  -----------------  -----------------  -----------------
         O           -2.340823063947    -1.113752152073    -0.120297145808    15.994914619570
         C           -1.515563063947    -0.024694152073     0.317616854192    12.000000000000
         C           -0.170132063947    -0.251466152073    -0.289994145808    12.000000000000
         C            2.335008936053    -0.442926152073    -0.199879145808    12.000000000000
         C            0.974124936053    -0.279656152073     0.403475854192    12.000000000000
         C           -2.110189063947     1.308053847927    -0.121446145808    12.000000000000
         C            3.213417936053     0.788669847927     0.027172854192    12.000000000000
         H           -1.420684063947    -0.038735152073     1.415040854192     1.007825032230
         H           -0.160812063947    -0.382457152073    -1.372744145808     1.007825032230
         H            2.235223936053    -0.637599152073    -1.273463145808     1.007825032230
         H            2.826309936053    -1.321684152073     0.236685854192     1.007825032230
         H            0.924985236053    -0.305810152073     1.503194554192     1.007825032230
         H           -1.476321063947     2.139554847927     0.197639854192     1.007825032230
         H           -2.200745063947     1.328360847927    -1.210678145808     1.007825032230
         H           -3.106763063947     1.452764847927     0.311572854192     1.007825032230
         H            3.330206936053     0.993792847927     1.095310854192     1.007825032230
         H            2.763734936053     1.670334847927    -0.436978145808     1.007825032230
         H            4.210497936053     0.647186847927    -0.399302145808     1.007825032230
         H           -3.241037063947    -0.943127152073     0.212329854192     1.007825032230

  Basis Set: AUG-CC-PVTZ
    Blend: AUG-CC-PVTZ
  Basis Set: (AUG-CC-PVTZ AUX)
    Blend: AUG-CC-PVTZ-JKFIT
	 Reference Energy          =    -309.1480724565982428 [Eh]
	 Singles Energy            =      -0.0000000000000000 [Eh]
	 Same-Spin Energy          =      -0.3165914891143290 [Eh]
	 Opposite-Spin Energy      =      -1.1025667456192860 [Eh]
	 Correlation Energy        =      -1.4191582347336151 [Eh]
	 Total Energy              =    -310.5672306913318721 [Eh]

	 ================> DF-SCS-MP2 Energies <==================
	-----------------------------------------------------------
	 SCS Same-Spin Scale       =       0.3333333333333333 [-]
	 SCS Opposite-Spin Scale   =       1.2000000000000000 [-]
	 SCS Same-Spin Energy      =      -0.1055304963714430 [Eh]
	 SCS Opposite-Spin Energy  =      -1.3230800947431431 [Eh]
	 SCS Correlation Energy    =      -1.4286105911145861 [Eh]
	 SCS Total Energy          =    -310.5766830477128337 [Eh]
	-----------------------------------------------------------

  Dipole Moment: [D]
     X:    -0.1205      Y:     1.2924      Z:     0.8149     Total:     1.5326

*** Psi4 exiting successfully. Buy a developer a beer!
