                               Psi4 1.3.2 release

  ==> Input File <==

--------------------------------------------------------------------------
#psi4
#
memory 32 gb

molecule  {
0 1
  O       -2.3409430    -1.1152500    -0.1201430
  C       -1.5156830    -0.0261920     0.3177710
  C       -0.1702520    -0.2529640    -0.2898400
  C        2.3348890    -0.4444240    -0.1997250
  C        0.9740050    -0.2811540     0.4036300
  C       -2.1103090     1.3065560    -0.1212920
  C        3.2132980     0.7871720     0.0273270
  H       -1.4208040    -0.0402330     1.4151950
  H       -0.1609320    -0.3839550    -1.3725900
  H        2.2351040    -0.6390970    -1.2733090
  H        2.8261900    -1.3231820     0.2368400
  H        0.9288382    -0.2577283     1.4982425
  H       -1.4764410     2.1380570     0.1977940
  H       -2.2008650     1.3268630    -1.2105240
  H       -3.1068830     1.4512670     0.3117270
  H        3.3300870     0.9922950     1.0954650
  H        2.7636150     1.6688370    -0.4368240
  H        4.2103780     0.6456890    -0.3991480
  H       -3.2411570    -0.9446250     0.2124840
units angstrom
no_reorient  #important for SAPT in psi4, default
symmetry c1  #important for SAPT in psi4, default
}

set PROPERTIES_ORIGIN ["COM"]
properties('MP2/aug-cc-pvtz', properties = ['dipole'])
--------------------------------------------------------------------------

    Molecular point group: c1
  Charge       = 0
  Multiplicity = 1
  Basis Set: AUG-CC-PVTZ
    Blend: AUG-CC-PVTZ
  Basis Set: (AUG-CC-PVTZ AUX)
    Blend: AUG-CC-PVTZ-JKFIT

    Orbital Energies [Eh]
    ---------------------

    Doubly Occupied:

       1A    -20.555304     2A    -11.282934     3A    -11.228046
       4A    -11.224412     5A    -11.221164     6A    -11.219393
       7A    -11.214975     8A     -1.354132     9A     -1.089910
      10A     -1.033547    11A     -0.971199    12A     -0.875911
      13A     -0.810195    14A     -0.754399    15A     -0.681511
      16A     -0.633725    17A     -0.624545    18A     -0.598229
      19A     -0.589102    20A     -0.543046    21A     -0.539267
      22A     -0.532304    23A     -0.516219    24A     -0.501958
      25A     -0.480993    26A     -0.462380    27A     -0.443668
      28A     -0.349830

  @DF-RHF Final Energy:  -309.14884652490730

   => Energetics <=

    Nuclear Repulsion Energy =            299.1704042889559787
    One-Electron Energy =               -1011.9739086480635706
    Two-Electron Energy =                 403.6546578342002931
    Total Energy =                       -309.1488465249072988
  Basis Set: (AUG-CC-PVTZ AUX)
    Blend: AUG-CC-PVTZ-RI
    Molecular point group: c1

    Geometry (in Angstrom), charge = 0, multiplicity = 1:

       Center              X                  Y                   Z               Mass
    ------------   -----------------  -----------------  -----------------  -----------------
         O           -2.340863068297    -1.114251385306    -0.120245729911    15.994914619570
         C           -1.515603068297    -0.025193385306     0.317668270089    12.000000000000
         C           -0.170172068297    -0.251965385306    -0.289942729911    12.000000000000
         C            2.334968931703    -0.443425385306    -0.199827729911    12.000000000000
         C            0.974084931703    -0.280155385306     0.403527270089    12.000000000000
         C           -2.110229068297     1.307554614694    -0.121394729911    12.000000000000
         C            3.213377931703     0.788170614694     0.027224270089    12.000000000000
         H           -1.420724068297    -0.039234385306     1.415092270089     1.007825032230
         H           -0.160852068297    -0.382956385306    -1.372692729911     1.007825032230
         H            2.235183931703    -0.638098385306    -1.273411729911     1.007825032230
         H            2.826269931703    -1.322183385306     0.236737270089     1.007825032230
         H            0.928918131703    -0.256729685306     1.498139770089     1.007825032230
         H           -1.476361068297     2.139055614694     0.197691270089     1.007825032230
         H           -2.200785068297     1.327861614694    -1.210626729911     1.007825032230
         H           -3.106803068297     1.452265614694     0.311624270089     1.007825032230
         H            3.330166931703     0.993293614694     1.095362270089     1.007825032230
         H            2.763694931703     1.669835614694    -0.436926729911     1.007825032230
         H            4.210457931703     0.646687614694    -0.399250729911     1.007825032230
         H           -3.241077068297    -0.943626385306     0.212381270089     1.007825032230

  Basis Set: AUG-CC-PVTZ
    Blend: AUG-CC-PVTZ
  Basis Set: (AUG-CC-PVTZ AUX)
    Blend: AUG-CC-PVTZ-JKFIT
	 Reference Energy          =    -309.1488465249072988 [Eh]
	 Singles Energy            =      -0.0000000000000000 [Eh]
	 Same-Spin Energy          =      -0.3165555387751601 [Eh]
	 Opposite-Spin Energy      =      -1.1024566910494218 [Eh]
	 Correlation Energy        =      -1.4190122298245820 [Eh]
	 Total Energy              =    -310.5678587547319012 [Eh]

	 ================> DF-SCS-MP2 Energies <==================
	-----------------------------------------------------------
	 SCS Same-Spin Scale       =       0.3333333333333333 [-]
	 SCS Opposite-Spin Scale   =       1.2000000000000000 [-]
	 SCS Same-Spin Energy      =      -0.1055185129250533 [Eh]
	 SCS Opposite-Spin Energy  =      -1.3229480292593061 [Eh]
	 SCS Correlation Energy    =      -1.4284665421843594 [Eh]
	 SCS Total Energy          =    -310.5773130670916657 [Eh]
	-----------------------------------------------------------

  Dipole Moment: [D]
     X:    -0.1106      Y:     1.3213      Z:     0.8177     Total:     1.5578

*** Psi4 exiting successfully. Buy a developer a beer!
