                               Psi4 1.3.2 release

  ==> Input File <==

--------------------------------------------------------------------------
#psi4
#
memory 32 gb

molecule  {
0 1
  O       -2.3409430    -1.1152500    -0.1201430
  C       -1.5156830    -0.0261920     0.3177710
  C       -0.1702520    -0.2529640    -0.2898400
  C        2.3348890    -0.4444240    -0.1997250
  C        0.9740050    -0.2811540     0.4036300
  C       -2.1103090     1.3065560    -0.1212920
  C        3.2132980     0.7871720     0.0273270
  H       -1.4208040    -0.0402330     1.4151950
  H       -0.1609320    -0.3839550    -1.3725900
  H        2.2351040    -0.6390970    -1.2733090
  H        2.8261900    -1.3231820     0.2368400
  H        0.9328111    -0.2081487     1.4931362
  H       -1.4764410     2.1380570     0.1977940
  H       -2.2008650     1.3268630    -1.2105240
  H       -3.1068830     1.4512670     0.3117270
  H        3.3300870     0.9922950     1.0954650
  H        2.7636150     1.6688370    -0.4368240
  H        4.2103780     0.6456890    -0.3991480
  H       -3.2411570    -0.9446250     0.2124840
units angstrom
no_reorient  #important for SAPT in psi4, default
symmetry c1  #important for SAPT in psi4, default
}

set PROPERTIES_ORIGIN ["COM"]
properties('MP2/aug-cc-pvtz', properties = ['dipole'])
--------------------------------------------------------------------------

    Molecular point group: c1
  Charge       = 0
  Multiplicity = 1
  Basis Set: AUG-CC-PVTZ
    Blend: AUG-CC-PVTZ
  Basis Set: (AUG-CC-PVTZ AUX)
    Blend: AUG-CC-PVTZ-JKFIT

    Orbital Energies [Eh]
    ---------------------

    Doubly Occupied:

       1A    -20.555287     2A    -11.282871     3A    -11.227749
       4A    -11.224436     5A    -11.220971     6A    -11.219347
       7A    -11.215115     8A     -1.354092     9A     -1.089978
      10A     -1.033555    11A     -0.971179    12A     -0.875898
      13A     -0.810297    14A     -0.754855    15A     -0.681603
      16A     -0.633652    17A     -0.624587    18A     -0.598231
      19A     -0.589195    20A     -0.543059    21A     -0.539571
      22A     -0.531772    23A     -0.516365    24A     -0.501911
      25A     -0.481511    26A     -0.462536    27A     -0.443679
      28A     -0.349853

  @DF-RHF Final Energy:  -309.14929546245645

   => Energetics <=

    Nuclear Repulsion Energy =            299.1959271996142320
    One-Electron Energy =               -1012.0241360109350808
    Two-Electron Energy =                 403.6789133488643415
    Total Energy =                       -309.1492954624564504
  Basis Set: (AUG-CC-PVTZ AUX)
    Blend: AUG-CC-PVTZ-RI
    Molecular point group: c1

    Geometry (in Angstrom), charge = 0, multiplicity = 1:

       Center              X                  Y                   Z               Mass
    ------------   -----------------  -----------------  -----------------  -----------------
         O           -2.340903072648    -1.114750617533    -0.120194313007    15.994914619570
         C           -1.515643072648    -0.025692617533     0.317719686993    12.000000000000
         C           -0.170212072648    -0.252464617533    -0.289891313007    12.000000000000
         C            2.334928927352    -0.443924617533    -0.199776313007    12.000000000000
         C            0.974044927352    -0.280654617533     0.403578686993    12.000000000000
         C           -2.110269072648     1.307055382467    -0.121343313007    12.000000000000
         C            3.213337927352     0.787671382467     0.027275686993    12.000000000000
         H           -1.420764072648    -0.039733617533     1.415143686993     1.007825032230
         H           -0.160892072648    -0.383455617533    -1.372641313007     1.007825032230
         H            2.235143927352    -0.638597617533    -1.273360313007     1.007825032230
         H            2.826229927352    -1.322682617533     0.236788686993     1.007825032230
         H            0.932851027352    -0.207649317533     1.493084886993     1.007825032230
         H           -1.476401072648     2.138556382467     0.197742686993     1.007825032230
         H           -2.200825072648     1.327362382467    -1.210575313007     1.007825032230
         H           -3.106843072648     1.451766382467     0.311675686993     1.007825032230
         H            3.330126927352     0.992794382467     1.095413686993     1.007825032230
         H            2.763654927352     1.669336382467    -0.436875313007     1.007825032230
         H            4.210417927352     0.646188382467    -0.399199313007     1.007825032230
         H           -3.241117072648    -0.944125617533     0.212432686993     1.007825032230

  Basis Set: AUG-CC-PVTZ
    Blend: AUG-CC-PVTZ
  Basis Set: (AUG-CC-PVTZ AUX)
    Blend: AUG-CC-PVTZ-JKFIT
	 Reference Energy          =    -309.1492954624564504 [Eh]
	 Singles Energy            =      -0.0000000000000000 [Eh]
	 Same-Spin Energy          =      -0.3165353595534192 [Eh]
	 Opposite-Spin Energy      =      -1.1023912165633076 [Eh]
	 Correlation Energy        =      -1.4189265761167267 [Eh]
	 Total Energy              =    -310.5682220385731966 [Eh]

	 ================> DF-SCS-MP2 Energies <==================
	-----------------------------------------------------------
	 SCS Same-Spin Scale       =       0.3333333333333333 [-]
	 SCS Opposite-Spin Scale   =       1.2000000000000000 [-]
	 SCS Same-Spin Energy      =      -0.1055117865178064 [Eh]
	 SCS Opposite-Spin Energy  =      -1.3228694598759692 [Eh]
	 SCS Correlation Energy    =      -1.4283812463937755 [Eh]
	 SCS Total Energy          =    -310.5776767088502197 [Eh]
	-----------------------------------------------------------

  Dipole Moment: [D]
     X:    -0.1022      Y:     1.3504      Z:     0.8174     Total:     1.5818

*** Psi4 exiting successfully. Buy a developer a beer!
