                               Psi4 1.3.2 release

  ==> Input File <==

--------------------------------------------------------------------------
#psi4
#
memory 32 gb

molecule  {
0 1
  O       -2.3409430    -1.1152500    -0.1201430
  C       -1.5156830    -0.0261920     0.3177710
  C       -0.1702520    -0.2529640    -0.2898400
  C        2.3348890    -0.4444240    -0.1997250
  C        0.9740050    -0.2811540     0.4036300
  C       -2.1103090     1.3065560    -0.1212920
  C        3.2132980     0.7871720     0.0273270
  H       -1.4208040    -0.0402330     1.4151950
  H       -0.1293337    -0.0879673    -1.4099108
  H        2.2351040    -0.6390970    -1.2733090
  H        2.8261900    -1.3231820     0.2368400
  H        0.9367840    -0.1585690     1.4880300
  H       -1.4764410     2.1380570     0.1977940
  H       -2.2008650     1.3268630    -1.2105240
  H       -3.1068830     1.4512670     0.3117270
  H        3.3300870     0.9922950     1.0954650
  H        2.7636150     1.6688370    -0.4368240
  H        4.2103780     0.6456890    -0.3991480
  H       -3.2411570    -0.9446250     0.2124840
units angstrom
no_reorient  #important for SAPT in psi4, default
symmetry c1  #important for SAPT in psi4, default
}

set PROPERTIES_ORIGIN ["COM"]
properties('MP2/aug-cc-pvtz', properties = ['dipole'])
--------------------------------------------------------------------------

    Molecular point group: c1
  Charge       = 0
  Multiplicity = 1
  Basis Set: AUG-CC-PVTZ
    Blend: AUG-CC-PVTZ
  Basis Set: (AUG-CC-PVTZ AUX)
    Blend: AUG-CC-PVTZ-JKFIT

    Orbital Energies [Eh]
    ---------------------

    Doubly Occupied:

       1A    -20.554246     2A    -11.282847     3A    -11.229960
       4A    -11.225334     5A    -11.225139     6A    -11.219774
       7A    -11.215959     8A     -1.353071     9A     -1.090541
      10A     -1.034107    11A     -0.971051    12A     -0.875953
      13A     -0.811078    14A     -0.750287    15A     -0.681546
      16A     -0.633747    17A     -0.626175    18A     -0.598456
      19A     -0.585268    20A     -0.543302    21A     -0.538569
      22A     -0.527429    23A     -0.517447    24A     -0.502376
      25A     -0.482528    26A     -0.463837    27A     -0.441117
      28A     -0.350389

  @DF-RHF Final Energy:  -309.14335120084144

   => Energetics <=

    Nuclear Repulsion Energy =            299.0849557061134192
    One-Electron Energy =               -1011.7935496270941940
    Two-Electron Energy =                 403.5652427201393380
    Total Energy =                       -309.1433512008414368
  Basis Set: (AUG-CC-PVTZ AUX)
    Blend: AUG-CC-PVTZ-RI
    Molecular point group: c1

    Geometry (in Angstrom), charge = 0, multiplicity = 1:

       Center              X                  Y                   Z               Mass
    ------------   -----------------  -----------------  -----------------  -----------------
         O           -2.341261249991    -1.118230241864    -0.119767102508    15.994914619570
         C           -1.516001249991    -0.029172241864     0.318146897492    12.000000000000
         C           -0.170570249991    -0.255944241864    -0.289464102508    12.000000000000
         C            2.334570750009    -0.447404241864    -0.199349102508    12.000000000000
         C            0.973686750009    -0.284134241864     0.404005897492    12.000000000000
         C           -2.110627249991     1.303575758136    -0.120916102508    12.000000000000
         C            3.212979750009     0.784191758136     0.027702897492    12.000000000000
         H           -1.421122249991    -0.043213241864     1.415570897492     1.007825032230
         H           -0.129651949991    -0.090947541864    -1.409534902508     1.007825032230
         H            2.234785750009    -0.642077241864    -1.272933102508     1.007825032230
         H            2.825871750009    -1.326162241864     0.237215897492     1.007825032230
         H            0.936465750009    -0.161549241864     1.488405897492     1.007825032230
         H           -1.476759249991     2.135076758136     0.198169897492     1.007825032230
         H           -2.201183249991     1.323882758136    -1.210148102508     1.007825032230
         H           -3.107201249991     1.448286758136     0.312102897492     1.007825032230
         H            3.329768750009     0.989314758136     1.095840897492     1.007825032230
         H            2.763296750009     1.665856758136    -0.436448102508     1.007825032230
         H            4.210059750009     0.642708758136    -0.398772102508     1.007825032230
         H           -3.241475249991    -0.947605241864     0.212859897492     1.007825032230

  Basis Set: AUG-CC-PVTZ
    Blend: AUG-CC-PVTZ
  Basis Set: (AUG-CC-PVTZ AUX)
    Blend: AUG-CC-PVTZ-JKFIT
	 Reference Energy          =    -309.1433512008414368 [Eh]
	 Singles Energy            =      -0.0000000000000000 [Eh]
	 Same-Spin Energy          =      -0.3168602965512892 [Eh]
	 Opposite-Spin Energy      =      -1.1032618968630270 [Eh]
	 Correlation Energy        =      -1.4201221934143162 [Eh]
	 Total Energy              =    -310.5634733942557659 [Eh]

	 ================> DF-SCS-MP2 Energies <==================
	-----------------------------------------------------------
	 SCS Same-Spin Scale       =       0.3333333333333333 [-]
	 SCS Opposite-Spin Scale   =       1.2000000000000000 [-]
	 SCS Same-Spin Energy      =      -0.1056200988504297 [Eh]
	 SCS Opposite-Spin Energy  =      -1.3239142762356324 [Eh]
	 SCS Correlation Energy    =      -1.4295343750860621 [Eh]
	 SCS Total Energy          =    -310.5728855759275007 [Eh]
	-----------------------------------------------------------

  Dipole Moment: [D]
     X:    -0.0197      Y:     1.5618      Z:     0.8560     Total:     1.7811

*** Psi4 exiting successfully. Buy a developer a beer!
