                               Psi4 1.4a3.dev225

  ==> Input File <==

--------------------------------------------------------------------------
#psi4
#
memory 32 gb

molecule  {
0 1
  O        0.8665680     1.1680080    -0.7351460
  N       -0.3660760    -0.5086790     0.1929010
  C       -1.6441200     0.0174450    -0.2761400
  C       -2.1412550     1.1442230     0.6252270
  C       -2.6427120    -1.1266550    -0.3840140
  C        0.8492673     0.1799373    -0.0377082
  C        2.0309430    -0.4326950     0.6540710
  C        3.2825740    -0.2523450    -0.1975960
  H       -1.4466230     0.4281070    -1.2709490
  H       -0.3785050    -1.2608410     0.8714320
  H       -3.0785860     1.5617170     0.2436050
  H       -2.3175770     0.7713190     1.6396860
  H       -1.3960540     1.9417130     0.6641920
  H       -2.2693050    -1.9092940    -1.0497770
  H       -3.5969080    -0.7634960    -0.7753550
  H       -2.8341330    -1.5678230     0.6011330
  H        2.1523320     0.0883960     1.6122110
  H        1.8656800    -1.4909910     0.8873090
  H        3.4076760     0.8004350    -0.4533700
  H        4.1701610    -0.5986810     0.3385000
  H        3.2011700    -0.8174180    -1.1296580
units angstrom
no_reorient  #important for SAPT in psi4, default
symmetry c1  #important for SAPT in psi4, default
}

set PROPERTIES_ORIGIN ["COM"]
properties('MP2/aug-cc-pvtz', properties = ['dipole'])
--------------------------------------------------------------------------

    Molecular point group: c1
  Charge       = 0
  Multiplicity = 1
  Basis Set: AUG-CC-PVTZ
    Blend: AUG-CC-PVTZ
  Basis Set: (AUG-CC-PVTZ AUX)
    Blend: AUG-CC-PVTZ-JKFIT

    Orbital Energies [Eh]
    ---------------------

    Doubly Occupied:

       1A    -20.520229     2A    -15.571220     3A    -11.347157
       4A    -11.261535     5A    -11.241143     6A    -11.221141
       7A    -11.218218     8A    -11.209520     9A     -1.384572
      10A     -1.215653    11A     -1.067713    12A     -1.027204
      13A     -0.936847    14A     -0.890080    15A     -0.804227
      16A     -0.769397    17A     -0.688188    18A     -0.655914
      19A     -0.626714    20A     -0.614269    21A     -0.603022
      22A     -0.575160    23A     -0.555645    24A     -0.542279
      25A     -0.527459    26A     -0.518928    27A     -0.508684
      28A     -0.496904    29A     -0.487222    30A     -0.477437
      31A     -0.420197    32A     -0.381724

  @DF-RHF Final Energy:  -364.24738681928972

   => Energetics <=

    Nuclear Repulsion Energy =            392.3929965320627389
    One-Electron Energy =               -1272.5495620467418121
    Two-Electron Energy =                 515.9091786953894143
    Total Energy =                       -364.2473868192896589
  Basis Set: (AUG-CC-PVTZ AUX)
    Blend: AUG-CC-PVTZ-RI
    Molecular point group: c1

    Geometry (in Angstrom), charge = 0, multiplicity = 1:

       Center              X                  Y                   Z               Mass
    ------------   -----------------  -----------------  -----------------  -----------------
         O            0.840412738554     1.141256038171    -0.715551655055    15.994914619570
         N           -0.392231261446    -0.535430961829     0.212495344945    14.003074004430
         C           -1.670275261446    -0.009306961829    -0.256545655055    12.000000000000
         C           -2.167410261446     1.117471038171     0.644821344945    12.000000000000
         C           -2.668867261446    -1.153406961829    -0.364419655055    12.000000000000
         C            0.823112038554     0.153185338171    -0.018113855055    12.000000000000
         C            2.004787738554    -0.459446961829     0.673665344945    12.000000000000
         C            3.256418738554    -0.279096961829    -0.178001655055    12.000000000000
         H           -1.472778261446     0.401355038171    -1.251354655055     1.007825032230
         H           -0.404660261446    -1.287592961829     0.891026344945     1.007825032230
         H           -3.104741261446     1.534965038171     0.263199344945     1.007825032230
         H           -2.343732261446     0.744567038171     1.659280344945     1.007825032230
         H           -1.422209261446     1.914961038171     0.683786344945     1.007825032230
         H           -2.295460261446    -1.936045961829    -1.030182655055     1.007825032230
         H           -3.623063261446    -0.790247961829    -0.755760655055     1.007825032230
         H           -2.860288261446    -1.594574961829     0.620727344945     1.007825032230
         H            2.126176738554     0.061644038171     1.631805344945     1.007825032230
         H            1.839524738554    -1.517742961829     0.906903344945     1.007825032230
         H            3.381520738554     0.773683038171    -0.433775655055     1.007825032230
         H            4.144005738554    -0.625432961829     0.358094344945     1.007825032230
         H            3.175014738554    -0.844169961829    -1.110063655055     1.007825032230

  Basis Set: AUG-CC-PVTZ
    Blend: AUG-CC-PVTZ
  Basis Set: (AUG-CC-PVTZ AUX)
    Blend: AUG-CC-PVTZ-JKFIT
	 Reference Energy          =    -364.2473868192897157 [Eh]
	 Singles Energy            =      -0.0000000000000000 [Eh]
	 Same-Spin Energy          =      -0.3756719588954482 [Eh]
	 Opposite-Spin Energy      =      -1.2748795583398205 [Eh]
	 Correlation Energy        =      -1.6505515172352687 [Eh]
	 Total Energy              =    -365.8979383365249873 [Eh]

	 ================> DF-SCS-MP2 Energies <==================
	-----------------------------------------------------------
	 SCS Same-Spin Scale       =       0.3333333333333333 [-]
	 SCS Opposite-Spin Scale   =       1.2000000000000000 [-]
	 SCS Same-Spin Energy      =      -0.1252239862984827 [Eh]
	 SCS Opposite-Spin Energy  =      -1.5298554700077844 [Eh]
	 SCS Correlation Energy    =      -1.6550794563062672 [Eh]
	 SCS Total Energy          =    -365.9024662755959980 [Eh]
	-----------------------------------------------------------

  Dipole Moment: [D]
     X:    -0.8597      Y:    -2.4083      Z:     1.8218     Total:     3.1397

*** Psi4 exiting successfully. Buy a developer a beer!
