                               Psi4 1.3.2 release

  ==> Input File <==

--------------------------------------------------------------------------
#psi4
#
memory 32 gb

molecule  {
0 1
  O        0.8686370    -1.1285810     0.6753960
  N       -0.4170490     0.5891890    -0.1013730
  C       -1.6800190    -0.0563620     0.2358630
  C       -2.0872990    -1.0630810    -0.8349870
  C       -2.7390930     1.0113430     0.4650240
  C        0.9560539    -0.1327007     0.1248629
  C        1.9924560     0.7166710    -0.4292430
  C        3.2969670     0.0166800    -0.0788280
  H       -1.4931140    -0.5968520     1.1678280
  H       -0.4432210     1.3965910    -0.7180680
  H       -3.0167340    -1.5709650    -0.5578120
  H       -2.2433890    -0.5581650    -1.7943680
  H       -1.3035910    -1.8142070    -0.9546500
  H       -2.4287380     1.7063800     1.2494310
  H       -3.6863690     0.5519340     0.7608270
  H       -2.9190420     1.5806020    -0.4540200
  H        1.8890940     0.8204890    -1.5196510
  H        1.9757950     1.7355060    -0.0222730
  H        3.3123780    -0.9936500    -0.4915720
  H        4.1482470     0.5747890    -0.4771690
  H        3.4100600    -0.0687260     1.0041520
units angstrom
no_reorient  #important for SAPT in psi4, default
symmetry c1  #important for SAPT in psi4, default
}

set PROPERTIES_ORIGIN ["COM"]
properties('MP2/aug-cc-pvtz', properties = ['dipole'])
--------------------------------------------------------------------------

    Molecular point group: c1
  Charge       = 0
  Multiplicity = 1
  Basis Set: AUG-CC-PVTZ
    Blend: AUG-CC-PVTZ
  Basis Set: (AUG-CC-PVTZ AUX)
    Blend: AUG-CC-PVTZ-JKFIT

    Orbital Energies [Eh]
    ---------------------

    Doubly Occupied:

       1A    -20.551072     2A    -15.537299     3A    -11.356463
       4A    -11.248943     5A    -11.246691     6A    -11.224415
       7A    -11.209337     8A    -11.200279     9A     -1.447413
      10A     -1.175388    11A     -1.083445    12A     -1.007688
      13A     -0.926080    14A     -0.896584    15A     -0.786284
      16A     -0.751314    17A     -0.702107    18A     -0.660034
      19A     -0.652995    20A     -0.612285    21A     -0.599613
      22A     -0.570576    23A     -0.549281    24A     -0.537986
      25A     -0.534035    26A     -0.530171    27A     -0.510580
      28A     -0.507189    29A     -0.484447    30A     -0.470502
      31A     -0.415993    32A     -0.356537

  @DF-RHF Final Energy:  -364.21036962995203

   => Energetics <=

    Nuclear Repulsion Energy =            392.1198829466738971
    One-Electron Energy =               -1271.9744517426915991
    Two-Electron Energy =                 515.6441991660656186
    Total Energy =                       -364.2103696299520834
  Basis Set: (AUG-CC-PVTZ AUX)
    Blend: AUG-CC-PVTZ-RI
    Molecular point group: c1

    Geometry (in Angstrom), charge = 0, multiplicity = 1:

       Center              X                  Y                   Z               Mass
    ------------   -----------------  -----------------  -----------------  -----------------
         O            0.850373930153    -1.118979379954     0.672386800793    15.994914619570
         N           -0.435312069847     0.598790620046    -0.104382199207    14.003074004430
         C           -1.698282069847    -0.046760379954     0.232853800793    12.000000000000
         C           -2.105562069847    -1.053479379954    -0.837996199207    12.000000000000
         C           -2.757356069847     1.020944620046     0.462014800793    12.000000000000
         C            0.937790830153    -0.123099079954     0.121853700793    12.000000000000
         C            1.974192930153     0.726272620046    -0.432252199207    12.000000000000
         C            3.278703930153     0.026281620046    -0.081837199207    12.000000000000
         H           -1.511377069847    -0.587250379954     1.164818800793     1.007825032230
         H           -0.461484069847     1.406192620046    -0.721077199207     1.007825032230
         H           -3.034997069847    -1.561363379954    -0.560821199207     1.007825032230
         H           -2.261652069847    -0.548563379954    -1.797377199207     1.007825032230
         H           -1.321854069847    -1.804605379954    -0.957659199207     1.007825032230
         H           -2.447001069847     1.715981620046     1.246421800793     1.007825032230
         H           -3.704632069847     0.561535620046     0.757817800793     1.007825032230
         H           -2.937305069847     1.590203620046    -0.457029199207     1.007825032230
         H            1.870830930153     0.830090620046    -1.522660199207     1.007825032230
         H            1.957531930153     1.745107620046    -0.025282199207     1.007825032230
         H            3.294114930153    -0.984048379954    -0.494581199207     1.007825032230
         H            4.129983930153     0.584390620046    -0.480178199207     1.007825032230
         H            3.391796930153    -0.059124379954     1.001142800793     1.007825032230

  Basis Set: AUG-CC-PVTZ
    Blend: AUG-CC-PVTZ
  Basis Set: (AUG-CC-PVTZ AUX)
    Blend: AUG-CC-PVTZ-JKFIT
	 Reference Energy          =    -364.2103696299520266 [Eh]
	 Singles Energy            =      -0.0000000000000000 [Eh]
	 Same-Spin Energy          =      -0.3757835139426109 [Eh]
	 Opposite-Spin Energy      =      -1.2753234640987445 [Eh]
	 Correlation Energy        =      -1.6511069780413554 [Eh]
	 Total Energy              =    -365.8614766079933815 [Eh]

	 ================> DF-SCS-MP2 Energies <==================
	-----------------------------------------------------------
	 SCS Same-Spin Scale       =       0.3333333333333333 [-]
	 SCS Opposite-Spin Scale   =       1.2000000000000000 [-]
	 SCS Same-Spin Energy      =      -0.1252611713142036 [Eh]
	 SCS Opposite-Spin Energy  =      -1.5303881569184934 [Eh]
	 SCS Correlation Energy    =      -1.6556493282326969 [Eh]
	 SCS Total Energy          =    -365.8660189581847249 [Eh]
	-----------------------------------------------------------

  Dipole Moment: [D]
     X:     0.5348      Y:     1.9927      Z:    -1.3552     Total:     2.4685

*** Psi4 exiting successfully. Buy a developer a beer!
