                               Psi4 1.3.2 release

  ==> Input File <==

--------------------------------------------------------------------------
#psi4
#
memory 32 gb

molecule  {
0 1
  O        0.8686370    -1.1285810     0.6753960
  N       -0.4170490     0.5891890    -0.1013730
  C       -1.6800190    -0.0563620     0.2358630
  C       -2.0872990    -1.0630810    -0.8349870
  C       -2.7390930     1.0113430     0.4650240
  C        0.8684675    -0.0866534     0.1104320
  C        1.9924560     0.7166710    -0.4292430
  C        3.2969670     0.0166800    -0.0788280
  H       -1.4931140    -0.5968520     1.1678280
  H       -0.4432210     1.3965910    -0.7180680
  H       -3.0167340    -1.5709650    -0.5578120
  H       -2.2433890    -0.5581650    -1.7943680
  H       -1.3035910    -1.8142070    -0.9546500
  H       -2.4287380     1.7063800     1.2494310
  H       -3.6863690     0.5519340     0.7608270
  H       -2.9190420     1.5806020    -0.4540200
  H        1.8890940     0.8204890    -1.5196510
  H        1.9757950     1.7355060    -0.0222730
  H        3.3123780    -0.9936500    -0.4915720
  H        4.1482470     0.5747890    -0.4771690
  H        3.4100600    -0.0687260     1.0041520
units angstrom
no_reorient  #important for SAPT in psi4, default
symmetry c1  #important for SAPT in psi4, default
}

set PROPERTIES_ORIGIN ["COM"]
properties('MP2/aug-cc-pvtz', properties = ['dipole'])
--------------------------------------------------------------------------

    Molecular point group: c1
  Charge       = 0
  Multiplicity = 1
  Basis Set: AUG-CC-PVTZ
    Blend: AUG-CC-PVTZ
  Basis Set: (AUG-CC-PVTZ AUX)
    Blend: AUG-CC-PVTZ-JKFIT

    Orbital Energies [Eh]
    ---------------------

    Doubly Occupied:

       1A    -20.532220     2A    -15.559084     3A    -11.350133
       4A    -11.256005     5A    -11.243444     6A    -11.218451
       7A    -11.216558     8A    -11.206432     9A     -1.405684
      10A     -1.201040    11A     -1.071150    12A     -1.021298
      13A     -0.933063    14A     -0.891745    15A     -0.797148
      16A     -0.758317    17A     -0.694594    18A     -0.650041
      19A     -0.641092    20A     -0.612862    21A     -0.604958
      22A     -0.572214    23A     -0.547308    24A     -0.539234
      25A     -0.529857    26A     -0.523764    27A     -0.509000
      28A     -0.497690    29A     -0.490105    30A     -0.475414
      31A     -0.424354    32A     -0.373653

  @DF-RHF Final Energy:  -364.23951413914961

   => Energetics <=

    Nuclear Repulsion Energy =            392.2585888435802985
    One-Electron Energy =               -1272.3003815408517312
    Two-Electron Energy =                 515.8022785581217704
    Total Energy =                       -364.2395141391496054
  Basis Set: (AUG-CC-PVTZ AUX)
    Blend: AUG-CC-PVTZ-RI
    Molecular point group: c1

    Geometry (in Angstrom), charge = 0, multiplicity = 1:

       Center              X                  Y                   Z               Mass
    ------------   -----------------  -----------------  -----------------  -----------------
         O            0.859505462831    -1.123780152958     0.673891329292    15.994914619570
         N           -0.426180537169     0.593989847042    -0.102877670708    14.003074004430
         C           -1.689150537169    -0.051561152958     0.234358329292    12.000000000000
         C           -2.096430537169    -1.058280152958    -0.836491670708    12.000000000000
         C           -2.748224537169     1.016143847042     0.463519329292    12.000000000000
         C            0.859335962831    -0.081852552958     0.108927329292    12.000000000000
         C            1.983324462831     0.721471847042    -0.430747670708    12.000000000000
         C            3.287835462831     0.021480847042    -0.080332670708    12.000000000000
         H           -1.502245537169    -0.592051152958     1.166323329292     1.007825032230
         H           -0.452352537169     1.401391847042    -0.719572670708     1.007825032230
         H           -3.025865537169    -1.566164152958    -0.559316670708     1.007825032230
         H           -2.252520537169    -0.553364152958    -1.795872670708     1.007825032230
         H           -1.312722537169    -1.809406152958    -0.956154670708     1.007825032230
         H           -2.437869537169     1.711180847042     1.247926329292     1.007825032230
         H           -3.695500537169     0.556734847042     0.759322329292     1.007825032230
         H           -2.928173537169     1.585402847042    -0.455524670708     1.007825032230
         H            1.879962462831     0.825289847042    -1.521155670708     1.007825032230
         H            1.966663462831     1.740306847042    -0.023777670708     1.007825032230
         H            3.303246462831    -0.988849152958    -0.493076670708     1.007825032230
         H            4.139115462831     0.579589847042    -0.478673670708     1.007825032230
         H            3.400928462831    -0.063925152958     1.002647329292     1.007825032230

  Basis Set: AUG-CC-PVTZ
    Blend: AUG-CC-PVTZ
  Basis Set: (AUG-CC-PVTZ AUX)
    Blend: AUG-CC-PVTZ-JKFIT
	 Reference Energy          =    -364.2395141391496054 [Eh]
	 Singles Energy            =      -0.0000000000000000 [Eh]
	 Same-Spin Energy          =      -0.3754620128880107 [Eh]
	 Opposite-Spin Energy      =      -1.2746559070426724 [Eh]
	 Correlation Energy        =      -1.6501179199306830 [Eh]
	 Total Energy              =    -365.8896320590802702 [Eh]

	 ================> DF-SCS-MP2 Energies <==================
	-----------------------------------------------------------
	 SCS Same-Spin Scale       =       0.3333333333333333 [-]
	 SCS Opposite-Spin Scale   =       1.2000000000000000 [-]
	 SCS Same-Spin Energy      =      -0.1251540042960035 [Eh]
	 SCS Opposite-Spin Energy  =      -1.5295870884512068 [Eh]
	 SCS Correlation Energy    =      -1.6547410927472104 [Eh]
	 SCS Total Energy          =    -365.8942552318968069 [Eh]
	-----------------------------------------------------------

  Dipole Moment: [D]
     X:    -0.4224      Y:     2.3663      Z:    -1.4978     Total:     2.8322

*** Psi4 exiting successfully. Buy a developer a beer!
