                               Psi4 1.3.2 release

  ==> Input File <==

--------------------------------------------------------------------------
#psi4
#
memory 32 gb

molecule  {
0 1
  O        0.8686370    -1.1285810     0.6753960
  N       -0.4170490     0.5891890    -0.1013730
  C       -1.6800190    -0.0563620     0.2358630
  C       -2.0872990    -1.0630810    -0.8349870
  C       -2.7390930     1.0113430     0.4650240
  C        0.7714399    -0.0422232     0.0712197
  C        1.9924560     0.7166710    -0.4292430
  C        3.2969670     0.0166800    -0.0788280
  H       -1.4931140    -0.5968520     1.1678280
  H       -0.4432210     1.3965910    -0.7180680
  H       -3.0167340    -1.5709650    -0.5578120
  H       -2.2433890    -0.5581650    -1.7943680
  H       -1.3035910    -1.8142070    -0.9546500
  H       -2.4287380     1.7063800     1.2494310
  H       -3.6863690     0.5519340     0.7608270
  H       -2.9190420     1.5806020    -0.4540200
  H        1.8724156     0.8110113    -1.5188033
  H        1.9757950     1.7355060    -0.0222730
  H        3.3123780    -0.9936500    -0.4915720
  H        4.1482470     0.5747890    -0.4771690
  H        3.4100600    -0.0687260     1.0041520
units angstrom
no_reorient  #important for SAPT in psi4, default
symmetry c1  #important for SAPT in psi4, default
}

set PROPERTIES_ORIGIN ["COM"]
properties('MP2/aug-cc-pvtz', properties = ['dipole'])
--------------------------------------------------------------------------

    Molecular point group: c1
  Charge       = 0
  Multiplicity = 1
  Basis Set: AUG-CC-PVTZ
    Blend: AUG-CC-PVTZ
  Basis Set: (AUG-CC-PVTZ AUX)
    Blend: AUG-CC-PVTZ-JKFIT

    Orbital Energies [Eh]
    ---------------------

    Doubly Occupied:

       1A    -20.510556     2A    -15.580773     3A    -11.344312
       4A    -11.266053     5A    -11.240457     6A    -11.224382
       7A    -11.213389     8A    -11.213341     9A     -1.360553
      10A     -1.231033    11A     -1.067058    12A     -1.030542
      13A     -0.940789    14A     -0.888761    15A     -0.809701
      16A     -0.780202    17A     -0.680188    18A     -0.654353
      19A     -0.635967    20A     -0.614852    21A     -0.589812
      22A     -0.578324    23A     -0.550688    24A     -0.546189
      25A     -0.525212    26A     -0.511536    27A     -0.509630
      28A     -0.497371    29A     -0.488087    30A     -0.476007
      31A     -0.415290    32A     -0.386552

  @DF-RHF Final Energy:  -364.24787344681010

   => Energetics <=

    Nuclear Repulsion Energy =            392.5341421801347224
    One-Electron Energy =               -1272.8401118602132556
    Two-Electron Energy =                 516.0580962332684294
    Total Energy =                       -364.2478734468101038
  Basis Set: (AUG-CC-PVTZ AUX)
    Blend: AUG-CC-PVTZ-RI
    Molecular point group: c1

    Geometry (in Angstrom), charge = 0, multiplicity = 1:

       Center              X                  Y                   Z               Mass
    ------------   -----------------  -----------------  -----------------  -----------------
         O            0.869767348526    -1.128329343554     0.677972080236    15.994914619570
         N           -0.415918651474     0.589440656446    -0.098796919764    14.003074004430
         C           -1.678888651474    -0.056110343554     0.238439080236    12.000000000000
         C           -2.086168651474    -1.062829343554    -0.832410919764    12.000000000000
         C           -2.737962651474     1.011594656446     0.467600080236    12.000000000000
         C            0.772570248526    -0.041971543554     0.073795780236    12.000000000000
         C            1.993586348526     0.716922656446    -0.426666919764    12.000000000000
         C            3.298097348526     0.016931656446    -0.076251919764    12.000000000000
         H           -1.491983651474    -0.596600343554     1.170404080236     1.007825032230
         H           -0.442090651474     1.396842656446    -0.715491919764     1.007825032230
         H           -3.015603651474    -1.570713343554    -0.555235919764     1.007825032230
         H           -2.242258651474    -0.557913343554    -1.791791919764     1.007825032230
         H           -1.302460651474    -1.813955343554    -0.952073919764     1.007825032230
         H           -2.427607651474     1.706631656446     1.252007080236     1.007825032230
         H           -3.685238651474     0.552185656446     0.763403080236     1.007825032230
         H           -2.917911651474     1.580853656446    -0.451443919764     1.007825032230
         H            1.873545948526     0.811262956446    -1.516227219764     1.007825032230
         H            1.976925348526     1.735757656446    -0.019696919764     1.007825032230
         H            3.313508348526    -0.993398343554    -0.488995919764     1.007825032230
         H            4.149377348526     0.575040656446    -0.474592919764     1.007825032230
         H            3.411190348526    -0.068474343554     1.006728080236     1.007825032230

  Basis Set: AUG-CC-PVTZ
    Blend: AUG-CC-PVTZ
  Basis Set: (AUG-CC-PVTZ AUX)
    Blend: AUG-CC-PVTZ-JKFIT
	 Reference Energy          =    -364.2478734468101038 [Eh]
	 Singles Energy            =      -0.0000000000000000 [Eh]
	 Same-Spin Energy          =      -0.3760027224603769 [Eh]
	 Opposite-Spin Energy      =      -1.2755820923389696 [Eh]
	 Correlation Energy        =      -1.6515848147993464 [Eh]
	 Total Energy              =    -365.8994582616094249 [Eh]

	 ================> DF-SCS-MP2 Energies <==================
	-----------------------------------------------------------
	 SCS Same-Spin Scale       =       0.3333333333333333 [-]
	 SCS Opposite-Spin Scale   =       1.2000000000000000 [-]
	 SCS Same-Spin Energy      =      -0.1253342408201256 [Eh]
	 SCS Opposite-Spin Energy  =      -1.5306985108067634 [Eh]
	 SCS Correlation Energy    =      -1.6560327516268891 [Eh]
	 SCS Total Energy          =    -365.9039061984369710 [Eh]
	-----------------------------------------------------------

  Dipole Moment: [D]
     X:    -1.3811      Y:     2.7781      Z:    -1.6763     Total:     3.5264

*** Psi4 exiting successfully. Buy a developer a beer!
