                               Psi4 1.3.2 release

  ==> Input File <==

--------------------------------------------------------------------------
#psi4
#
memory 32 gb

molecule  {
0 1
  O        0.8686370    -1.1285810     0.6753960
  N       -0.4184925     0.6027379    -0.0798833
  C       -1.6800190    -0.0563620     0.2358630
  C       -2.1092112    -1.0687613    -0.8209821
  C       -2.7390930     1.0113430     0.4650240
  C        0.7808810    -0.0406060     0.0960010
  C        1.9924560     0.7166710    -0.4292430
  C        3.2969670     0.0166800    -0.0788280
  H       -1.4931140    -0.5968520     1.1678280
  H       -0.4432210     1.3965910    -0.7180680
  H       -3.0167340    -1.5709650    -0.5578120
  H       -2.2433890    -0.5581650    -1.7943680
  H       -1.3035910    -1.8142070    -0.9546500
  H       -2.4287380     1.7063800     1.2494310
  H       -3.6863690     0.5519340     0.7608270
  H       -2.9190420     1.5806020    -0.4540200
  H        1.8890940     0.8204890    -1.5196510
  H        1.9757950     1.7355060    -0.0222730
  H        3.3123780    -0.9936500    -0.4915720
  H        4.1482470     0.5747890    -0.4771690
  H        3.4100600    -0.0687260     1.0041520
units angstrom
no_reorient  #important for SAPT in psi4, default
symmetry c1  #important for SAPT in psi4, default
}

set PROPERTIES_ORIGIN ["COM"]
properties('MP2/aug-cc-pvtz', properties = ['dipole'])
--------------------------------------------------------------------------

    Molecular point group: c1
  Charge       = 0
  Multiplicity = 1
  Basis Set: AUG-CC-PVTZ
    Blend: AUG-CC-PVTZ
  Basis Set: (AUG-CC-PVTZ AUX)
    Blend: AUG-CC-PVTZ-JKFIT

    Orbital Energies [Eh]
    ---------------------

    Doubly Occupied:

       1A    -20.514940     2A    -15.579127     3A    -11.345874
       4A    -11.264575     5A    -11.240774     6A    -11.222345
       7A    -11.213865     8A    -11.213146     9A     -1.367697
      10A     -1.227899    11A     -1.066121    12A     -1.030072
      13A     -0.939306    14A     -0.888248    15A     -0.808057
      16A     -0.776627    17A     -0.682588    18A     -0.652876
      19A     -0.635705    20A     -0.613569    21A     -0.594763
      22A     -0.577371    23A     -0.551065    24A     -0.543682
      25A     -0.528231    26A     -0.513197    27A     -0.510664
      28A     -0.495633    29A     -0.485633    30A     -0.475628
      31A     -0.418373    32A     -0.387030

  @DF-RHF Final Energy:  -364.24792441652625

   => Energetics <=

    Nuclear Repulsion Energy =            392.2356662946764914
    One-Electron Energy =               -1272.2378203012203812
    Two-Electron Energy =                 515.7542295900175304
    Total Energy =                       -364.2479244165263026
  Basis Set: (AUG-CC-PVTZ AUX)
    Blend: AUG-CC-PVTZ-RI
    Molecular point group: c1

    Geometry (in Angstrom), charge = 0, multiplicity = 1:

       Center              X                  Y                   Z               Mass
    ------------   -----------------  -----------------  -----------------  -----------------
         O            0.871097132267    -1.129637087139     0.671321308489    15.994914619570
         N           -0.416032367733     0.601681812861    -0.083957991511    14.003074004430
         C           -1.677558867733    -0.057418087139     0.231788308489    12.000000000000
         C           -2.106751067733    -1.069817387139    -0.825056791511    12.000000000000
         C           -2.736632867733     1.010286912861     0.460949308489    12.000000000000
         C            0.783341132267    -0.041662087139     0.091926308489    12.000000000000
         C            1.994916132267     0.715614912861    -0.433317691511    12.000000000000
         C            3.299427132267     0.015623912861    -0.082902691511    12.000000000000
         H           -1.490653867733    -0.597908087139     1.163753308489     1.007825032230
         H           -0.440760867733     1.395534912861    -0.722142691511     1.007825032230
         H           -3.014273867733    -1.572021087139    -0.561886691511     1.007825032230
         H           -2.240928867733    -0.559221087139    -1.798442691511     1.007825032230
         H           -1.301130867733    -1.815263087139    -0.958724691511     1.007825032230
         H           -2.426277867733     1.705323912861     1.245356308489     1.007825032230
         H           -3.683908867733     0.550877912861     0.756752308489     1.007825032230
         H           -2.916581867733     1.579545912861    -0.458094691511     1.007825032230
         H            1.891554132267     0.819432912861    -1.523725691511     1.007825032230
         H            1.978255132267     1.734449912861    -0.026347691511     1.007825032230
         H            3.314838132267    -0.994706087139    -0.495646691511     1.007825032230
         H            4.150707132267     0.573732912861    -0.481243691511     1.007825032230
         H            3.412520132267    -0.069782087139     1.000077308489     1.007825032230

  Basis Set: AUG-CC-PVTZ
    Blend: AUG-CC-PVTZ
  Basis Set: (AUG-CC-PVTZ AUX)
    Blend: AUG-CC-PVTZ-JKFIT
	 Reference Energy          =    -364.2479244165262457 [Eh]
	 Singles Energy            =      -0.0000000000000000 [Eh]
	 Same-Spin Energy          =      -0.3758073190149392 [Eh]
	 Opposite-Spin Energy      =      -1.2753231375417573 [Eh]
	 Correlation Energy        =      -1.6511304565566964 [Eh]
	 Total Energy              =    -365.8990548730829460 [Eh]

	 ================> DF-SCS-MP2 Energies <==================
	-----------------------------------------------------------
	 SCS Same-Spin Scale       =       0.3333333333333333 [-]
	 SCS Opposite-Spin Scale   =       1.2000000000000000 [-]
	 SCS Same-Spin Energy      =      -0.1252691063383131 [Eh]
	 SCS Opposite-Spin Energy  =      -1.5303877650501088 [Eh]
	 SCS Correlation Energy    =      -1.6556568713884219 [Eh]
	 SCS Total Energy          =    -365.9035812879146761 [Eh]
	-----------------------------------------------------------

  Dipole Moment: [D]
     X:    -1.2439      Y:     2.6609      Z:    -1.6675     Total:     3.3776

*** Psi4 exiting successfully. Buy a developer a beer!
