                               Psi4 1.4a3.dev225

  ==> Input File <==

--------------------------------------------------------------------------
#psi4
#
memory 32 gb

molecule  {
0 1
  O        0.8665680     1.1680080    -0.7351460
  N       -0.3660760    -0.5086790     0.1929010
  C       -1.6441200     0.0174450    -0.2761400
  C       -2.1412550     1.1442230     0.6252270
  C       -2.6427120    -1.1266550    -0.3840140
  C        0.8053711     0.1392294    -0.0181420
  C        2.0309430    -0.4326950     0.6540710
  C        3.2825740    -0.2523450    -0.1975960
  H       -1.4466230     0.4281070    -1.2709490
  H       -0.3785050    -1.2608410     0.8714320
  H       -3.0785860     1.5617170     0.2436050
  H       -2.3175770     0.7713190     1.6396860
  H       -1.3960540     1.9417130     0.6641920
  H       -2.2693050    -1.9092940    -1.0497770
  H       -3.5969080    -0.7634960    -0.7753550
  H       -2.8341330    -1.5678230     0.6011330
  H        2.1523320     0.0883960     1.6122110
  H        1.8656800    -1.4909910     0.8873090
  H        3.4076760     0.8004350    -0.4533700
  H        4.1701610    -0.5986810     0.3385000
  H        3.2011700    -0.8174180    -1.1296580
units angstrom
no_reorient  #important for SAPT in psi4, default
symmetry c1  #important for SAPT in psi4, default
}

set PROPERTIES_ORIGIN ["COM"]
properties('MP2/aug-cc-pvtz', properties = ['dipole'])
--------------------------------------------------------------------------

    Molecular point group: c1
  Charge       = 0
  Multiplicity = 1
  Basis Set: AUG-CC-PVTZ
    Blend: AUG-CC-PVTZ
  Basis Set: (AUG-CC-PVTZ AUX)
    Blend: AUG-CC-PVTZ-JKFIT

    Orbital Energies [Eh]
    ---------------------

    Doubly Occupied:

       1A    -20.506734     2A    -15.583592     3A    -11.344736
       4A    -11.267367     5A    -11.240551     6A    -11.225498
       7A    -11.216018     8A    -11.213110     9A     -1.355129
      10A     -1.230246    11A     -1.068633    12A     -1.032156
      13A     -0.940965    14A     -0.890206    15A     -0.811948
      16A     -0.782175    17A     -0.680926    18A     -0.659404
      19A     -0.626495    20A     -0.617501    21A     -0.589050
      22A     -0.576406    23A     -0.556649    24A     -0.546324
      25A     -0.526410    26A     -0.512241    27A     -0.509725
      28A     -0.497421    29A     -0.487291    30A     -0.473917
      31A     -0.414044    32A     -0.386150

  @DF-RHF Final Energy:  -364.24747203374500

   => Energetics <=

    Nuclear Repulsion Energy =            392.4602611931136948
    One-Electron Energy =               -1272.6774281302321015
    Two-Electron Energy =                 515.9696949033734654
    Total Energy =                       -364.2474720337449980
  Basis Set: (AUG-CC-PVTZ AUX)
    Blend: AUG-CC-PVTZ-RI
    Molecular point group: c1

    Geometry (in Angstrom), charge = 0, multiplicity = 1:

       Center              X                  Y                   Z               Mass
    ------------   -----------------  -----------------  -----------------  -----------------
         O            0.844989243408     1.145500139071    -0.717591576718    15.994914619570
         N           -0.387654756592    -0.531186860929     0.210455423282    14.003074004430
         C           -1.665698756592    -0.005062860929    -0.258585576718    12.000000000000
         C           -2.162833756592     1.121715139071     0.642781423282    12.000000000000
         C           -2.664290756592    -1.149162860929    -0.366459576718    12.000000000000
         C            0.783792343408     0.116721539071    -0.000587576718    12.000000000000
         C            2.009364243408    -0.455202860929     0.671625423282    12.000000000000
         C            3.260995243408    -0.274852860929    -0.180041576718    12.000000000000
         H           -1.468201756592     0.405599139071    -1.253394576718     1.007825032230
         H           -0.400083756592    -1.283348860929     0.888986423282     1.007825032230
         H           -3.100164756592     1.539209139071     0.261159423282     1.007825032230
         H           -2.339155756592     0.748811139071     1.657240423282     1.007825032230
         H           -1.417632756592     1.919205139071     0.681746423282     1.007825032230
         H           -2.290883756592    -1.931801860929    -1.032222576718     1.007825032230
         H           -3.618486756592    -0.786003860929    -0.757800576718     1.007825032230
         H           -2.855711756592    -1.590330860929     0.618687423282     1.007825032230
         H            2.130753243408     0.065888139071     1.629765423282     1.007825032230
         H            1.844101243408    -1.513498860929     0.904863423282     1.007825032230
         H            3.386097243408     0.777927139071    -0.435815576718     1.007825032230
         H            4.148582243408    -0.621188860929     0.356054423282     1.007825032230
         H            3.179591243408    -0.839925860929    -1.112103576718     1.007825032230

  Basis Set: AUG-CC-PVTZ
    Blend: AUG-CC-PVTZ
  Basis Set: (AUG-CC-PVTZ AUX)
    Blend: AUG-CC-PVTZ-JKFIT
	 Reference Energy          =    -364.2474720337449980 [Eh]
	 Singles Energy            =      -0.0000000000000000 [Eh]
	 Same-Spin Energy          =      -0.3762507114464764 [Eh]
	 Opposite-Spin Energy      =      -1.2759817080393312 [Eh]
	 Correlation Energy        =      -1.6522324194858076 [Eh]
	 Total Energy              =    -365.8997044532308109 [Eh]

	 ================> DF-SCS-MP2 Energies <==================
	-----------------------------------------------------------
	 SCS Same-Spin Scale       =       0.3333333333333333 [-]
	 SCS Opposite-Spin Scale   =       1.2000000000000000 [-]
	 SCS Same-Spin Energy      =      -0.1254169038154921 [Eh]
	 SCS Opposite-Spin Energy  =      -1.5311780496471974 [Eh]
	 SCS Correlation Energy    =      -1.6565949534626896 [Eh]
	 SCS Total Energy          =    -365.9040669872076705 [Eh]
	-----------------------------------------------------------

  Dipole Moment: [D]
     X:    -1.3387      Y:    -2.6999      Z:     1.9611     Total:     3.5955

*** Psi4 exiting successfully. Buy a developer a beer!
