                               Psi4 1.4a3.dev225

  ==> Input File <==

--------------------------------------------------------------------------
#psi4
#
memory 32 gb

molecule  {
0 1
  O        0.8665680     1.1680080    -0.7351460
  N       -0.3660760    -0.5086790     0.1929010
  C       -1.6441200     0.0174450    -0.2761400
  C       -2.1412550     1.1442230     0.6252270
  C       -2.6427120    -1.1266550    -0.3840140
  C        0.8063460     0.1556180    -0.0295640
  C        2.0309430    -0.4326950     0.6540710
  C        3.2825740    -0.2523450    -0.1975960
  H       -1.4466230     0.4281070    -1.2709490
  H       -0.3791184    -1.2979640     0.9049209
  H       -3.0785860     1.5617170     0.2436050
  H       -2.3175770     0.7713190     1.6396860
  H       -1.3960540     1.9417130     0.6641920
  H       -2.2693050    -1.9092940    -1.0497770
  H       -3.5969080    -0.7634960    -0.7753550
  H       -2.8341330    -1.5678230     0.6011330
  H        2.1523320     0.0883960     1.6122110
  H        1.8656800    -1.4909910     0.8873090
  H        3.4076760     0.8004350    -0.4533700
  H        4.1701610    -0.5986810     0.3385000
  H        3.2011700    -0.8174180    -1.1296580
units angstrom
no_reorient  #important for SAPT in psi4, default
symmetry c1  #important for SAPT in psi4, default
}

set PROPERTIES_ORIGIN ["COM"]
properties('MP2/aug-cc-pvtz', properties = ['dipole'])
--------------------------------------------------------------------------

    Molecular point group: c1
  Charge       = 0
  Multiplicity = 1
  Basis Set: AUG-CC-PVTZ
    Blend: AUG-CC-PVTZ
  Basis Set: (AUG-CC-PVTZ AUX)
    Blend: AUG-CC-PVTZ-JKFIT

    Orbital Energies [Eh]
    ---------------------

    Doubly Occupied:

       1A    -20.510802     2A    -15.585119     3A    -11.344328
       4A    -11.266104     5A    -11.239589     6A    -11.224491
       7A    -11.215501     8A    -11.212432     9A     -1.366023
      10A     -1.224319    11A     -1.065947    12A     -1.029384
      13A     -0.940037    14A     -0.887367    15A     -0.808811
      16A     -0.771093    17A     -0.680906    18A     -0.656648
      19A     -0.625005    20A     -0.616385    21A     -0.592220
      22A     -0.576910    23A     -0.555650    24A     -0.545457
      25A     -0.526431    26A     -0.513079    27A     -0.509123
      28A     -0.496703    29A     -0.486921    30A     -0.476294
      31A     -0.414792    32A     -0.385986

  @DF-RHF Final Energy:  -364.24569764189334

   => Energetics <=

    Nuclear Repulsion Energy =            392.2473835222551770
    One-Electron Energy =               -1272.2864456544371023
    Two-Electron Energy =                 515.7933644902885817
    Total Energy =                       -364.2456976418933436
  Basis Set: (AUG-CC-PVTZ AUX)
    Blend: AUG-CC-PVTZ-RI
    Molecular point group: c1

    Geometry (in Angstrom), charge = 0, multiplicity = 1:

       Center              X                  Y                   Z               Mass
    ------------   -----------------  -----------------  -----------------  -----------------
         O            0.844892973837     1.144116558645    -0.716693980671    15.994914619570
         N           -0.387751026163    -0.532570441355     0.211353019329    14.003074004430
         C           -1.665795026163    -0.006446441355    -0.257687980671    12.000000000000
         C           -2.162930026163     1.120331558645     0.643679019329    12.000000000000
         C           -2.664387026163    -1.150546441355    -0.365561980671    12.000000000000
         C            0.784670973837     0.131726558645    -0.011111980671    12.000000000000
         C            2.009267973837    -0.456586441355     0.672523019329    12.000000000000
         C            3.260898973837    -0.276236441355    -0.179143980671    12.000000000000
         H           -1.468298026163     0.404215558645    -1.252496980671     1.007825032230
         H           -0.400793426163    -1.321855441355     0.923372919329     1.007825032230
         H           -3.100261026163     1.537825558645     0.262057019329     1.007825032230
         H           -2.339252026163     0.747427558645     1.658138019329     1.007825032230
         H           -1.417729026163     1.917821558645     0.682644019329     1.007825032230
         H           -2.290980026163    -1.933185441355    -1.031324980671     1.007825032230
         H           -3.618583026163    -0.787387441355    -0.756902980671     1.007825032230
         H           -2.855808026163    -1.591714441355     0.619585019329     1.007825032230
         H            2.130656973837     0.064504558645     1.630663019329     1.007825032230
         H            1.844004973837    -1.514882441355     0.905761019329     1.007825032230
         H            3.386000973837     0.776543558645    -0.434917980671     1.007825032230
         H            4.148485973837    -0.622572441355     0.356952019329     1.007825032230
         H            3.179494973837    -0.841309441355    -1.111205980671     1.007825032230

  Basis Set: AUG-CC-PVTZ
    Blend: AUG-CC-PVTZ
  Basis Set: (AUG-CC-PVTZ AUX)
    Blend: AUG-CC-PVTZ-JKFIT
	 Reference Energy          =    -364.2456976418933436 [Eh]
	 Singles Energy            =      -0.0000000000000000 [Eh]
	 Same-Spin Energy          =      -0.3762618774758007 [Eh]
	 Opposite-Spin Energy      =      -1.2762014457730773 [Eh]
	 Correlation Energy        =      -1.6524633232488779 [Eh]
	 Total Energy              =    -365.8981609651422104 [Eh]

	 ================> DF-SCS-MP2 Energies <==================
	-----------------------------------------------------------
	 SCS Same-Spin Scale       =       0.3333333333333333 [-]
	 SCS Opposite-Spin Scale   =       1.2000000000000000 [-]
	 SCS Same-Spin Energy      =      -0.1254206258252669 [Eh]
	 SCS Opposite-Spin Energy  =      -1.5314417349276928 [Eh]
	 SCS Correlation Energy    =      -1.6568623607529596 [Eh]
	 SCS Total Energy          =    -365.9025600026462826 [Eh]
	-----------------------------------------------------------

  Dipole Moment: [D]
     X:    -1.2879      Y:    -2.6245      Z:     1.9187     Total:     3.4969

*** Psi4 exiting successfully. Buy a developer a beer!
