                               Psi4 1.3.2 release

  ==> Input File <==

--------------------------------------------------------------------------
#psi4
#
memory 32 gb

molecule  {
0 1
  O        0.8686370    -1.1285810     0.6753960
  N       -0.4170490     0.5891890    -0.1013730
  C       -1.6800190    -0.0563620     0.2358630
  C       -2.0872990    -1.0630810    -0.8349870
  C       -2.7390930     1.0113430     0.4650240
  C        0.7808810    -0.0406060     0.0960010
  C        1.9924560     0.7166710    -0.4292430
  C        3.2969670     0.0166800    -0.0788280
  H       -1.4931140    -0.5968520     1.1678280
  H       -0.4483714     1.5554792    -0.8394271
  H       -3.0167340    -1.5709650    -0.5578120
  H       -2.2433890    -0.5581650    -1.7943680
  H       -1.3035910    -1.8142070    -0.9546500
  H       -2.4287380     1.7063800     1.2494310
  H       -3.6863690     0.5519340     0.7608270
  H       -2.9190420     1.5806020    -0.4540200
  H        1.8890940     0.8204890    -1.5196510
  H        1.9757950     1.7355060    -0.0222730
  H        3.3123780    -0.9936500    -0.4915720
  H        4.1482470     0.5747890    -0.4771690
  H        3.4100600    -0.0687260     1.0041520
units angstrom
no_reorient  #important for SAPT in psi4, default
symmetry c1  #important for SAPT in psi4, default
}

set PROPERTIES_ORIGIN ["COM"]
properties('MP2/aug-cc-pvtz', properties = ['dipole'])
--------------------------------------------------------------------------

    Molecular point group: c1
  Charge       = 0
  Multiplicity = 1
  Basis Set: AUG-CC-PVTZ
    Blend: AUG-CC-PVTZ
  Basis Set: (AUG-CC-PVTZ AUX)
    Blend: AUG-CC-PVTZ-JKFIT

    Orbital Energies [Eh]
    ---------------------

    Doubly Occupied:

       1A    -20.513414     2A    -15.594393     3A    -11.344884
       4A    -11.265665     5A    -11.239248     6A    -11.223086
       7A    -11.212676     8A    -11.212124     9A     -1.366069
      10A     -1.213295    11A     -1.064370    12A     -1.026478
      13A     -0.939163    14A     -0.886193    15A     -0.805321
      16A     -0.746433    17A     -0.679345    18A     -0.644181
      19A     -0.633377    20A     -0.613116    21A     -0.588922
      22A     -0.569134    23A     -0.549359    24A     -0.544901
      25A     -0.524798    26A     -0.511851    27A     -0.505460
      28A     -0.496150    29A     -0.486970    30A     -0.476617
      31A     -0.416230    32A     -0.383575

  @DF-RHF Final Energy:  -364.21860357254388

   => Energetics <=

    Nuclear Repulsion Energy =            391.4321056540815675
    One-Electron Energy =               -1270.7478205531333515
    Two-Electron Energy =                 515.0971113265078429
    Total Energy =                       -364.2186035725438842
  Basis Set: (AUG-CC-PVTZ AUX)
    Blend: AUG-CC-PVTZ-RI
    Molecular point group: c1

    Geometry (in Angstrom), charge = 0, multiplicity = 1:

       Center              X                  Y                   Z               Mass
    ------------   -----------------  -----------------  -----------------  -----------------
         O            0.868682103371    -1.129972177945     0.676458501081    15.994914619570
         N           -0.417003896629     0.587797822055    -0.100310498919    14.003074004430
         C           -1.679973896629    -0.057753177945     0.236925501081    12.000000000000
         C           -2.087253896629    -1.064472177945    -0.833924498919    12.000000000000
         C           -2.739047896629     1.009951822055     0.466086501081    12.000000000000
         C            0.780926103371    -0.041997177945     0.097063501081    12.000000000000
         C            1.992501103371     0.715279822055    -0.428180498919    12.000000000000
         C            3.297012103371     0.015288822055    -0.077765498919    12.000000000000
         H           -1.493068896629    -0.598243177945     1.168890501081     1.007825032230
         H           -0.448326296629     1.554088022055    -0.838364598919     1.007825032230
         H           -3.016688896629    -1.572356177945    -0.556749498919     1.007825032230
         H           -2.243343896629    -0.559556177945    -1.793305498919     1.007825032230
         H           -1.303545896629    -1.815598177945    -0.953587498919     1.007825032230
         H           -2.428692896629     1.704988822055     1.250493501081     1.007825032230
         H           -3.686323896629     0.550542822055     0.761889501081     1.007825032230
         H           -2.918996896629     1.579210822055    -0.452957498919     1.007825032230
         H            1.889139103371     0.819097822055    -1.518588498919     1.007825032230
         H            1.975840103371     1.734114822055    -0.021210498919     1.007825032230
         H            3.312423103371    -0.995041177945    -0.490509498919     1.007825032230
         H            4.148292103371     0.573397822055    -0.476106498919     1.007825032230
         H            3.410105103371    -0.070117177945     1.005214501081     1.007825032230

  Basis Set: AUG-CC-PVTZ
    Blend: AUG-CC-PVTZ
  Basis Set: (AUG-CC-PVTZ AUX)
    Blend: AUG-CC-PVTZ-JKFIT
	 Reference Energy          =    -364.2186035725438842 [Eh]
	 Singles Energy            =      -0.0000000000000000 [Eh]
	 Same-Spin Energy          =      -0.3774425543768769 [Eh]
	 Opposite-Spin Energy      =      -1.2795271187126738 [Eh]
	 Correlation Energy        =      -1.6569696730895507 [Eh]
	 Total Energy              =    -365.8755732456334613 [Eh]

	 ================> DF-SCS-MP2 Energies <==================
	-----------------------------------------------------------
	 SCS Same-Spin Scale       =       0.3333333333333333 [-]
	 SCS Opposite-Spin Scale   =       1.2000000000000000 [-]
	 SCS Same-Spin Energy      =      -0.1258141847922923 [Eh]
	 SCS Opposite-Spin Energy  =      -1.5354325424552084 [Eh]
	 SCS Correlation Energy    =      -1.6612467272475007 [Eh]
	 SCS Total Energy          =    -365.8798502997913715 [Eh]
	-----------------------------------------------------------

  Dipole Moment: [D]
     X:    -1.3380      Y:     2.8109      Z:    -1.7034     Total:     3.5486

*** Psi4 exiting successfully. Buy a developer a beer!
