                               Psi4 1.4a3.dev225

  ==> Input File <==

--------------------------------------------------------------------------
#psi4
#
memory 32 gb

molecule  {
0 1
  O        0.8665680     1.1680080    -0.7351460
  N       -0.3660760    -0.5086790     0.1929010
  C       -1.6441200     0.0174450    -0.2761400
  C       -2.1347403     1.1294570     0.6134150
  C       -2.6427120    -1.1266550    -0.3840140
  C        0.8063460     0.1556180    -0.0295640
  C        2.0309430    -0.4326950     0.6540710
  C        3.2825740    -0.2523450    -0.1975960
  H       -1.4466230     0.4281070    -1.2709490
  H       -0.3785050    -1.2608410     0.8714320
  H       -3.0785860     1.5617170     0.2436050
  H       -2.3175770     0.7713190     1.6396860
  H       -1.3960540     1.9417130     0.6641920
  H       -2.2693050    -1.9092940    -1.0497770
  H       -3.5969080    -0.7634960    -0.7753550
  H       -2.8341330    -1.5678230     0.6011330
  H        2.1523320     0.0883960     1.6122110
  H        1.8656800    -1.4909910     0.8873090
  H        3.4076760     0.8004350    -0.4533700
  H        4.1701610    -0.5986810     0.3385000
  H        3.2011700    -0.8174180    -1.1296580
units angstrom
no_reorient  #important for SAPT in psi4, default
symmetry c1  #important for SAPT in psi4, default
}

set PROPERTIES_ORIGIN ["COM"]
properties('MP2/aug-cc-pvtz', properties = ['dipole'])
--------------------------------------------------------------------------

    Molecular point group: c1
  Charge       = 0
  Multiplicity = 1
  Basis Set: AUG-CC-PVTZ
    Blend: AUG-CC-PVTZ
  Basis Set: (AUG-CC-PVTZ AUX)
    Blend: AUG-CC-PVTZ-JKFIT

    Orbital Energies [Eh]
    ---------------------

    Doubly Occupied:

       1A    -20.510899     2A    -15.580448     3A    -11.344431
       4A    -11.265177     5A    -11.239846     6A    -11.224594
       7A    -11.215708     8A    -11.213461     9A     -1.366509
      10A     -1.229825    11A     -1.067756    12A     -1.031376
      13A     -0.940393    14A     -0.887769    15A     -0.809488
      16A     -0.780736    17A     -0.681986    18A     -0.659214
      19A     -0.626368    20A     -0.618094    21A     -0.593450
      22A     -0.578054    23A     -0.555721    24A     -0.544720
      25A     -0.525157    26A     -0.513521    27A     -0.509766
      28A     -0.496995    29A     -0.486337    30A     -0.476247
      31A     -0.415021    32A     -0.387724

  @DF-RHF Final Energy:  -364.24898165006681

   => Energetics <=

    Nuclear Repulsion Energy =            392.8639833603106695
    One-Electron Energy =               -1273.4723434739714776
    Two-Electron Energy =                 516.3593784635941120
    Total Energy =                       -364.2489816500667530
  Basis Set: (AUG-CC-PVTZ AUX)
    Blend: AUG-CC-PVTZ-RI
    Molecular point group: c1

    Geometry (in Angstrom), charge = 0, multiplicity = 1:

       Center              X                  Y                   Z               Mass
    ------------   -----------------  -----------------  -----------------  -----------------
         O            0.844208396985     1.145330970970    -0.715169259666    15.994914619570
         N           -0.388435603015    -0.531356029030     0.212877740334    14.003074004430
         C           -1.666479603015    -0.005232029030    -0.256163259666    12.000000000000
         C           -2.157099903015     1.106779970970     0.633391740334    12.000000000000
         C           -2.665071603015    -1.149332029030    -0.364037259666    12.000000000000
         C            0.783986396985     0.132940970970    -0.009587259666    12.000000000000
         C            2.008583396985    -0.455372029030     0.674047740334    12.000000000000
         C            3.260214396985    -0.275022029030    -0.177619259666    12.000000000000
         H           -1.468982603015     0.405429970970    -1.250972259666     1.007825032230
         H           -0.400864603015    -1.283518029030     0.891408740334     1.007825032230
         H           -3.100945603015     1.539039970970     0.263581740334     1.007825032230
         H           -2.339936603015     0.748641970970     1.659662740334     1.007825032230
         H           -1.418413603015     1.919035970970     0.684168740334     1.007825032230
         H           -2.291664603015    -1.931971029030    -1.029800259666     1.007825032230
         H           -3.619267603015    -0.786173029030    -0.755378259666     1.007825032230
         H           -2.856492603015    -1.590500029030     0.621109740334     1.007825032230
         H            2.129972396985     0.065718970970     1.632187740334     1.007825032230
         H            1.843320396985    -1.513668029030     0.907285740334     1.007825032230
         H            3.385316396985     0.777757970970    -0.433393259666     1.007825032230
         H            4.147801396985    -0.621358029030     0.358476740334     1.007825032230
         H            3.178810396985    -0.840095029030    -1.109681259666     1.007825032230

  Basis Set: AUG-CC-PVTZ
    Blend: AUG-CC-PVTZ
  Basis Set: (AUG-CC-PVTZ AUX)
    Blend: AUG-CC-PVTZ-JKFIT
	 Reference Energy          =    -364.2489816500668098 [Eh]
	 Singles Energy            =      -0.0000000000000000 [Eh]
	 Same-Spin Energy          =      -0.3759841003439679 [Eh]
	 Opposite-Spin Energy      =      -1.2753346575262299 [Eh]
	 Correlation Energy        =      -1.6513187578701978 [Eh]
	 Total Energy              =    -365.9003004079369816 [Eh]

	 ================> DF-SCS-MP2 Energies <==================
	-----------------------------------------------------------
	 SCS Same-Spin Scale       =       0.3333333333333333 [-]
	 SCS Opposite-Spin Scale   =       1.2000000000000000 [-]
	 SCS Same-Spin Energy      =      -0.1253280334479893 [Eh]
	 SCS Opposite-Spin Energy  =      -1.5304015890314757 [Eh]
	 SCS Correlation Energy    =      -1.6557296224794651 [Eh]
	 SCS Total Energy          =    -365.9047112725462512 [Eh]
	-----------------------------------------------------------

  Dipole Moment: [D]
     X:    -1.2784      Y:    -2.5928      Z:     1.9019     Total:     3.4604

*** Psi4 exiting successfully. Buy a developer a beer!
