                               Psi4 1.3.2 release

  ==> Input File <==

--------------------------------------------------------------------------
#psi4
#
memory 32 gb

molecule  {
0 1
  O        0.8686370    -1.1285810     0.6753960
  N       -0.4507005     0.6180556    -0.1635043
  C       -1.6800190    -0.0563620     0.2358630
  C       -2.0872990    -1.0630810    -0.8349870
  C       -2.7390930     1.0113430     0.4650240
  C        0.7808810    -0.0406060     0.0960010
  C        1.9924560     0.7166710    -0.4292430
  C        3.2969670     0.0166800    -0.0788280
  H       -1.5475461    -0.6145450     1.1667251
  H       -0.4432210     1.3965910    -0.7180680
  H       -3.0167340    -1.5709650    -0.5578120
  H       -2.2433890    -0.5581650    -1.7943680
  H       -1.3035910    -1.8142070    -0.9546500
  H       -2.4287380     1.7063800     1.2494310
  H       -3.6863690     0.5519340     0.7608270
  H       -2.9190420     1.5806020    -0.4540200
  H        1.8890940     0.8204890    -1.5196510
  H        1.9757950     1.7355060    -0.0222730
  H        3.3123780    -0.9936500    -0.4915720
  H        4.1482470     0.5747890    -0.4771690
  H        3.4100600    -0.0687260     1.0041520
units angstrom
no_reorient  #important for SAPT in psi4, default
symmetry c1  #important for SAPT in psi4, default
}

set PROPERTIES_ORIGIN ["COM"]
properties('MP2/aug-cc-pvtz', properties = ['dipole'])
--------------------------------------------------------------------------

    Molecular point group: c1
  Charge       = 0
  Multiplicity = 1
  Basis Set: AUG-CC-PVTZ
    Blend: AUG-CC-PVTZ
  Basis Set: (AUG-CC-PVTZ AUX)
    Blend: AUG-CC-PVTZ-JKFIT

    Orbital Energies [Eh]
    ---------------------

    Doubly Occupied:

       1A    -20.523350     2A    -15.572025     3A    -11.353031
       4A    -11.263774     5A    -11.241635     6A    -11.220563
       7A    -11.214840     8A    -11.209633     9A     -1.368467
      10A     -1.226628    11A     -1.064551    12A     -1.028871
      13A     -0.937871    14A     -0.887727    15A     -0.809126
      16A     -0.777737    17A     -0.682986    18A     -0.661357
      19A     -0.635027    20A     -0.609320    21A     -0.601315
      22A     -0.577283    23A     -0.547483    24A     -0.543512
      25A     -0.524175    26A     -0.515888    27A     -0.510334
      28A     -0.496226    29A     -0.487466    30A     -0.474659
      31A     -0.419601    32A     -0.384999

  @DF-RHF Final Energy:  -364.24156678281798

   => Energetics <=

    Nuclear Repulsion Energy =            391.7051452207757052
    One-Electron Energy =               -1271.1505049583972777
    Two-Electron Energy =                 515.2037929548035891
    Total Energy =                       -364.2415667828180403
  Basis Set: (AUG-CC-PVTZ AUX)
    Blend: AUG-CC-PVTZ-RI
    Molecular point group: c1

    Geometry (in Angstrom), charge = 0, multiplicity = 1:

       Center              X                  Y                   Z               Mass
    ------------   -----------------  -----------------  -----------------  -----------------
         O            0.873207673049    -1.131937935934     0.682964442382    15.994914619570
         N           -0.446129826951     0.614698664066    -0.155935857618    14.003074004430
         C           -1.675448326951    -0.059718935934     0.243431442382    12.000000000000
         C           -2.082728326951    -1.066437935934    -0.827418557618    12.000000000000
         C           -2.734522326951     1.007986064066     0.472592442382    12.000000000000
         C            0.785451673049    -0.043962935934     0.103569442382    12.000000000000
         C            1.997026673049     0.713314064066    -0.421674557618    12.000000000000
         C            3.301537673049     0.013323064066    -0.071259557618    12.000000000000
         H           -1.542975426951    -0.617901935934     1.174293542382     1.007825032230
         H           -0.438650326951     1.393234064066    -0.710499557618     1.007825032230
         H           -3.012163326951    -1.574321935934    -0.550243557618     1.007825032230
         H           -2.238818326951    -0.561521935934    -1.786799557618     1.007825032230
         H           -1.299020326951    -1.817563935934    -0.947081557618     1.007825032230
         H           -2.424167326951     1.703023064066     1.256999442382     1.007825032230
         H           -3.681798326951     0.548577064066     0.768395442382     1.007825032230
         H           -2.914471326951     1.577245064066    -0.446451557618     1.007825032230
         H            1.893664673049     0.817132064066    -1.512082557618     1.007825032230
         H            1.980365673049     1.732149064066    -0.014704557618     1.007825032230
         H            3.316948673049    -0.997006935934    -0.484003557618     1.007825032230
         H            4.152817673049     0.571432064066    -0.469600557618     1.007825032230
         H            3.414630673049    -0.072082935934     1.011720442382     1.007825032230

  Basis Set: AUG-CC-PVTZ
    Blend: AUG-CC-PVTZ
  Basis Set: (AUG-CC-PVTZ AUX)
    Blend: AUG-CC-PVTZ-JKFIT
	 Reference Energy          =    -364.2415667828179835 [Eh]
	 Singles Energy            =      -0.0000000000000000 [Eh]
	 Same-Spin Energy          =      -0.3756847699965657 [Eh]
	 Opposite-Spin Energy      =      -1.2755043542685152 [Eh]
	 Correlation Energy        =      -1.6511891242650809 [Eh]
	 Total Energy              =    -365.8927559070830853 [Eh]

	 ================> DF-SCS-MP2 Energies <==================
	-----------------------------------------------------------
	 SCS Same-Spin Scale       =       0.3333333333333333 [-]
	 SCS Opposite-Spin Scale   =       1.2000000000000000 [-]
	 SCS Same-Spin Energy      =      -0.1252282566655219 [Eh]
	 SCS Opposite-Spin Energy  =      -1.5306052251222182 [Eh]
	 SCS Correlation Energy    =      -1.6558334817877400 [Eh]
	 SCS Total Energy          =    -365.8974002646057215 [Eh]
	-----------------------------------------------------------

  Dipole Moment: [D]
     X:    -1.0304      Y:     2.6154      Z:    -1.5074     Total:     3.1898

*** Psi4 exiting successfully. Buy a developer a beer!
