                               Psi4 1.3.2 release

  ==> Input File <==

--------------------------------------------------------------------------
#psi4
#
memory 32 gb

molecule  {
0 1
  O        0.8686370    -1.1285810     0.6753960
  N       -0.3868592     0.5585530    -0.0383173
  C       -1.6800190    -0.0563620     0.2358630
  C       -2.0872990    -1.0630810    -0.8349870
  C       -2.7390930     1.0113430     0.4650240
  C        0.7808810    -0.0406060     0.0960010
  C        1.9924560     0.7166710    -0.4292430
  C        3.2969670     0.0166800    -0.0788280
  H       -1.4391942    -0.5776775     1.1663764
  H       -0.4432210     1.3965910    -0.7180680
  H       -3.0167340    -1.5709650    -0.5578120
  H       -2.2433890    -0.5581650    -1.7943680
  H       -1.3035910    -1.8142070    -0.9546500
  H       -2.4287380     1.7063800     1.2494310
  H       -3.6863690     0.5519340     0.7608270
  H       -2.9190420     1.5806020    -0.4540200
  H        1.8890940     0.8204890    -1.5196510
  H        1.9757950     1.7355060    -0.0222730
  H        3.3123780    -0.9936500    -0.4915720
  H        4.1482470     0.5747890    -0.4771690
  H        3.4100600    -0.0687260     1.0041520
units angstrom
no_reorient  #important for SAPT in psi4, default
symmetry c1  #important for SAPT in psi4, default
}

set PROPERTIES_ORIGIN ["COM"]
properties('MP2/aug-cc-pvtz', properties = ['dipole'])
--------------------------------------------------------------------------

    Molecular point group: c1
  Charge       = 0
  Multiplicity = 1
  Basis Set: AUG-CC-PVTZ
    Blend: AUG-CC-PVTZ
  Basis Set: (AUG-CC-PVTZ AUX)
    Blend: AUG-CC-PVTZ-JKFIT

    Orbital Energies [Eh]
    ---------------------

    Doubly Occupied:

       1A    -20.504169     2A    -15.584358     3A    -11.337000
       4A    -11.266862     5A    -11.239400     6A    -11.226426
       7A    -11.215502     8A    -11.212373     9A     -1.368271
      10A     -1.230916    11A     -1.068612    12A     -1.031488
      13A     -0.941992    14A     -0.889116    15A     -0.814508
      16A     -0.769666    17A     -0.681920    18A     -0.647942
      19A     -0.636259    20A     -0.617794    21A     -0.589455
      22A     -0.575444    23A     -0.552577    24A     -0.547180
      25A     -0.527583    26A     -0.511653    27A     -0.507210
      28A     -0.496801    29A     -0.487635    30A     -0.477559
      31A     -0.414026    32A     -0.386120

  @DF-RHF Final Energy:  -364.24099869340279

   => Energetics <=

    Nuclear Repulsion Energy =            393.3022349905247665
    One-Electron Energy =               -1274.3708335351032019
    Two-Electron Energy =                 516.8275998511757052
    Total Energy =                       -364.2409986934027302
  Basis Set: (AUG-CC-PVTZ AUX)
    Blend: AUG-CC-PVTZ-RI
    Molecular point group: c1

    Geometry (in Angstrom), charge = 0, multiplicity = 1:

       Center              X                  Y                   Z               Mass
    ------------   -----------------  -----------------  -----------------  -----------------
         O            0.864491976282    -1.125021643149     0.667737198671    15.994914619570
         N           -0.391004223718     0.562112356851    -0.045976101329    14.003074004430
         C           -1.684164023718    -0.052802643149     0.228204198671    12.000000000000
         C           -2.091444023718    -1.059521643149    -0.842645801329    12.000000000000
         C           -2.743238023718     1.014902356851     0.457365198671    12.000000000000
         C            0.776735976282    -0.037046643149     0.088342198671    12.000000000000
         C            1.988310976282     0.720230356851    -0.436901801329    12.000000000000
         C            3.292821976282     0.020239356851    -0.086486801329    12.000000000000
         H           -1.443339223718    -0.574118143149     1.158717598671     1.007825032230
         H           -0.447366023718     1.400150356851    -0.725726801329     1.007825032230
         H           -3.020879023718    -1.567405643149    -0.565470801329     1.007825032230
         H           -2.247534023718    -0.554605643149    -1.802026801329     1.007825032230
         H           -1.307736023718    -1.810647643149    -0.962308801329     1.007825032230
         H           -2.432883023718     1.709939356851     1.241772198671     1.007825032230
         H           -3.690514023718     0.555493356851     0.753168198671     1.007825032230
         H           -2.923187023718     1.584161356851    -0.461678801329     1.007825032230
         H            1.884948976282     0.824048356851    -1.527309801329     1.007825032230
         H            1.971649976282     1.739065356851    -0.029931801329     1.007825032230
         H            3.308232976282    -0.990090643149    -0.499230801329     1.007825032230
         H            4.144101976282     0.578348356851    -0.484827801329     1.007825032230
         H            3.405914976282    -0.065166643149     0.996493198671     1.007825032230

  Basis Set: AUG-CC-PVTZ
    Blend: AUG-CC-PVTZ
  Basis Set: (AUG-CC-PVTZ AUX)
    Blend: AUG-CC-PVTZ-JKFIT
	 Reference Energy          =    -364.2409986934027870 [Eh]
	 Singles Energy            =      -0.0000000000000000 [Eh]
	 Same-Spin Energy          =      -0.3762416642744503 [Eh]
	 Opposite-Spin Energy      =      -1.2758073507071845 [Eh]
	 Correlation Energy        =      -1.6520490149816349 [Eh]
	 Total Energy              =    -365.8930477083844153 [Eh]

	 ================> DF-SCS-MP2 Energies <==================
	-----------------------------------------------------------
	 SCS Same-Spin Scale       =       0.3333333333333333 [-]
	 SCS Opposite-Spin Scale   =       1.2000000000000000 [-]
	 SCS Same-Spin Energy      =      -0.1254138880914834 [Eh]
	 SCS Opposite-Spin Energy  =      -1.5309688208486214 [Eh]
	 SCS Correlation Energy    =      -1.6563827089401049 [Eh]
	 SCS Total Energy          =    -365.8973814023428872 [Eh]
	-----------------------------------------------------------

  Dipole Moment: [D]
     X:    -1.5195      Y:     2.8151      Z:    -1.7520     Total:     3.6474

*** Psi4 exiting successfully. Buy a developer a beer!
