                               Psi4 1.3.2 release

  ==> Input File <==

--------------------------------------------------------------------------
#psi4
#
memory 32 gb

molecule  {
0 1
  O        0.8686370    -1.1285810     0.6753960
  N       -0.4391042     0.6086350    -0.1429072
  C       -1.6800190    -0.0563620     0.2358630
  C       -2.0872990    -1.0630810    -0.8349870
  C       -2.7390930     1.0113430     0.4650240
  C        0.7808810    -0.0406060     0.0960010
  C        1.9924560     0.7166710    -0.4292430
  C        3.2969670     0.0166800    -0.0788280
  H       -1.5293544    -0.6088150     1.1673766
  H       -0.4432210     1.3965910    -0.7180680
  H       -3.0167340    -1.5709650    -0.5578120
  H       -2.2433890    -0.5581650    -1.7943680
  H       -1.3035910    -1.8142070    -0.9546500
  H       -2.4287380     1.7063800     1.2494310
  H       -3.6863690     0.5519340     0.7608270
  H       -2.9190420     1.5806020    -0.4540200
  H        1.8890940     0.8204890    -1.5196510
  H        1.9757950     1.7355060    -0.0222730
  H        3.3123780    -0.9936500    -0.4915720
  H        4.1482470     0.5747890    -0.4771690
  H        3.4100600    -0.0687260     1.0041520
units angstrom
no_reorient  #important for SAPT in psi4, default
symmetry c1  #important for SAPT in psi4, default
}

set PROPERTIES_ORIGIN ["COM"]
properties('MP2/aug-cc-pvtz', properties = ['dipole'])
--------------------------------------------------------------------------

    Molecular point group: c1
  Charge       = 0
  Multiplicity = 1
  Basis Set: AUG-CC-PVTZ
    Blend: AUG-CC-PVTZ
  Basis Set: (AUG-CC-PVTZ AUX)
    Blend: AUG-CC-PVTZ-JKFIT

    Orbital Energies [Eh]
    ---------------------

    Doubly Occupied:

       1A    -20.520023     2A    -15.574154     3A    -11.350322
       4A    -11.264083     5A    -11.241138     6A    -11.221528
       7A    -11.214370     8A    -11.210587     9A     -1.367802
      10A     -1.227239    11A     -1.064993    12A     -1.029086
      13A     -0.938532    14A     -0.887664    15A     -0.807891
      16A     -0.779031    17A     -0.682783    18A     -0.658586
      19A     -0.635125    20A     -0.610832    21A     -0.598527
      22A     -0.577835    23A     -0.548230    24A     -0.544136
      25A     -0.524570    26A     -0.514754    27A     -0.510100
      28A     -0.496498    29A     -0.487535    30A     -0.475742
      31A     -0.418968    32A     -0.385308

  @DF-RHF Final Energy:  -364.24590393191880

   => Energetics <=

    Nuclear Repulsion Energy =            391.9667264320845561
    One-Electron Energy =               -1271.6893181161242410
    Two-Electron Energy =                 515.4766877521208244
    Total Energy =                       -364.2459039319188605
  Basis Set: (AUG-CC-PVTZ AUX)
    Blend: AUG-CC-PVTZ-RI
    Molecular point group: c1

    Geometry (in Angstrom), charge = 0, multiplicity = 1:

       Center              X                  Y                   Z               Mass
    ------------   -----------------  -----------------  -----------------  -----------------
         O            0.871637574467    -1.130841994710     0.680452886936    15.994914619570
         N           -0.436103625533     0.606374005290    -0.137850313064    14.003074004430
         C           -1.677018425533    -0.058622994710     0.240919886936    12.000000000000
         C           -2.084298425533    -1.065341994710    -0.829930113064    12.000000000000
         C           -2.736092425533     1.009082005290     0.470080886936    12.000000000000
         C            0.783881574467    -0.042866994710     0.101057886936    12.000000000000
         C            1.995456574467     0.714410005290    -0.424186113064    12.000000000000
         C            3.299967574467     0.014419005290    -0.073771113064    12.000000000000
         H           -1.526353825533    -0.611075994710     1.172433486936     1.007825032230
         H           -0.440220425533     1.394330005290    -0.713011113064     1.007825032230
         H           -3.013733425533    -1.573225994710    -0.552755113064     1.007825032230
         H           -2.240388425533    -0.560425994710    -1.789311113064     1.007825032230
         H           -1.300590425533    -1.816467994710    -0.949593113064     1.007825032230
         H           -2.425737425533     1.704119005290     1.254487886936     1.007825032230
         H           -3.683368425533     0.549673005290     0.765883886936     1.007825032230
         H           -2.916041425533     1.578341005290    -0.448963113064     1.007825032230
         H            1.892094574467     0.818228005290    -1.514594113064     1.007825032230
         H            1.978795574467     1.733245005290    -0.017216113064     1.007825032230
         H            3.315378574467    -0.995910994710    -0.486515113064     1.007825032230
         H            4.151247574467     0.572528005290    -0.472112113064     1.007825032230
         H            3.413060574467    -0.070986994710     1.009208886936     1.007825032230

  Basis Set: AUG-CC-PVTZ
    Blend: AUG-CC-PVTZ
  Basis Set: (AUG-CC-PVTZ AUX)
    Blend: AUG-CC-PVTZ-JKFIT
	 Reference Energy          =    -364.2459039319188037 [Eh]
	 Singles Energy            =      -0.0000000000000000 [Eh]
	 Same-Spin Energy          =      -0.3756771759069964 [Eh]
	 Opposite-Spin Energy      =      -1.2752837494788500 [Eh]
	 Correlation Energy        =      -1.6509609253858464 [Eh]
	 Total Energy              =    -365.8968648573046494 [Eh]

	 ================> DF-SCS-MP2 Energies <==================
	-----------------------------------------------------------
	 SCS Same-Spin Scale       =       0.3333333333333333 [-]
	 SCS Opposite-Spin Scale   =       1.2000000000000000 [-]
	 SCS Same-Spin Energy      =      -0.1252257253023321 [Eh]
	 SCS Opposite-Spin Energy  =      -1.5303404993746199 [Eh]
	 SCS Correlation Energy    =      -1.6555662246769520 [Eh]
	 SCS Total Energy          =    -365.9014701565957353 [Eh]
	-----------------------------------------------------------

  Dipole Moment: [D]
     X:    -1.1214      Y:     2.6543      Z:    -1.5545     Total:     3.2741

*** Psi4 exiting successfully. Buy a developer a beer!
