                               Psi4 1.3.2 release

  ==> Input File <==

--------------------------------------------------------------------------
#psi4
#
memory 32 gb

molecule  {
0 1
  O        0.8686370    -1.1285810     0.6753960
  N       -0.4170490     0.5891890    -0.1013730
  C       -1.7162150     0.0063475     0.2117098
  C       -2.0872990    -1.0630810    -0.8349870
  C       -2.7390930     1.0113430     0.4650240
  C        0.8135954     0.0175461     0.0700129
  C        1.9924560     0.7166710    -0.4292430
  C        3.2969670     0.0166800    -0.0788280
  H       -1.4931140    -0.5968520     1.1678280
  H       -0.4432210     1.3965910    -0.7180680
  H       -3.0167340    -1.5709650    -0.5578120
  H       -2.2433890    -0.5581650    -1.7943680
  H       -1.3035910    -1.8142070    -0.9546500
  H       -2.4287380     1.7063800     1.2494310
  H       -3.6863690     0.5519340     0.7608270
  H       -2.9190420     1.5806020    -0.4540200
  H        1.8890940     0.8204890    -1.5196510
  H        1.9757950     1.7355060    -0.0222730
  H        3.3123780    -0.9936500    -0.4915720
  H        4.1482470     0.5747890    -0.4771690
  H        3.4100600    -0.0687260     1.0041520
units angstrom
no_reorient  #important for SAPT in psi4, default
symmetry c1  #important for SAPT in psi4, default
}

set PROPERTIES_ORIGIN ["COM"]
properties('MP2/aug-cc-pvtz', properties = ['dipole'])
--------------------------------------------------------------------------

    Molecular point group: c1
  Charge       = 0
  Multiplicity = 1
  Basis Set: AUG-CC-PVTZ
    Blend: AUG-CC-PVTZ
  Basis Set: (AUG-CC-PVTZ AUX)
    Blend: AUG-CC-PVTZ-JKFIT

    Orbital Energies [Eh]
    ---------------------

    Doubly Occupied:

       1A    -20.504823     2A    -15.583422     3A    -11.350561
       4A    -11.269208     5A    -11.243907     6A    -11.223581
       7A    -11.216767     8A    -11.213188     9A     -1.334583
      10A     -1.222228    11A     -1.079268    12A     -1.040057
      13A     -0.943522    14A     -0.900412    15A     -0.808220
      16A     -0.771893    17A     -0.686443    18A     -0.649616
      19A     -0.640819    20A     -0.620849    21A     -0.586245
      22A     -0.572572    23A     -0.553041    24A     -0.545208
      25A     -0.523386    26A     -0.514510    27A     -0.510427
      28A     -0.502984    29A     -0.485593    30A     -0.455914
      31A     -0.415904    32A     -0.378736

  @DF-RHF Final Energy:  -364.22780539434677

   => Energetics <=

    Nuclear Repulsion Energy =            392.0696705972288214
    One-Electron Energy =               -1271.8991776003717860
    Two-Electron Energy =                 515.6017016087961338
    Total Energy =                       -364.2278053943467739
  Basis Set: (AUG-CC-PVTZ AUX)
    Blend: AUG-CC-PVTZ-RI
    Molecular point group: c1

    Geometry (in Angstrom), charge = 0, multiplicity = 1:

       Center              X                  Y                   Z               Mass
    ------------   -----------------  -----------------  -----------------  -----------------
         O            0.868999988591    -1.141181655791     0.680623471126    15.994914619570
         N           -0.416686011409     0.576588344209    -0.096145528874    14.003074004430
         C           -1.715852011409    -0.006253155791     0.216937271126    12.000000000000
         C           -2.086936011409    -1.075681655791    -0.829759528874    12.000000000000
         C           -2.738730011409     0.998742344209     0.470251471126    12.000000000000
         C            0.813958388591     0.004945444209     0.075240371126    12.000000000000
         C            1.992818988591     0.704070344209    -0.424015528874    12.000000000000
         C            3.297329988591     0.004079344209    -0.073600528874    12.000000000000
         H           -1.492751011409    -0.609452655791     1.173055471126     1.007825032230
         H           -0.442858011409     1.383990344209    -0.712840528874     1.007825032230
         H           -3.016371011409    -1.583565655791    -0.552584528874     1.007825032230
         H           -2.243026011409    -0.570765655791    -1.789140528874     1.007825032230
         H           -1.303228011409    -1.826807655791    -0.949422528874     1.007825032230
         H           -2.428375011409     1.693779344209     1.254658471126     1.007825032230
         H           -3.686006011409     0.539333344209     0.766054471126     1.007825032230
         H           -2.918679011409     1.568001344209    -0.448792528874     1.007825032230
         H            1.889456988591     0.807888344209    -1.514423528874     1.007825032230
         H            1.976157988591     1.722905344209    -0.017045528874     1.007825032230
         H            3.312740988591    -1.006250655791    -0.486344528874     1.007825032230
         H            4.148609988591     0.562188344209    -0.471941528874     1.007825032230
         H            3.410422988591    -0.081326655791     1.009379471126     1.007825032230

  Basis Set: AUG-CC-PVTZ
    Blend: AUG-CC-PVTZ
  Basis Set: (AUG-CC-PVTZ AUX)
    Blend: AUG-CC-PVTZ-JKFIT
	 Reference Energy          =    -364.2278053943467739 [Eh]
	 Singles Energy            =      -0.0000000000000000 [Eh]
	 Same-Spin Energy          =      -0.3782033877834357 [Eh]
	 Opposite-Spin Energy      =      -1.2795437838441321 [Eh]
	 Correlation Energy        =      -1.6577471716275678 [Eh]
	 Total Energy              =    -365.8855525659743648 [Eh]

	 ================> DF-SCS-MP2 Energies <==================
	-----------------------------------------------------------
	 SCS Same-Spin Scale       =       0.3333333333333333 [-]
	 SCS Opposite-Spin Scale   =       1.2000000000000000 [-]
	 SCS Same-Spin Energy      =      -0.1260677959278119 [Eh]
	 SCS Opposite-Spin Energy  =      -1.5354525406129584 [Eh]
	 SCS Correlation Energy    =      -1.6615203365407702 [Eh]
	 SCS Total Energy          =    -365.8893257308875491 [Eh]
	-----------------------------------------------------------

  Dipole Moment: [D]
     X:    -1.2455      Y:     3.0371      Z:    -1.7662     Total:     3.7276

*** Psi4 exiting successfully. Buy a developer a beer!
