                               Psi4 1.3.2 release

  ==> Input File <==

--------------------------------------------------------------------------
#psi4
#
memory 32 gb

molecule  {
0 1
  O        0.8042349    -1.1285688     0.6815612
  N       -0.4170490     0.5891890    -0.1013730
  C       -1.6800190    -0.0563620     0.2358630
  C       -2.0872990    -1.0630810    -0.8349870
  C       -2.7390930     1.0113430     0.4650240
  C        0.7808810    -0.0406060     0.0960010
  C        1.9430294     0.7735329    -0.4552274
  C        3.2969670     0.0166800    -0.0788280
  H       -1.4931140    -0.5968520     1.1678280
  H       -0.4432210     1.3965910    -0.7180680
  H       -3.0167340    -1.5709650    -0.5578120
  H       -2.2433890    -0.5581650    -1.7943680
  H       -1.3035910    -1.8142070    -0.9546500
  H       -2.4287380     1.7063800     1.2494310
  H       -3.6863690     0.5519340     0.7608270
  H       -2.9190420     1.5806020    -0.4540200
  H        1.8890940     0.8204890    -1.5196510
  H        1.9757950     1.7355060    -0.0222730
  H        3.3123780    -0.9936500    -0.4915720
  H        4.1482470     0.5747890    -0.4771690
  H        3.4100600    -0.0687260     1.0041520
units angstrom
no_reorient  #important for SAPT in psi4, default
symmetry c1  #important for SAPT in psi4, default
}

set PROPERTIES_ORIGIN ["COM"]
properties('MP2/aug-cc-pvtz', properties = ['dipole'])
--------------------------------------------------------------------------

    Molecular point group: c1
  Charge       = 0
  Multiplicity = 1
  Basis Set: AUG-CC-PVTZ
    Blend: AUG-CC-PVTZ
  Basis Set: (AUG-CC-PVTZ AUX)
    Blend: AUG-CC-PVTZ-JKFIT

    Orbital Energies [Eh]
    ---------------------

    Doubly Occupied:

       1A    -20.514578     2A    -15.574205     3A    -11.345722
       4A    -11.261857     5A    -11.240410     6A    -11.221625
       7A    -11.218836     8A    -11.210791     9A     -1.368591
      10A     -1.225028    11A     -1.065059    12A     -1.023004
      13A     -0.938004    14A     -0.889047    15A     -0.808933
      16A     -0.777841    17A     -0.683545    18A     -0.653490
      19A     -0.642330    20A     -0.612387    21A     -0.593399
      22A     -0.577003    23A     -0.544438    24A     -0.543351
      25A     -0.525581    26A     -0.517376    27A     -0.505723
      28A     -0.492674    29A     -0.487721    30A     -0.477136
      31A     -0.419176    32A     -0.383253

  @DF-RHF Final Energy:  -364.24182288193100

   => Energetics <=

    Nuclear Repulsion Energy =            392.4759687829346717
    One-Electron Energy =               -1272.7513528843730910
    Two-Electron Energy =                 516.0335612195074191
    Total Energy =                       -364.2418228819310571
  Basis Set: (AUG-CC-PVTZ AUX)
    Blend: AUG-CC-PVTZ-RI
    Molecular point group: c1

    Geometry (in Angstrom), charge = 0, multiplicity = 1:

       Center              X                  Y                   Z               Mass
    ------------   -----------------  -----------------  -----------------  -----------------
         O            0.818337680249    -1.134498707142     0.683413383439    15.994914619570
         N           -0.402946219751     0.583259092858    -0.099520816561    14.003074004430
         C           -1.665916219751    -0.062291907142     0.237715183439    12.000000000000
         C           -2.073196219751    -1.069010907142    -0.833134816561    12.000000000000
         C           -2.724990219751     1.005413092858     0.466876183439    12.000000000000
         C            0.794983780249    -0.046535907142     0.097853183439    12.000000000000
         C            1.957132180249     0.767602992858    -0.453375216561    12.000000000000
         C            3.311069780249     0.010750092858    -0.076975816561    12.000000000000
         H           -1.479011219751    -0.602781907142     1.169680183439     1.007825032230
         H           -0.429118219751     1.390661092858    -0.716215816561     1.007825032230
         H           -3.002631219751    -1.576894907142    -0.555959816561     1.007825032230
         H           -2.229286219751    -0.564094907142    -1.792515816561     1.007825032230
         H           -1.289488219751    -1.820136907142    -0.952797816561     1.007825032230
         H           -2.414635219751     1.700450092858     1.251283183439     1.007825032230
         H           -3.672266219751     0.546004092858     0.762679183439     1.007825032230
         H           -2.904939219751     1.574672092858    -0.452167816561     1.007825032230
         H            1.903196780249     0.814559092858    -1.517798816561     1.007825032230
         H            1.989897780249     1.729576092858    -0.020420816561     1.007825032230
         H            3.326480780249    -0.999579907142    -0.489719816561     1.007825032230
         H            4.162349780249     0.568859092858    -0.475316816561     1.007825032230
         H            3.424162780249    -0.074655907142     1.006004183439     1.007825032230

  Basis Set: AUG-CC-PVTZ
    Blend: AUG-CC-PVTZ
  Basis Set: (AUG-CC-PVTZ AUX)
    Blend: AUG-CC-PVTZ-JKFIT
	 Reference Energy          =    -364.2418228819310002 [Eh]
	 Singles Energy            =      -0.0000000000000000 [Eh]
	 Same-Spin Energy          =      -0.3758473373674076 [Eh]
	 Opposite-Spin Energy      =      -1.2757522216235908 [Eh]
	 Correlation Energy        =      -1.6515995589909984 [Eh]
	 Total Energy              =    -365.8934224409219951 [Eh]

	 ================> DF-SCS-MP2 Energies <==================
	-----------------------------------------------------------
	 SCS Same-Spin Scale       =       0.3333333333333333 [-]
	 SCS Opposite-Spin Scale   =       1.2000000000000000 [-]
	 SCS Same-Spin Energy      =      -0.1252824457891359 [Eh]
	 SCS Opposite-Spin Energy  =      -1.5309026659483089 [Eh]
	 SCS Correlation Energy    =      -1.6561851117374449 [Eh]
	 SCS Total Energy          =    -365.8980079936684433 [Eh]
	-----------------------------------------------------------

  Dipole Moment: [D]
     X:    -1.0960      Y:     2.7416      Z:    -1.6596     Total:     3.3870

*** Psi4 exiting successfully. Buy a developer a beer!
