                               Psi4 1.3.2 release

  ==> Input File <==

--------------------------------------------------------------------------
#psi4
#
memory 32 gb

molecule  {
0 1
  O        0.8686370    -1.1285810     0.6753960
  N       -0.4170490     0.5891890    -0.1013730
  C       -1.6800190    -0.0563620     0.2358630
  C       -2.0872990    -1.0630810    -0.8349870
  C       -2.7390930     1.0113430     0.4650240
  C        0.7737796     0.0474354     0.0491151
  C        1.9924560     0.7166710    -0.4292430
  C        3.2969670     0.0166800    -0.0788280
  H       -1.4931140    -0.5968520     1.1678280
  H       -0.4432210     1.3965910    -0.7180680
  H       -3.0167340    -1.5709650    -0.5578120
  H       -2.2433890    -0.5581650    -1.7943680
  H       -1.3035910    -1.8142070    -0.9546500
  H       -2.4287380     1.7063800     1.2494310
  H       -3.6863690     0.5519340     0.7608270
  H       -2.9190420     1.5806020    -0.4540200
  H        1.8890940     0.8204890    -1.5196510
  H        1.9757950     1.7355060    -0.0222730
  H        3.3123780    -0.9936500    -0.4915720
  H        4.1482470     0.5747890    -0.4771690
  H        3.4100600    -0.0687260     1.0041520
units angstrom
no_reorient  #important for SAPT in psi4, default
symmetry c1  #important for SAPT in psi4, default
}

set PROPERTIES_ORIGIN ["COM"]
properties('MP2/aug-cc-pvtz', properties = ['dipole'])
--------------------------------------------------------------------------

    Molecular point group: c1
  Charge       = 0
  Multiplicity = 1
  Basis Set: AUG-CC-PVTZ
    Blend: AUG-CC-PVTZ
  Basis Set: (AUG-CC-PVTZ AUX)
    Blend: AUG-CC-PVTZ-JKFIT

    Orbital Energies [Eh]
    ---------------------

    Doubly Occupied:

       1A    -20.493021     2A    -15.592959     3A    -11.345869
       4A    -11.271595     5A    -11.243479     6A    -11.227914
       7A    -11.215385     8A    -11.214776     9A     -1.326412
      10A     -1.223171    11A     -1.076788    12A     -1.038527
      13A     -0.943385    14A     -0.899571    15A     -0.819220
      16A     -0.785750    17A     -0.680186    18A     -0.658073
      19A     -0.640607    20A     -0.618160    21A     -0.585169
      22A     -0.562465    23A     -0.552209    24A     -0.548762
      25A     -0.524755    26A     -0.516766    27A     -0.500070
      28A     -0.499306    29A     -0.488549    30A     -0.465599
      31A     -0.405828    32A     -0.379661

  @DF-RHF Final Energy:  -364.22780083435100

   => Energetics <=

    Nuclear Repulsion Energy =            392.1745250829901579
    One-Electron Energy =               -1272.1166799681323027
    Two-Electron Energy =                 515.7143540507911439
    Total Energy =                       -364.2278008343510010
  Basis Set: (AUG-CC-PVTZ AUX)
    Blend: AUG-CC-PVTZ-RI
    Molecular point group: c1

    Geometry (in Angstrom), charge = 0, multiplicity = 1:

       Center              X                  Y                   Z               Mass
    ------------   -----------------  -----------------  -----------------  -----------------
         O            0.869377379625    -1.137759906196     0.680284071499    15.994914619570
         N           -0.416308620375     0.580010093804    -0.096484928501    14.003074004430
         C           -1.679278620375    -0.065540906196     0.240751071499    12.000000000000
         C           -2.086558620375    -1.072259906196    -0.830098928501    12.000000000000
         C           -2.738352620375     1.002164093804     0.469912071499    12.000000000000
         C            0.774519979625     0.038256493804     0.054003171499    12.000000000000
         C            1.993196379625     0.707492093804    -0.424354928501    12.000000000000
         C            3.297707379625     0.007501093804    -0.073939928501    12.000000000000
         H           -1.492373620375    -0.606030906196     1.172716071499     1.007825032230
         H           -0.442480620375     1.387412093804    -0.713179928501     1.007825032230
         H           -3.015993620375    -1.580143906196    -0.552923928501     1.007825032230
         H           -2.242648620375    -0.567343906196    -1.789479928501     1.007825032230
         H           -1.302850620375    -1.823385906196    -0.949761928501     1.007825032230
         H           -2.427997620375     1.697201093804     1.254319071499     1.007825032230
         H           -3.685628620375     0.542755093804     0.765715071499     1.007825032230
         H           -2.918301620375     1.571423093804    -0.449131928501     1.007825032230
         H            1.889834379625     0.811310093804    -1.514762928501     1.007825032230
         H            1.976535379625     1.726327093804    -0.017384928501     1.007825032230
         H            3.313118379625    -1.002828906196    -0.486683928501     1.007825032230
         H            4.148987379625     0.565610093804    -0.472280928501     1.007825032230
         H            3.410800379625    -0.077904906196     1.009040071499     1.007825032230

  Basis Set: AUG-CC-PVTZ
    Blend: AUG-CC-PVTZ
  Basis Set: (AUG-CC-PVTZ AUX)
    Blend: AUG-CC-PVTZ-JKFIT
	 Reference Energy          =    -364.2278008343510010 [Eh]
	 Singles Energy            =      -0.0000000000000000 [Eh]
	 Same-Spin Energy          =      -0.3779189222783592 [Eh]
	 Opposite-Spin Energy      =      -1.2792354712893350 [Eh]
	 Correlation Energy        =      -1.6571543935676942 [Eh]
	 Total Energy              =    -365.8849552279186810 [Eh]

	 ================> DF-SCS-MP2 Energies <==================
	-----------------------------------------------------------
	 SCS Same-Spin Scale       =       0.3333333333333333 [-]
	 SCS Opposite-Spin Scale   =       1.2000000000000000 [-]
	 SCS Same-Spin Energy      =      -0.1259729740927864 [Eh]
	 SCS Opposite-Spin Energy  =      -1.5350825655472020 [Eh]
	 SCS Correlation Energy    =      -1.6610555396399884 [Eh]
	 SCS Total Energy          =    -365.8888563739909614 [Eh]
	-----------------------------------------------------------

  Dipole Moment: [D]
     X:    -1.6047      Y:     3.2021      Z:    -1.8860     Total:     4.0479

*** Psi4 exiting successfully. Buy a developer a beer!
