                               Psi4 1.3.2 release

  ==> Input File <==

--------------------------------------------------------------------------
#psi4
#
memory 32 gb

molecule  {
0 1
  O        0.8686370    -1.1285810     0.6753960
  N       -0.4170490     0.5891890    -0.1013730
  C       -1.6862949    -0.0460287     0.2318999
  C       -2.0872990    -1.0630810    -0.8349870
  C       -2.7390930     1.0113430     0.4650240
  C        0.7865640    -0.0310296     0.0917053
  C        1.9924560     0.7166710    -0.4292430
  C        3.2969670     0.0166800    -0.0788280
  H       -1.4931140    -0.5968520     1.1678280
  H       -0.4432210     1.3965910    -0.7180680
  H       -3.0167340    -1.5709650    -0.5578120
  H       -2.2433890    -0.5581650    -1.7943680
  H       -1.3035910    -1.8142070    -0.9546500
  H       -2.4287380     1.7063800     1.2494310
  H       -3.6863690     0.5519340     0.7608270
  H       -2.9190420     1.5806020    -0.4540200
  H        1.8890940     0.8204890    -1.5196510
  H        1.9757950     1.7355060    -0.0222730
  H        3.3123780    -0.9936500    -0.4915720
  H        4.1482470     0.5747890    -0.4771690
  H        3.4100600    -0.0687260     1.0041520
units angstrom
no_reorient  #important for SAPT in psi4, default
symmetry c1  #important for SAPT in psi4, default
}

set PROPERTIES_ORIGIN ["COM"]
properties('MP2/aug-cc-pvtz', properties = ['dipole'])
--------------------------------------------------------------------------

    Molecular point group: c1
  Charge       = 0
  Multiplicity = 1
  Basis Set: AUG-CC-PVTZ
    Blend: AUG-CC-PVTZ
  Basis Set: (AUG-CC-PVTZ AUX)
    Blend: AUG-CC-PVTZ-JKFIT

    Orbital Energies [Eh]
    ---------------------

    Doubly Occupied:

       1A    -20.512023     2A    -15.579071     3A    -11.345786
       4A    -11.265537     5A    -11.241013     6A    -11.223511
       7A    -11.214050     8A    -11.212554     9A     -1.361173
      10A     -1.227750    11A     -1.068225    12A     -1.031379
      13A     -0.940553    14A     -0.889951    15A     -0.807861
      16A     -0.777346    17A     -0.682818    18A     -0.652496
      19A     -0.636226    20A     -0.615001    21A     -0.591288
      22A     -0.577623    23A     -0.550726    24A     -0.545375
      25A     -0.524810    26A     -0.512440    27A     -0.509663
      28A     -0.497356    29A     -0.488699    30A     -0.474110
      31A     -0.417696    32A     -0.384782

  @DF-RHF Final Energy:  -364.24772406193460

   => Energetics <=

    Nuclear Repulsion Energy =            392.4169887680340594
    One-Electron Energy =               -1272.6116452657274749
    Two-Electron Energy =                 515.9469324357587539
    Total Energy =                       -364.2477240619346048
  Basis Set: (AUG-CC-PVTZ AUX)
    Blend: AUG-CC-PVTZ-RI
    Molecular point group: c1

    Geometry (in Angstrom), charge = 0, multiplicity = 1:

       Center              X                  Y                   Z               Mass
    ------------   -----------------  -----------------  -----------------  -----------------
         O            0.868698820163    -1.130656670477     0.676256909452    15.994914619570
         N           -0.416987179837     0.587113329523    -0.100512090548    14.003074004430
         C           -1.686233079837    -0.048104370477     0.232760809452    12.000000000000
         C           -2.087237179837    -1.065156670477    -0.834126090548    12.000000000000
         C           -2.739031179837     1.009267329523     0.465884909452    12.000000000000
         C            0.786625820163    -0.033105270477     0.092566209452    12.000000000000
         C            1.992517820163     0.714595329523    -0.428382090548    12.000000000000
         C            3.297028820163     0.014604329523    -0.077967090548    12.000000000000
         H           -1.493052179837    -0.598927670477     1.168688909452     1.007825032230
         H           -0.443159179837     1.394515329523    -0.717207090548     1.007825032230
         H           -3.016672179837    -1.573040670477    -0.556951090548     1.007825032230
         H           -2.243327179837    -0.560240670477    -1.793507090548     1.007825032230
         H           -1.303529179837    -1.816282670477    -0.953789090548     1.007825032230
         H           -2.428676179837     1.704304329523     1.250291909452     1.007825032230
         H           -3.686307179837     0.549858329523     0.761687909452     1.007825032230
         H           -2.918980179837     1.578526329523    -0.453159090548     1.007825032230
         H            1.889155820163     0.818413329523    -1.518790090548     1.007825032230
         H            1.975856820163     1.733430329523    -0.021412090548     1.007825032230
         H            3.312439820163    -0.995725670477    -0.490711090548     1.007825032230
         H            4.148308820163     0.572713329523    -0.476308090548     1.007825032230
         H            3.410121820163    -0.070801670477     1.005012909452     1.007825032230

  Basis Set: AUG-CC-PVTZ
    Blend: AUG-CC-PVTZ
  Basis Set: (AUG-CC-PVTZ AUX)
    Blend: AUG-CC-PVTZ-JKFIT
	 Reference Energy          =    -364.2477240619346048 [Eh]
	 Singles Energy            =      -0.0000000000000000 [Eh]
	 Same-Spin Energy          =      -0.3761163334185378 [Eh]
	 Opposite-Spin Energy      =      -1.2757591072482781 [Eh]
	 Correlation Energy        =      -1.6518754406668159 [Eh]
	 Total Energy              =    -365.8995995026014043 [Eh]

	 ================> DF-SCS-MP2 Energies <==================
	-----------------------------------------------------------
	 SCS Same-Spin Scale       =       0.3333333333333333 [-]
	 SCS Opposite-Spin Scale   =       1.2000000000000000 [-]
	 SCS Same-Spin Energy      =      -0.1253721111395126 [Eh]
	 SCS Opposite-Spin Energy  =      -1.5309109286979337 [Eh]
	 SCS Correlation Energy    =      -1.6562830398374462 [Eh]
	 SCS Total Energy          =    -365.9040071017720379 [Eh]
	-----------------------------------------------------------

  Dipole Moment: [D]
     X:    -1.2826      Y:     2.7804      Z:    -1.6633     Total:     3.4846

*** Psi4 exiting successfully. Buy a developer a beer!
