                               Psi4 1.3.2 release

  ==> Input File <==

--------------------------------------------------------------------------
#psi4
#
memory 32 gb

molecule  {
0 1
  O        0.8686370    -1.1285810     0.6753960
  N       -0.4278859     0.5990118    -0.1221946
  C       -1.6800190    -0.0563620     0.2358630
  C       -2.0872990    -1.0630810    -0.8349870
  C       -2.7390930     1.0113430     0.4650240
  C        0.7808810    -0.0406060     0.0960010
  C        1.9924560     0.7166710    -0.4292430
  C        3.2969670     0.0166800    -0.0788280
  H       -1.5112085    -0.6029168     1.1677442
  H       -0.4432210     1.3965910    -0.7180680
  H       -3.0167340    -1.5709650    -0.5578120
  H       -2.2433890    -0.5581650    -1.7943680
  H       -1.3035910    -1.8142070    -0.9546500
  H       -2.4287380     1.7063800     1.2494310
  H       -3.6863690     0.5519340     0.7608270
  H       -2.9190420     1.5806020    -0.4540200
  H        1.8890940     0.8204890    -1.5196510
  H        1.9757950     1.7355060    -0.0222730
  H        3.3123780    -0.9936500    -0.4915720
  H        4.1482470     0.5747890    -0.4771690
  H        3.4100600    -0.0687260     1.0041520
units angstrom
no_reorient  #important for SAPT in psi4, default
symmetry c1  #important for SAPT in psi4, default
}

set PROPERTIES_ORIGIN ["COM"]
properties('MP2/aug-cc-pvtz', properties = ['dipole'])
--------------------------------------------------------------------------

    Molecular point group: c1
  Charge       = 0
  Multiplicity = 1
  Basis Set: AUG-CC-PVTZ
    Blend: AUG-CC-PVTZ
  Basis Set: (AUG-CC-PVTZ AUX)
    Blend: AUG-CC-PVTZ-JKFIT

    Orbital Energies [Eh]
    ---------------------

    Doubly Occupied:

       1A    -20.516721     2A    -15.576260     3A    -11.347597
       4A    -11.264479     5A    -11.240687     6A    -11.222504
       7A    -11.213920     8A    -11.211555     9A     -1.367352
      10A     -1.227918    11A     -1.065530    12A     -1.029412
      13A     -0.939208    14A     -0.887709    15A     -0.807521
      16A     -0.779252    17A     -0.682575    18A     -0.655960
      19A     -0.635277    20A     -0.612335    21A     -0.595837
      22A     -0.578203    23A     -0.549019    24A     -0.544764
      25A     -0.525043    26A     -0.513651    27A     -0.509787
      28A     -0.496714    29A     -0.487726    30A     -0.476603
      31A     -0.418170    32A     -0.385570

  @DF-RHF Final Energy:  -364.24844622789101

   => Energetics <=

    Nuclear Repulsion Energy =            392.2307914498472314
    One-Electron Energy =               -1272.2287540575530329
    Two-Electron Energy =                 515.7495163798148496
    Total Energy =                       -364.2484462278910087
  Basis Set: (AUG-CC-PVTZ AUX)
    Blend: AUG-CC-PVTZ-RI
    Molecular point group: c1

    Geometry (in Angstrom), charge = 0, multiplicity = 1:

       Center              X                  Y                   Z               Mass
    ------------   -----------------  -----------------  -----------------  -----------------
         O            0.870113864536    -1.129722877871     0.677929765575    15.994914619570
         N           -0.426409035464     0.597869922129    -0.119660834425    14.003074004430
         C           -1.678542135464    -0.057503877871     0.238396765575    12.000000000000
         C           -2.085822135464    -1.064222877871    -0.832453234425    12.000000000000
         C           -2.737616135464     1.010201122129     0.467557765575    12.000000000000
         C            0.782357864536    -0.041747877871     0.098534765575    12.000000000000
         C            1.993932864536     0.715529122129    -0.426709234425    12.000000000000
         C            3.298443864536     0.015538122129    -0.076294234425    12.000000000000
         H           -1.509731635464    -0.604058677871     1.170277965575     1.007825032230
         H           -0.441744135464     1.395449122129    -0.715534234425     1.007825032230
         H           -3.015257135464    -1.572106877871    -0.555278234425     1.007825032230
         H           -2.241912135464    -0.559306877871    -1.791834234425     1.007825032230
         H           -1.302114135464    -1.815348877871    -0.952116234425     1.007825032230
         H           -2.427261135464     1.705238122129     1.251964765575     1.007825032230
         H           -3.684892135464     0.550792122129     0.763360765575     1.007825032230
         H           -2.917565135464     1.579460122129    -0.451486234425     1.007825032230
         H            1.890570864536     0.819347122129    -1.517117234425     1.007825032230
         H            1.977271864536     1.734364122129    -0.019739234425     1.007825032230
         H            3.313854864536    -0.994791877871    -0.489038234425     1.007825032230
         H            4.149723864536     0.573647122129    -0.474635234425     1.007825032230
         H            3.411536864536    -0.069867877871     1.006685765575     1.007825032230

  Basis Set: AUG-CC-PVTZ
    Blend: AUG-CC-PVTZ
  Basis Set: (AUG-CC-PVTZ AUX)
    Blend: AUG-CC-PVTZ-JKFIT
	 Reference Energy          =    -364.2484462278910087 [Eh]
	 Singles Energy            =      -0.0000000000000000 [Eh]
	 Same-Spin Energy          =      -0.3757090249617757 [Eh]
	 Opposite-Spin Energy      =      -1.2751697600322176 [Eh]
	 Correlation Energy        =      -1.6508787849939934 [Eh]
	 Total Energy              =    -365.8993250128850150 [Eh]

	 ================> DF-SCS-MP2 Energies <==================
	-----------------------------------------------------------
	 SCS Same-Spin Scale       =       0.3333333333333333 [-]
	 SCS Opposite-Spin Scale   =       1.2000000000000000 [-]
	 SCS Same-Spin Energy      =      -0.1252363416539252 [Eh]
	 SCS Opposite-Spin Energy  =      -1.5302037120386611 [Eh]
	 SCS Correlation Energy    =      -1.6554400536925864 [Eh]
	 SCS Total Energy          =    -365.9038862815835955 [Eh]
	-----------------------------------------------------------

  Dipole Moment: [D]
     X:    -1.2091      Y:     2.6915      Z:    -1.5993     Total:     3.3562

*** Psi4 exiting successfully. Buy a developer a beer!
