                               Psi4 1.3.2 release

  ==> Input File <==

--------------------------------------------------------------------------
#psi4
#
memory 32 gb

molecule  {
0 1
  O        0.8793303    -1.1284019     0.6740123
  N       -0.4113824     0.5981226    -0.1068990
  C       -1.6800190    -0.0563620     0.2358630
  C       -2.0872990    -1.0630810    -0.8349870
  C       -2.7390930     1.0113430     0.4650240
  C        0.7808810    -0.0406060     0.0960010
  C        1.9924560     0.7166710    -0.4292430
  C        3.2969670     0.0166800    -0.0788280
  H       -1.4931140    -0.5968520     1.1678280
  H       -0.4432210     1.3965910    -0.7180680
  H       -3.0167340    -1.5709650    -0.5578120
  H       -2.2433890    -0.5581650    -1.7943680
  H       -1.3035910    -1.8142070    -0.9546500
  H       -2.4287380     1.7063800     1.2494310
  H       -3.6863690     0.5519340     0.7608270
  H       -2.9190420     1.5806020    -0.4540200
  H        1.8890940     0.8204890    -1.5196510
  H        1.9757950     1.7355060    -0.0222730
  H        3.3123780    -0.9936500    -0.4915720
  H        4.1482470     0.5747890    -0.4771690
  H        3.4100600    -0.0687260     1.0041520
units angstrom
no_reorient  #important for SAPT in psi4, default
symmetry c1  #important for SAPT in psi4, default
}

set PROPERTIES_ORIGIN ["COM"]
properties('MP2/aug-cc-pvtz', properties = ['dipole'])
--------------------------------------------------------------------------

    Molecular point group: c1
  Charge       = 0
  Multiplicity = 1
  Basis Set: AUG-CC-PVTZ
    Blend: AUG-CC-PVTZ
  Basis Set: (AUG-CC-PVTZ AUX)
    Blend: AUG-CC-PVTZ-JKFIT

    Orbital Energies [Eh]
    ---------------------

    Doubly Occupied:

       1A    -20.514041     2A    -15.578244     3A    -11.344958
       4A    -11.266199     5A    -11.239050     6A    -11.223842
       7A    -11.213197     8A    -11.212705     9A     -1.366847
      10A     -1.228717    11A     -1.065996    12A     -1.029774
      13A     -0.940287    14A     -0.886974    15A     -0.807477
      16A     -0.780800    17A     -0.681968    18A     -0.653592
      19A     -0.634984    20A     -0.613800    21A     -0.593886
      22A     -0.578917    23A     -0.549518    24A     -0.545789
      25A     -0.525727    26A     -0.512085    27A     -0.508105
      28A     -0.496570    29A     -0.488257    30A     -0.477618
      31A     -0.416832    32A     -0.387169

  @DF-RHF Final Energy:  -364.24921157740698

   => Energetics <=

    Nuclear Repulsion Energy =            392.3252377120741698
    One-Electron Energy =               -1272.4210533701302666
    Two-Electron Energy =                 515.8466040806491719
    Total Energy =                       -364.2492115774069816
  Basis Set: (AUG-CC-PVTZ AUX)
    Blend: AUG-CC-PVTZ-RI
    Molecular point group: c1

    Geometry (in Angstrom), charge = 0, multiplicity = 1:

       Center              X                  Y                   Z               Mass
    ------------   -----------------  -----------------  -----------------  -----------------
         O            0.877154903139    -1.129513590247     0.674876750298    15.994914619570
         N           -0.413557796861     0.597010909753    -0.106034549702    14.003074004430
         C           -1.682194396861    -0.057473690247     0.236727450298    12.000000000000
         C           -2.089474396861    -1.064192690247    -0.834122549702    12.000000000000
         C           -2.741268396861     1.010231309753     0.465888450298    12.000000000000
         C            0.778705603139    -0.041717690247     0.096865450298    12.000000000000
         C            1.990280603139     0.715559309753    -0.428378549702    12.000000000000
         C            3.294791603139     0.015568309753    -0.077963549702    12.000000000000
         H           -1.495289396861    -0.597963690247     1.168692450298     1.007825032230
         H           -0.445396396861     1.395479309753    -0.717203549702     1.007825032230
         H           -3.018909396861    -1.572076690247    -0.556947549702     1.007825032230
         H           -2.245564396861    -0.559276690247    -1.793503549702     1.007825032230
         H           -1.305766396861    -1.815318690247    -0.953785549702     1.007825032230
         H           -2.430913396861     1.705268309753     1.250295450298     1.007825032230
         H           -3.688544396861     0.550822309753     0.761691450298     1.007825032230
         H           -2.921217396861     1.579490309753    -0.453155549702     1.007825032230
         H            1.886918603139     0.819377309753    -1.518786549702     1.007825032230
         H            1.973619603139     1.734394309753    -0.021408549702     1.007825032230
         H            3.310202603139    -0.994761690247    -0.490707549702     1.007825032230
         H            4.146071603139     0.573677309753    -0.476304549702     1.007825032230
         H            3.407884603139    -0.069837690247     1.005016450298     1.007825032230

  Basis Set: AUG-CC-PVTZ
    Blend: AUG-CC-PVTZ
  Basis Set: (AUG-CC-PVTZ AUX)
    Blend: AUG-CC-PVTZ-JKFIT
	 Reference Energy          =    -364.2492115774069816 [Eh]
	 Singles Energy            =      -0.0000000000000000 [Eh]
	 Same-Spin Energy          =      -0.3756592173542490 [Eh]
	 Opposite-Spin Energy      =      -1.2750500944141410 [Eh]
	 Correlation Energy        =      -1.6507093117683900 [Eh]
	 Total Energy              =    -365.8999208891753483 [Eh]

	 ================> DF-SCS-MP2 Energies <==================
	-----------------------------------------------------------
	 SCS Same-Spin Scale       =       0.3333333333333333 [-]
	 SCS Opposite-Spin Scale   =       1.2000000000000000 [-]
	 SCS Same-Spin Energy      =      -0.1252197391180830 [Eh]
	 SCS Opposite-Spin Energy  =      -1.5300601132969691 [Eh]
	 SCS Correlation Energy    =      -1.6552798524150520 [Eh]
	 SCS Total Energy          =    -365.9044914298220306 [Eh]
	-----------------------------------------------------------

  Dipole Moment: [D]
     X:    -1.3562      Y:     2.7072      Z:    -1.6332     Total:     3.4403

*** Psi4 exiting successfully. Buy a developer a beer!
