                               Psi4 1.4a3.dev225

  ==> Input File <==

--------------------------------------------------------------------------
#psi4
#
memory 32 gb

molecule  {
0 1
  O        0.8665680     1.1680080    -0.7351460
  N       -0.3660760    -0.5086790     0.1929010
  C       -1.6441200     0.0174450    -0.2761400
  C       -2.1412550     1.1442230     0.6252270
  C       -2.6427120    -1.1266550    -0.3840140
  C        0.8039088     0.1146464    -0.0010090
  C        2.0309430    -0.4326950     0.6540710
  C        3.2825740    -0.2523450    -0.1975960
  H       -1.4466230     0.4281070    -1.2709490
  H       -0.3785050    -1.2608410     0.8714320
  H       -3.0785860     1.5617170     0.2436050
  H       -2.3175770     0.7713190     1.6396860
  H       -1.3960540     1.9417130     0.6641920
  H       -2.2693050    -1.9092940    -1.0497770
  H       -3.5969080    -0.7634960    -0.7753550
  H       -2.8341330    -1.5678230     0.6011330
  H        2.1523320     0.0883960     1.6122110
  H        1.8656800    -1.4909910     0.8873090
  H        3.4076760     0.8004350    -0.4533700
  H        4.1701610    -0.5986810     0.3385000
  H        3.2011700    -0.8174180    -1.1296580
units angstrom
no_reorient  #important for SAPT in psi4, default
symmetry c1  #important for SAPT in psi4, default
}

set PROPERTIES_ORIGIN ["COM"]
properties('MP2/aug-cc-pvtz', properties = ['dipole'])
--------------------------------------------------------------------------

    Molecular point group: c1
  Charge       = 0
  Multiplicity = 1
  Basis Set: AUG-CC-PVTZ
    Blend: AUG-CC-PVTZ
  Basis Set: (AUG-CC-PVTZ AUX)
    Blend: AUG-CC-PVTZ-JKFIT

    Orbital Energies [Eh]
    ---------------------

    Doubly Occupied:

       1A    -20.500474     2A    -15.588154     3A    -11.345072
       4A    -11.269418     5A    -11.241520     6A    -11.226862
       7A    -11.216474     8A    -11.213970     9A     -1.341026
      10A     -1.229861    11A     -1.071816    12A     -1.034784
      13A     -0.942031    14A     -0.893648    15A     -0.815301
      16A     -0.784454    17A     -0.680260    18A     -0.660744
      19A     -0.628054    20A     -0.618672    21A     -0.586120
      22A     -0.570260    23A     -0.557975    24A     -0.547467
      25A     -0.526389    26A     -0.513134    27A     -0.507488
      28A     -0.498011    29A     -0.487789    30A     -0.470222
      31A     -0.411171    32A     -0.384483

  @DF-RHF Final Energy:  -364.24219375843262

   => Energetics <=

    Nuclear Repulsion Energy =            392.3588042399226197
    One-Electron Energy =               -1272.4757846222444186
    Two-Electron Energy =                 515.8747866238891220
    Total Energy =                       -364.2421937584326770
  Basis Set: (AUG-CC-PVTZ AUX)
    Blend: AUG-CC-PVTZ-RI
    Molecular point group: c1

    Geometry (in Angstrom), charge = 0, multiplicity = 1:

       Center              X                  Y                   Z               Mass
    ------------   -----------------  -----------------  -----------------  -----------------
         O            0.845141699043     1.148063099391    -0.719377819209    15.994914619570
         N           -0.387502300957    -0.528623900609     0.208669180791    14.003074004430
         C           -1.665546300957    -0.002499900609    -0.260371819209    12.000000000000
         C           -2.162681300957     1.124278099391     0.640995180791    12.000000000000
         C           -2.664138300957    -1.146599900609    -0.368245819209    12.000000000000
         C            0.782482499043     0.094701499391     0.014759180791    12.000000000000
         C            2.009516699043    -0.452639900609     0.669839180791    12.000000000000
         C            3.261147699043    -0.272289900609    -0.181827819209    12.000000000000
         H           -1.468049300957     0.408162099391    -1.255180819209     1.007825032230
         H           -0.399931300957    -1.280785900609     0.887200180791     1.007825032230
         H           -3.100012300957     1.541772099391     0.259373180791     1.007825032230
         H           -2.339003300957     0.751374099391     1.655454180791     1.007825032230
         H           -1.417480300957     1.921768099391     0.679960180791     1.007825032230
         H           -2.290731300957    -1.929238900609    -1.034008819209     1.007825032230
         H           -3.618334300957    -0.783440900609    -0.759586819209     1.007825032230
         H           -2.855559300957    -1.587767900609     0.616901180791     1.007825032230
         H            2.130905699043     0.068451099391     1.627979180791     1.007825032230
         H            1.844253699043    -1.510935900609     0.903077180791     1.007825032230
         H            3.386249699043     0.780490099391    -0.437601819209     1.007825032230
         H            4.148734699043    -0.618625900609     0.354268180791     1.007825032230
         H            3.179743699043    -0.837362900609    -1.113889819209     1.007825032230

  Basis Set: AUG-CC-PVTZ
    Blend: AUG-CC-PVTZ
  Basis Set: (AUG-CC-PVTZ AUX)
    Blend: AUG-CC-PVTZ-JKFIT
	 Reference Energy          =    -364.2421937584326201 [Eh]
	 Singles Energy            =      -0.0000000000000000 [Eh]
	 Same-Spin Energy          =      -0.3768709550745944 [Eh]
	 Opposite-Spin Energy      =      -1.2771663248967431 [Eh]
	 Correlation Energy        =      -1.6540372799713374 [Eh]
	 Total Energy              =    -365.8962310384039824 [Eh]

	 ================> DF-SCS-MP2 Energies <==================
	-----------------------------------------------------------
	 SCS Same-Spin Scale       =       0.3333333333333333 [-]
	 SCS Opposite-Spin Scale   =       1.2000000000000000 [-]
	 SCS Same-Spin Energy      =      -0.1256236516915315 [Eh]
	 SCS Opposite-Spin Energy  =      -1.5325995898760916 [Eh]
	 SCS Correlation Energy    =      -1.6582232415676230 [Eh]
	 SCS Total Energy          =    -365.9004170000002318 [Eh]
	-----------------------------------------------------------

  Dipole Moment: [D]
     X:    -1.4310      Y:    -2.8420      Z:     2.0498     Total:     3.7850

*** Psi4 exiting successfully. Buy a developer a beer!
