                               Psi4 1.3.2 release

  ==> Input File <==

--------------------------------------------------------------------------
#psi4
#
memory 32 gb

molecule  {
0 1
  O        0.8686370    -1.1285810     0.6753960
  N       -0.4388936     0.5525432    -0.0799493
  C       -1.6800190    -0.0563620     0.2358630
  C       -2.0872990    -1.0630810    -0.8349870
  C       -2.7390930     1.0113430     0.4650240
  C        0.7808810    -0.0406060     0.0960010
  C        2.0234754     0.6771089    -0.4120424
  C        3.2969670     0.0166800    -0.0788280
  H       -1.4931140    -0.5968520     1.1678280
  H       -0.4432210     1.3965910    -0.7180680
  H       -3.0167340    -1.5709650    -0.5578120
  H       -2.2433890    -0.5581650    -1.7943680
  H       -1.3035910    -1.8142070    -0.9546500
  H       -2.4287380     1.7063800     1.2494310
  H       -3.6863690     0.5519340     0.7608270
  H       -2.9190420     1.5806020    -0.4540200
  H        1.8890940     0.8204890    -1.5196510
  H        1.9757950     1.7355060    -0.0222730
  H        3.3123780    -0.9936500    -0.4915720
  H        4.1482470     0.5747890    -0.4771690
  H        3.4100600    -0.0687260     1.0041520
units angstrom
no_reorient  #important for SAPT in psi4, default
symmetry c1  #important for SAPT in psi4, default
}

set PROPERTIES_ORIGIN ["COM"]
properties('MP2/aug-cc-pvtz', properties = ['dipole'])
--------------------------------------------------------------------------

    Molecular point group: c1
  Charge       = 0
  Multiplicity = 1
  Basis Set: AUG-CC-PVTZ
    Blend: AUG-CC-PVTZ
  Basis Set: (AUG-CC-PVTZ AUX)
    Blend: AUG-CC-PVTZ-JKFIT

    Orbital Energies [Eh]
    ---------------------

    Doubly Occupied:

       1A    -20.510512     2A    -15.581430     3A    -11.344746
       4A    -11.262121     5A    -11.246153     6A    -11.223363
       7A    -11.213024     8A    -11.211030     9A     -1.368061
      10A     -1.231811    11A     -1.069186    12A     -1.034556
      13A     -0.939645    14A     -0.891199    15A     -0.811430
      16A     -0.768510    17A     -0.683282    18A     -0.653580
      19A     -0.634618    20A     -0.614824    21A     -0.593038
      22A     -0.575497    23A     -0.557999    24A     -0.544896
      25A     -0.527836    26A     -0.521479    27A     -0.510542
      28A     -0.495340    29A     -0.483811    30A     -0.471696
      31A     -0.416230    32A     -0.381759

  @DF-RHF Final Energy:  -364.24128496953864

   => Energetics <=

    Nuclear Repulsion Energy =            393.2942811008089734
    One-Electron Energy =               -1274.3247254476405033
    Two-Electron Energy =                 516.7891593772928900
    Total Energy =                       -364.2412849695385830
  Basis Set: (AUG-CC-PVTZ AUX)
    Blend: AUG-CC-PVTZ-RI
    Molecular point group: c1

    Geometry (in Angstrom), charge = 0, multiplicity = 1:

       Center              X                  Y                   Z               Mass
    ------------   -----------------  -----------------  -----------------  -----------------
         O            0.868060625271    -1.119997951995     0.670996162616    15.994914619570
         N           -0.439469974729     0.561126248005    -0.084349137384    14.003074004430
         C           -1.680595374729    -0.047778951995     0.231463162616    12.000000000000
         C           -2.087875374729    -1.054497951995    -0.839386837384    12.000000000000
         C           -2.739669374729     1.019926048005     0.460624162616    12.000000000000
         C            0.780304625271    -0.032022951995     0.091601162616    12.000000000000
         C            2.022899025271     0.685691948005    -0.416442237384    12.000000000000
         C            3.296390625271     0.025263048005    -0.083227837384    12.000000000000
         H           -1.493690374729    -0.588268951995     1.163428162616     1.007825032230
         H           -0.443797374729     1.405174048005    -0.722467837384     1.007825032230
         H           -3.017310374729    -1.562381951995    -0.562211837384     1.007825032230
         H           -2.243965374729    -0.549581951995    -1.798767837384     1.007825032230
         H           -1.304167374729    -1.805623951995    -0.959049837384     1.007825032230
         H           -2.429314374729     1.714963048005     1.245031162616     1.007825032230
         H           -3.686945374729     0.560517048005     0.756427162616     1.007825032230
         H           -2.919618374729     1.589185048005    -0.458419837384     1.007825032230
         H            1.888517625271     0.829072048005    -1.524050837384     1.007825032230
         H            1.975218625271     1.744089048005    -0.026672837384     1.007825032230
         H            3.311801625271    -0.985066951995    -0.495971837384     1.007825032230
         H            4.147670625271     0.583372048005    -0.481568837384     1.007825032230
         H            3.409483625271    -0.060142951995     0.999752162616     1.007825032230

  Basis Set: AUG-CC-PVTZ
    Blend: AUG-CC-PVTZ
  Basis Set: (AUG-CC-PVTZ AUX)
    Blend: AUG-CC-PVTZ-JKFIT
	 Reference Energy          =    -364.2412849695386399 [Eh]
	 Singles Energy            =      -0.0000000000000000 [Eh]
	 Same-Spin Energy          =      -0.3766586317942378 [Eh]
	 Opposite-Spin Energy      =      -1.2761452705905416 [Eh]
	 Correlation Energy        =      -1.6528039023847794 [Eh]
	 Total Energy              =    -365.8940888719234295 [Eh]

	 ================> DF-SCS-MP2 Energies <==================
	-----------------------------------------------------------
	 SCS Same-Spin Scale       =       0.3333333333333333 [-]
	 SCS Opposite-Spin Scale   =       1.2000000000000000 [-]
	 SCS Same-Spin Energy      =      -0.1255528772647459 [Eh]
	 SCS Opposite-Spin Energy  =      -1.5313743247086500 [Eh]
	 SCS Correlation Energy    =      -1.6569272019733958 [Eh]
	 SCS Total Energy          =    -365.8982121715120570 [Eh]
	-----------------------------------------------------------

  Dipole Moment: [D]
     X:    -1.1656      Y:     2.7782      Z:    -1.6513     Total:     3.4357

*** Psi4 exiting successfully. Buy a developer a beer!
