                               Psi4 1.3.2 release

  ==> Input File <==

--------------------------------------------------------------------------
#psi4
#
memory 32 gb

molecule  {
0 1
  O        0.8686370    -1.1285810     0.6753960
  N       -0.4170490     0.5891890    -0.1013730
  C       -1.6800190    -0.0563620     0.2358630
  C       -2.0872990    -1.0630810    -0.8349870
  C       -2.7390930     1.0113430     0.4650240
  C        0.7808810    -0.0406060     0.0960010
  C        1.8332745     0.6171770    -0.3602344
  C        3.2969670     0.0166800    -0.0788280
  H       -1.4931140    -0.5968520     1.1678280
  H       -0.4432210     1.3965910    -0.7180680
  H       -3.0167340    -1.5709650    -0.5578120
  H       -2.2433890    -0.5581650    -1.7943680
  H       -1.3035910    -1.8142070    -0.9546500
  H       -2.4287380     1.7063800     1.2494310
  H       -3.6863690     0.5519340     0.7608270
  H       -2.9190420     1.5806020    -0.4540200
  H        1.8890940     0.8204890    -1.5196510
  H        1.9757950     1.7355060    -0.0222730
  H        3.3123780    -0.9936500    -0.4915720
  H        4.1482470     0.5747890    -0.4771690
  H        3.4100600    -0.0687260     1.0041520
units angstrom
no_reorient  #important for SAPT in psi4, default
symmetry c1  #important for SAPT in psi4, default
}

set PROPERTIES_ORIGIN ["COM"]
properties('MP2/aug-cc-pvtz', properties = ['dipole'])
--------------------------------------------------------------------------

    Molecular point group: c1
  Charge       = 0
  Multiplicity = 1
  Basis Set: AUG-CC-PVTZ
    Blend: AUG-CC-PVTZ
  Basis Set: (AUG-CC-PVTZ AUX)
    Blend: AUG-CC-PVTZ-JKFIT

    Orbital Energies [Eh]
    ---------------------

    Doubly Occupied:

       1A    -20.511945     2A    -15.574276     3A    -11.334229
       4A    -11.263234     5A    -11.246545     6A    -11.222324
       7A    -11.221690     8A    -11.211362     9A     -1.373792
      10A     -1.229892    11A     -1.081647    12A     -1.024738
      13A     -0.938726    14A     -0.910749    15A     -0.805093
      16A     -0.773754    17A     -0.702637    18A     -0.654191
      19A     -0.634179    20A     -0.611766    21A     -0.597239
      22A     -0.573762    23A     -0.554986    24A     -0.544253
      25A     -0.530276    26A     -0.521699    27A     -0.495178
      28A     -0.483998    29A     -0.470189    30A     -0.458210
      31A     -0.429793    32A     -0.384474

  @DF-RHF Final Energy:  -364.20027065132939

   => Energetics <=

    Nuclear Repulsion Energy =            395.5103237051389442
    One-Electron Energy =               -1278.6795336702666646
    Two-Electron Energy =                 518.9689393137982734
    Total Energy =                       -364.2002706513294470
  Basis Set: (AUG-CC-PVTZ AUX)
    Blend: AUG-CC-PVTZ-RI
    Molecular point group: c1

    Geometry (in Angstrom), charge = 0, multiplicity = 1:

       Center              X                  Y                   Z               Mass
    ------------   -----------------  -----------------  -----------------  -----------------
         O            0.885232859503    -1.118207947977     0.668201209160    15.994914619570
         N           -0.400453140497     0.599562052023    -0.108567790840    14.003074004430
         C           -1.663423140497    -0.045988947977     0.228668209160    12.000000000000
         C           -2.070703140497    -1.052707947977    -0.842181790840    12.000000000000
         C           -2.722497140497     1.021716052023     0.457829209160    12.000000000000
         C            0.797476859503    -0.030232947977     0.088806209160    12.000000000000
         C            1.849870359503     0.627550052023    -0.367429190840    12.000000000000
         C            3.313562859503     0.027053052023    -0.086022790840    12.000000000000
         H           -1.476518140497    -0.586478947977     1.160633209160     1.007825032230
         H           -0.426625140497     1.406964052023    -0.725262790840     1.007825032230
         H           -3.000138140497    -1.560591947977    -0.565006790840     1.007825032230
         H           -2.226793140497    -0.547791947977    -1.801562790840     1.007825032230
         H           -1.286995140497    -1.803833947977    -0.961844790840     1.007825032230
         H           -2.412142140497     1.716753052023     1.242236209160     1.007825032230
         H           -3.669773140497     0.562307052023     0.753632209160     1.007825032230
         H           -2.902446140497     1.590975052023    -0.461214790840     1.007825032230
         H            1.905689859503     0.830862052023    -1.526845790840     1.007825032230
         H            1.992390859503     1.745879052023    -0.029467790840     1.007825032230
         H            3.328973859503    -0.983276947977    -0.498766790840     1.007825032230
         H            4.164842859503     0.585162052023    -0.484363790840     1.007825032230
         H            3.426655859503    -0.058352947977     0.996957209160     1.007825032230

  Basis Set: AUG-CC-PVTZ
    Blend: AUG-CC-PVTZ
  Basis Set: (AUG-CC-PVTZ AUX)
    Blend: AUG-CC-PVTZ-JKFIT
	 Reference Energy          =    -364.2002706513293901 [Eh]
	 Singles Energy            =      -0.0000000000000000 [Eh]
	 Same-Spin Energy          =      -0.3782971887805179 [Eh]
	 Opposite-Spin Energy      =      -1.2790235276378605 [Eh]
	 Correlation Energy        =      -1.6573207164183783 [Eh]
	 Total Energy              =    -365.8575913677477729 [Eh]

	 ================> DF-SCS-MP2 Energies <==================
	-----------------------------------------------------------
	 SCS Same-Spin Scale       =       0.3333333333333333 [-]
	 SCS Opposite-Spin Scale   =       1.2000000000000000 [-]
	 SCS Same-Spin Energy      =      -0.1260990629268393 [Eh]
	 SCS Opposite-Spin Energy  =      -1.5348282331654326 [Eh]
	 SCS Correlation Energy    =      -1.6609272960922719 [Eh]
	 SCS Total Energy          =    -365.8611979474216582 [Eh]
	-----------------------------------------------------------

  Dipole Moment: [D]
     X:    -1.0126      Y:     2.8303      Z:    -1.7188     Total:     3.4627

*** Psi4 exiting successfully. Buy a developer a beer!
