                               Psi4 1.3.2 release

  ==> Input File <==

--------------------------------------------------------------------------
#psi4
#
memory 32 gb

molecule  {
0 1
  O        0.8686370    -1.1285810     0.6753960
  N       -0.4224196     0.5941252    -0.1117970
  C       -1.6800190    -0.0563620     0.2358630
  C       -2.0872990    -1.0630810    -0.8349870
  C       -2.7390930     1.0113430     0.4650240
  C        0.7808810    -0.0406060     0.0960010
  C        1.9924560     0.7166710    -0.4292430
  C        3.2969670     0.0166800    -0.0788280
  H       -1.5021545    -0.5999051     1.1678216
  H       -0.4432210     1.3965910    -0.7180680
  H       -3.0167340    -1.5709650    -0.5578120
  H       -2.2433890    -0.5581650    -1.7943680
  H       -1.3035910    -1.8142070    -0.9546500
  H       -2.4287380     1.7063800     1.2494310
  H       -3.6863690     0.5519340     0.7608270
  H       -2.9190420     1.5806020    -0.4540200
  H        1.8890940     0.8204890    -1.5196510
  H        1.9757950     1.7355060    -0.0222730
  H        3.3123780    -0.9936500    -0.4915720
  H        4.1482470     0.5747890    -0.4771690
  H        3.4100600    -0.0687260     1.0041520
units angstrom
no_reorient  #important for SAPT in psi4, default
symmetry c1  #important for SAPT in psi4, default
}

set PROPERTIES_ORIGIN ["COM"]
properties('MP2/aug-cc-pvtz', properties = ['dipole'])
--------------------------------------------------------------------------

    Molecular point group: c1
  Charge       = 0
  Multiplicity = 1
  Basis Set: AUG-CC-PVTZ
    Blend: AUG-CC-PVTZ
  Basis Set: (AUG-CC-PVTZ AUX)
    Blend: AUG-CC-PVTZ-JKFIT

    Orbital Energies [Eh]
    ---------------------

    Doubly Occupied:

       1A    -20.515087     2A    -15.577301     3A    -11.346235
       4A    -11.264709     5A    -11.240479     6A    -11.222995
       7A    -11.213703     8A    -11.212043     9A     -1.367217
      10A     -1.228276    11A     -1.065836    12A     -1.029612
      13A     -0.939551    14A     -0.887775    15A     -0.807715
      16A     -0.778904    17A     -0.682471    18A     -0.654717
      19A     -0.635372    20A     -0.613077    21A     -0.594577
      22A     -0.578286    23A     -0.549430    24A     -0.545076
      25A     -0.525308    26A     -0.513144    27A     -0.509584
      28A     -0.496795    29A     -0.487849    30A     -0.476944
      31A     -0.417721    32A     -0.385682

  @DF-RHF Final Energy:  -364.24904678184799

   => Energetics <=

    Nuclear Repulsion Energy =            392.3636224168243984
    One-Electron Energy =               -1272.4983963434387988
    Two-Electron Energy =                 515.8857271447662924
    Total Energy =                       -364.2490467818480511
  Basis Set: (AUG-CC-PVTZ AUX)
    Blend: AUG-CC-PVTZ-RI
    Molecular point group: c1

    Geometry (in Angstrom), charge = 0, multiplicity = 1:

       Center              X                  Y                   Z               Mass
    ------------   -----------------  -----------------  -----------------  -----------------
         O            0.869369554683    -1.129154743056     0.676664111971    15.994914619570
         N           -0.421687045317     0.593551456944    -0.110528888029    14.003074004430
         C           -1.679286445317    -0.056935743056     0.237131111971    12.000000000000
         C           -2.086566445317    -1.063654743056    -0.833718888029    12.000000000000
         C           -2.738360445317     1.010769256944     0.466292111971    12.000000000000
         C            0.781613554683    -0.041179743056     0.097269111971    12.000000000000
         C            1.993188554683     0.716097256944    -0.427974888029    12.000000000000
         C            3.297699554683     0.016106256944    -0.077559888029    12.000000000000
         H           -1.501421945317    -0.600478843056     1.169089711971     1.007825032230
         H           -0.442488445317     1.396017256944    -0.716799888029     1.007825032230
         H           -3.016001445317    -1.571538743056    -0.556543888029     1.007825032230
         H           -2.242656445317    -0.558738743056    -1.793099888029     1.007825032230
         H           -1.302858445317    -1.814780743056    -0.953381888029     1.007825032230
         H           -2.428005445317     1.705806256944     1.250699111971     1.007825032230
         H           -3.685636445317     0.551360256944     0.762095111971     1.007825032230
         H           -2.918309445317     1.580028256944    -0.452751888029     1.007825032230
         H            1.889826554683     0.819915256944    -1.518382888029     1.007825032230
         H            1.976527554683     1.734932256944    -0.021004888029     1.007825032230
         H            3.313110554683    -0.994223743056    -0.490303888029     1.007825032230
         H            4.148979554683     0.574215256944    -0.475900888029     1.007825032230
         H            3.410792554683    -0.069299743056     1.005420111971     1.007825032230

  Basis Set: AUG-CC-PVTZ
    Blend: AUG-CC-PVTZ
  Basis Set: (AUG-CC-PVTZ AUX)
    Blend: AUG-CC-PVTZ-JKFIT
	 Reference Energy          =    -364.2490467818479942 [Eh]
	 Singles Energy            =      -0.0000000000000000 [Eh]
	 Same-Spin Energy          =      -0.3757398783526164 [Eh]
	 Opposite-Spin Energy      =      -1.2751534199359424 [Eh]
	 Correlation Energy        =      -1.6508932982885587 [Eh]
	 Total Energy              =    -365.8999400801365596 [Eh]

	 ================> DF-SCS-MP2 Energies <==================
	-----------------------------------------------------------
	 SCS Same-Spin Scale       =       0.3333333333333333 [-]
	 SCS Opposite-Spin Scale   =       1.2000000000000000 [-]
	 SCS Same-Spin Energy      =      -0.1252466261175388 [Eh]
	 SCS Opposite-Spin Energy  =      -1.5301841039231310 [Eh]
	 SCS Correlation Energy    =      -1.6554307300406697 [Eh]
	 SCS Total Energy          =    -365.9044775118886719 [Eh]
	-----------------------------------------------------------

  Dipole Moment: [D]
     X:    -1.2516      Y:     2.7093      Z:    -1.6208     Total:     3.3962

*** Psi4 exiting successfully. Buy a developer a beer!
