                               Psi4 1.4a3.dev225

  ==> Input File <==

--------------------------------------------------------------------------
#psi4
#
memory 32 gb

molecule  {
0 1
  O        0.8665680     1.1680080    -0.7351460
  N       -0.3660760    -0.5086790     0.1929010
  C       -1.6441200     0.0174450    -0.2761400
  C       -2.1249681     1.1073081     0.5956969
  C       -2.6427120    -1.1266550    -0.3840140
  C        0.8063460     0.1556180    -0.0295640
  C        2.0309430    -0.4326950     0.6540710
  C        3.2825740    -0.2523450    -0.1975960
  H       -1.4466230     0.4281070    -1.2709490
  H       -0.3785050    -1.2608410     0.8714320
  H       -3.0785860     1.5617170     0.2436050
  H       -2.3175770     0.7713190     1.6396860
  H       -1.3960540     1.9417130     0.6641920
  H       -2.2693050    -1.9092940    -1.0497770
  H       -3.5969080    -0.7634960    -0.7753550
  H       -2.8341330    -1.5678230     0.6011330
  H        2.1523320     0.0883960     1.6122110
  H        1.8656800    -1.4909910     0.8873090
  H        3.4076760     0.8004350    -0.4533700
  H        4.1701610    -0.5986810     0.3385000
  H        3.2011700    -0.8174180    -1.1296580
units angstrom
no_reorient  #important for SAPT in psi4, default
symmetry c1  #important for SAPT in psi4, default
}

set PROPERTIES_ORIGIN ["COM"]
properties('MP2/aug-cc-pvtz', properties = ['dipole'])
--------------------------------------------------------------------------

    Molecular point group: c1
  Charge       = 0
  Multiplicity = 1
  Basis Set: AUG-CC-PVTZ
    Blend: AUG-CC-PVTZ
  Basis Set: (AUG-CC-PVTZ AUX)
    Blend: AUG-CC-PVTZ-JKFIT

    Orbital Energies [Eh]
    ---------------------

    Doubly Occupied:

       1A    -20.510893     2A    -15.580353     3A    -11.344476
       4A    -11.263870     5A    -11.239850     6A    -11.224638
       7A    -11.215713     8A    -11.215032     9A     -1.366581
      10A     -1.230754    11A     -1.070005    12A     -1.032807
      13A     -0.940715    14A     -0.887624    15A     -0.808908
      16A     -0.780953    17A     -0.682340    18A     -0.660174
      19A     -0.627815    20A     -0.619972    21A     -0.593575
      22A     -0.578045    23A     -0.555554    24A     -0.543799
      25A     -0.523437    26A     -0.513986    27A     -0.509610
      28A     -0.496185    29A     -0.485861    30A     -0.474235
      31A     -0.414903    32A     -0.389104

  @DF-RHF Final Energy:  -364.24658587121888

   => Energetics <=

    Nuclear Repulsion Energy =            393.3614766031143404
    One-Electron Energy =               -1274.4525954088505841
    Two-Electron Energy =                 516.8445329345172468
    Total Energy =                       -364.2465858712189402
  Basis Set: (AUG-CC-PVTZ AUX)
    Blend: AUG-CC-PVTZ-RI
    Molecular point group: c1

    Geometry (in Angstrom), charge = 0, multiplicity = 1:

       Center              X                  Y                   Z               Mass
    ------------   -----------------  -----------------  -----------------  -----------------
         O            0.843189572560     1.147640158289    -0.713322016154    15.994914619570
         N           -0.389454427440    -0.529046841711     0.214724983846    14.003074004430
         C           -1.667498427440    -0.002922841711    -0.254316016154    12.000000000000
         C           -2.148346527440     1.086940258289     0.617520883846    12.000000000000
         C           -2.666090427440    -1.147022841711    -0.362190016154    12.000000000000
         C            0.782967572560     0.135250158289    -0.007740016154    12.000000000000
         C            2.007564572560    -0.453062841711     0.675894983846    12.000000000000
         C            3.259195572560    -0.272712841711    -0.175772016154    12.000000000000
         H           -1.470001427440     0.407739158289    -1.249125016154     1.007825032230
         H           -0.401883427440    -1.281208841711     0.893255983846     1.007825032230
         H           -3.101964427440     1.541349158289     0.265428983846     1.007825032230
         H           -2.340955427440     0.750951158289     1.661509983846     1.007825032230
         H           -1.419432427440     1.921345158289     0.686015983846     1.007825032230
         H           -2.292683427440    -1.929661841711    -1.027953016154     1.007825032230
         H           -3.620286427440    -0.783863841711    -0.753531016154     1.007825032230
         H           -2.857511427440    -1.588190841711     0.622956983846     1.007825032230
         H            2.128953572560     0.068028158289     1.634034983846     1.007825032230
         H            1.842301572560    -1.511358841711     0.909132983846     1.007825032230
         H            3.384297572560     0.780067158289    -0.431546016154     1.007825032230
         H            4.146782572560    -0.619048841711     0.360323983846     1.007825032230
         H            3.177791572560    -0.837785841711    -1.107834016154     1.007825032230

  Basis Set: AUG-CC-PVTZ
    Blend: AUG-CC-PVTZ
  Basis Set: (AUG-CC-PVTZ AUX)
    Blend: AUG-CC-PVTZ-JKFIT
	 Reference Energy          =    -364.2465858712188833 [Eh]
	 Singles Energy            =      -0.0000000000000000 [Eh]
	 Same-Spin Energy          =      -0.3762563226092092 [Eh]
	 Opposite-Spin Energy      =      -1.2756284282523915 [Eh]
	 Correlation Energy        =      -1.6518847508616008 [Eh]
	 Total Energy              =    -365.8984706220804810 [Eh]

	 ================> DF-SCS-MP2 Energies <==================
	-----------------------------------------------------------
	 SCS Same-Spin Scale       =       0.3333333333333333 [-]
	 SCS Opposite-Spin Scale   =       1.2000000000000000 [-]
	 SCS Same-Spin Energy      =      -0.1254187742030697 [Eh]
	 SCS Opposite-Spin Energy  =      -1.5307541139028698 [Eh]
	 SCS Correlation Energy    =      -1.6561728881059394 [Eh]
	 SCS Total Energy          =    -365.9027587593247972 [Eh]
	-----------------------------------------------------------

  Dipole Moment: [D]
     X:    -1.2806      Y:    -2.5812      Z:     1.9040     Total:     3.4536

*** Psi4 exiting successfully. Buy a developer a beer!
