                               Psi4 1.3.2 release

  ==> Input File <==

--------------------------------------------------------------------------
#psi4
#
memory 32 gb

molecule  {
0 1
  O        0.8686370    -1.1285810     0.6753960
  N       -0.4170490     0.5891890    -0.1013730
  C       -1.6800190    -0.0563620     0.2358630
  C       -2.0872990    -1.0630810    -0.8349870
  C       -2.7390930     1.0113430     0.4650240
  C        0.7950838    -0.2166887     0.1897729
  C        1.9924560     0.7166710    -0.4292430
  C        3.2969670     0.0166800    -0.0788280
  H       -1.4931140    -0.5968520     1.1678280
  H       -0.4432210     1.3965910    -0.7180680
  H       -3.0167340    -1.5709650    -0.5578120
  H       -2.2433890    -0.5581650    -1.7943680
  H       -1.3035910    -1.8142070    -0.9546500
  H       -2.4287380     1.7063800     1.2494310
  H       -3.6863690     0.5519340     0.7608270
  H       -2.9190420     1.5806020    -0.4540200
  H        1.8890940     0.8204890    -1.5196510
  H        1.9757950     1.7355060    -0.0222730
  H        3.3123780    -0.9936500    -0.4915720
  H        4.1482470     0.5747890    -0.4771690
  H        3.4100600    -0.0687260     1.0041520
units angstrom
no_reorient  #important for SAPT in psi4, default
symmetry c1  #important for SAPT in psi4, default
}

set PROPERTIES_ORIGIN ["COM"]
properties('MP2/aug-cc-pvtz', properties = ['dipole'])
--------------------------------------------------------------------------

    Molecular point group: c1
  Charge       = 0
  Multiplicity = 1
  Basis Set: AUG-CC-PVTZ
    Blend: AUG-CC-PVTZ
  Basis Set: (AUG-CC-PVTZ AUX)
    Blend: AUG-CC-PVTZ-JKFIT

    Orbital Energies [Eh]
    ---------------------

    Doubly Occupied:

       1A    -20.555134     2A    -15.547065     3A    -11.338460
       4A    -11.252068     5A    -11.230177     6A    -11.214354
       7A    -11.210636     8A    -11.207439     9A     -1.531277
      10A     -1.198150    11A     -1.043835    12A     -1.013353
      13A     -0.933020    14A     -0.862652    15A     -0.791784
      16A     -0.766277    17A     -0.719812    18A     -0.675725
      19A     -0.658938    20A     -0.619715    21A     -0.606369
      22A     -0.591041    23A     -0.561046    24A     -0.539730
      25A     -0.536175    26A     -0.530825    27A     -0.506478
      28A     -0.494768    29A     -0.489790    30A     -0.478836
      31A     -0.389062    32A     -0.371084

  @DF-RHF Final Energy:  -364.17410437981897

   => Energetics <=

    Nuclear Repulsion Energy =            393.8984353773200837
    One-Electron Energy =               -1275.2149296506659084
    Two-Electron Energy =                 517.1423898935267971
    Total Energy =                       -364.1741043798190276
  Basis Set: (AUG-CC-PVTZ AUX)
    Blend: AUG-CC-PVTZ-RI
    Molecular point group: c1

    Geometry (in Angstrom), charge = 0, multiplicity = 1:

       Center              X                  Y                   Z               Mass
    ------------   -----------------  -----------------  -----------------  -----------------
         O            0.867156258555    -1.110223007200     0.665619451226    15.994914619570
         N           -0.418529741445     0.607546992800    -0.111149548774    14.003074004430
         C           -1.681499741445    -0.038004007200     0.226086451226    12.000000000000
         C           -2.088779741445    -1.044723007200    -0.844763548774    12.000000000000
         C           -2.740573741445     1.029700992800     0.455247451226    12.000000000000
         C            0.793603058555    -0.198330707200     0.179996351226    12.000000000000
         C            1.990975258555     0.735028992800    -0.439019548774    12.000000000000
         C            3.295486258555     0.035037992800    -0.088604548774    12.000000000000
         H           -1.494594741445    -0.578494007200     1.158051451226     1.007825032230
         H           -0.444701741445     1.414948992800    -0.727844548774     1.007825032230
         H           -3.018214741445    -1.552607007200    -0.567588548774     1.007825032230
         H           -2.244869741445    -0.539807007200    -1.804144548774     1.007825032230
         H           -1.305071741445    -1.795849007200    -0.964426548774     1.007825032230
         H           -2.430218741445     1.724737992800     1.239654451226     1.007825032230
         H           -3.687849741445     0.570291992800     0.751050451226     1.007825032230
         H           -2.920522741445     1.598959992800    -0.463796548774     1.007825032230
         H            1.887613258555     0.838846992800    -1.529427548774     1.007825032230
         H            1.974314258555     1.753863992800    -0.032049548774     1.007825032230
         H            3.310897258555    -0.975292007200    -0.501348548774     1.007825032230
         H            4.146766258555     0.593146992800    -0.486945548774     1.007825032230
         H            3.408579258555    -0.050368007200     0.994375451226     1.007825032230

  Basis Set: AUG-CC-PVTZ
    Blend: AUG-CC-PVTZ
  Basis Set: (AUG-CC-PVTZ AUX)
    Blend: AUG-CC-PVTZ-JKFIT
	 Reference Energy          =    -364.1741043798189708 [Eh]
	 Singles Energy            =      -0.0000000000000000 [Eh]
	 Same-Spin Energy          =      -0.3723265291808729 [Eh]
	 Opposite-Spin Energy      =      -1.2686744950527076 [Eh]
	 Correlation Energy        =      -1.6410010242335804 [Eh]
	 Total Energy              =    -365.8151054040525310 [Eh]

	 ================> DF-SCS-MP2 Energies <==================
	-----------------------------------------------------------
	 SCS Same-Spin Scale       =       0.3333333333333333 [-]
	 SCS Opposite-Spin Scale   =       1.2000000000000000 [-]
	 SCS Same-Spin Energy      =      -0.1241088430602910 [Eh]
	 SCS Opposite-Spin Energy  =      -1.5224093940632490 [Eh]
	 SCS Correlation Energy    =      -1.6465182371235401 [Eh]
	 SCS Total Energy          =    -365.8206226169425008 [Eh]
	-----------------------------------------------------------

  Dipole Moment: [D]
     X:    -0.6108      Y:     1.5197      Z:    -1.0260     Total:     1.9327

*** Psi4 exiting successfully. Buy a developer a beer!
