                               Psi4 1.4a3.dev225

  ==> Input File <==

--------------------------------------------------------------------------
#psi4
#
memory 32 gb

molecule  {
0 1
  O        0.8665680     1.1680080    -0.7351460
  N       -0.3660760    -0.5086790     0.1929010
  C       -1.6441200     0.0174450    -0.2761400
  C       -2.1412550     1.1442230     0.6252270
  C       -2.6427120    -1.1266550    -0.3840140
  C        0.8063460     0.1556180    -0.0295640
  C        2.0309430    -0.4326950     0.6540710
  C        3.2825740    -0.2523450    -0.1975960
  H       -1.4466230     0.4281070    -1.2709490
  H       -0.3787504    -1.2756902     0.8848276
  H       -3.0785860     1.5617170     0.2436050
  H       -2.3175770     0.7713190     1.6396860
  H       -1.3960540     1.9417130     0.6641920
  H       -2.2693050    -1.9092940    -1.0497770
  H       -3.5969080    -0.7634960    -0.7753550
  H       -2.8341330    -1.5678230     0.6011330
  H        2.1523320     0.0883960     1.6122110
  H        1.8656800    -1.4909910     0.8873090
  H        3.4076760     0.8004350    -0.4533700
  H        4.1701610    -0.5986810     0.3385000
  H        3.2011700    -0.8174180    -1.1296580
units angstrom
no_reorient  #important for SAPT in psi4, default
symmetry c1  #important for SAPT in psi4, default
}

set PROPERTIES_ORIGIN ["COM"]
properties('MP2/aug-cc-pvtz', properties = ['dipole'])
--------------------------------------------------------------------------

    Molecular point group: c1
  Charge       = 0
  Multiplicity = 1
  Basis Set: AUG-CC-PVTZ
    Blend: AUG-CC-PVTZ
  Basis Set: (AUG-CC-PVTZ AUX)
    Blend: AUG-CC-PVTZ-JKFIT

    Orbital Energies [Eh]
    ---------------------

    Doubly Occupied:

       1A    -20.510861     2A    -15.582415     3A    -11.344371
       4A    -11.266040     5A    -11.239745     6A    -11.224548
       7A    -11.215625     8A    -11.212501     9A     -1.366279
      10A     -1.227193    11A     -1.066253    12A     -1.029989
      13A     -0.940167    14A     -0.887656    15A     -0.809342
      16A     -0.776751    17A     -0.681431    18A     -0.657862
      19A     -0.625446    20A     -0.616587    21A     -0.592940
      22A     -0.577706    23A     -0.555813    24A     -0.545515
      25A     -0.526617    26A     -0.513392    27A     -0.509292
      28A     -0.496915    29A     -0.487129    30A     -0.476343
      31A     -0.414965    32A     -0.386394

  @DF-RHF Final Energy:  -364.24843887707829

   => Energetics <=

    Nuclear Repulsion Energy =            392.4193645164016857
    One-Electron Energy =               -1272.6074333886799650
    Two-Electron Energy =                 515.9396299952001073
    Total Energy =                       -364.2484388770782289
  Basis Set: (AUG-CC-PVTZ AUX)
    Blend: AUG-CC-PVTZ-RI
    Molecular point group: c1

    Geometry (in Angstrom), charge = 0, multiplicity = 1:

       Center              X                  Y                   Z               Mass
    ------------   -----------------  -----------------  -----------------  -----------------
         O            0.844889751590     1.143921526943    -0.716518041653    15.994914619570
         N           -0.387754248410    -0.532765473057     0.211528958347    14.003074004430
         C           -1.665798248410    -0.006641473057    -0.257512041653    12.000000000000
         C           -2.162933248410     1.120136526943     0.643854958347    12.000000000000
         C           -2.664390248410    -1.150741473057    -0.365386041653    12.000000000000
         C            0.784667751590     0.131531526943    -0.010936041653    12.000000000000
         C            2.009264751590    -0.456781473057     0.672698958347    12.000000000000
         C            3.260895751590    -0.276431473057    -0.178968041653    12.000000000000
         H           -1.468301248410     0.404020526943    -1.252321041653     1.007825032230
         H           -0.400428648410    -1.299776673057     0.903455558347     1.007825032230
         H           -3.100264248410     1.537630526943     0.262232958347     1.007825032230
         H           -2.339255248410     0.747232526943     1.658313958347     1.007825032230
         H           -1.417732248410     1.917626526943     0.682819958347     1.007825032230
         H           -2.290983248410    -1.933380473057    -1.031149041653     1.007825032230
         H           -3.618586248410    -0.787582473057    -0.756727041653     1.007825032230
         H           -2.855811248410    -1.591909473057     0.619760958347     1.007825032230
         H            2.130653751590     0.064309526943     1.630838958347     1.007825032230
         H            1.844001751590    -1.515077473057     0.905936958347     1.007825032230
         H            3.385997751590     0.776348526943    -0.434742041653     1.007825032230
         H            4.148482751590    -0.622767473057     0.357127958347     1.007825032230
         H            3.179491751590    -0.841504473057    -1.111030041653     1.007825032230

  Basis Set: AUG-CC-PVTZ
    Blend: AUG-CC-PVTZ
  Basis Set: (AUG-CC-PVTZ AUX)
    Blend: AUG-CC-PVTZ-JKFIT
	 Reference Energy          =    -364.2484388770782857 [Eh]
	 Singles Energy            =      -0.0000000000000000 [Eh]
	 Same-Spin Energy          =      -0.3760095110146071 [Eh]
	 Opposite-Spin Energy      =      -1.2755951889254897 [Eh]
	 Correlation Energy        =      -1.6516046999400968 [Eh]
	 Total Energy              =    -365.9000435770183799 [Eh]

	 ================> DF-SCS-MP2 Energies <==================
	-----------------------------------------------------------
	 SCS Same-Spin Scale       =       0.3333333333333333 [-]
	 SCS Opposite-Spin Scale   =       1.2000000000000000 [-]
	 SCS Same-Spin Energy      =      -0.1253365036715357 [Eh]
	 SCS Opposite-Spin Energy  =      -1.5307142267105875 [Eh]
	 SCS Correlation Energy    =      -1.6560507303821232 [Eh]
	 SCS Total Energy          =    -365.9044896074603912 [Eh]
	-----------------------------------------------------------

  Dipole Moment: [D]
     X:    -1.2809      Y:    -2.6108      Z:     1.9074     Total:     3.4778

*** Psi4 exiting successfully. Buy a developer a beer!
