                               Psi4 1.3.2 release

  ==> Input File <==

--------------------------------------------------------------------------
#psi4
#
memory 32 gb

molecule  {
0 1
  O        0.8686370    -1.1285810     0.6753960
  N       -0.4170490     0.5891890    -0.1013730
  C       -1.6800190    -0.0563620     0.2358630
  C       -2.1407075    -1.1950968    -0.9754126
  C       -2.7390930     1.0113430     0.4650240
  C        0.7808810    -0.0406060     0.0960010
  C        1.9924560     0.7166710    -0.4292430
  C        3.2969670     0.0166800    -0.0788280
  H       -1.4931140    -0.5968520     1.1678280
  H       -0.4432210     1.3965910    -0.7180680
  H       -3.0167340    -1.5709650    -0.5578120
  H       -2.2433890    -0.5581650    -1.7943680
  H       -1.3035910    -1.8142070    -0.9546500
  H       -2.4287380     1.7063800     1.2494310
  H       -3.6863690     0.5519340     0.7608270
  H       -2.9190420     1.5806020    -0.4540200
  H        1.8890940     0.8204890    -1.5196510
  H        1.9757950     1.7355060    -0.0222730
  H        3.3123780    -0.9936500    -0.4915720
  H        4.1482470     0.5747890    -0.4771690
  H        3.4100600    -0.0687260     1.0041520
units angstrom
no_reorient  #important for SAPT in psi4, default
symmetry c1  #important for SAPT in psi4, default
}

set PROPERTIES_ORIGIN ["COM"]
properties('MP2/aug-cc-pvtz', properties = ['dipole'])
--------------------------------------------------------------------------

    Molecular point group: c1
  Charge       = 0
  Multiplicity = 1
  Basis Set: AUG-CC-PVTZ
    Blend: AUG-CC-PVTZ
  Basis Set: (AUG-CC-PVTZ AUX)
    Blend: AUG-CC-PVTZ-JKFIT

    Orbital Energies [Eh]
    ---------------------

    Doubly Occupied:

       1A    -20.514049     2A    -15.580232     3A    -11.345088
       4A    -11.272023     5A    -11.240621     6A    -11.224232
       7A    -11.213746     8A    -11.209529     9A     -1.367371
      10A     -1.225702    11A     -1.059256    12A     -1.021644
      13A     -0.940757    14A     -0.888962    15A     -0.809941
      16A     -0.777931    17A     -0.681479    18A     -0.649990
      19A     -0.634018    20A     -0.606923    21A     -0.594869
      22A     -0.580838    23A     -0.566511    24A     -0.550851
      25A     -0.536691    26A     -0.513510    27A     -0.511145
      28A     -0.498098    29A     -0.491723    30A     -0.456901
      31A     -0.417563    32A     -0.367852

  @DF-RHF Final Energy:  -364.22261126530492

   => Energetics <=

    Nuclear Repulsion Energy =            389.4050067771062231
    One-Electron Energy =               -1266.5551465375062890
    Two-Electron Energy =                 512.9275284950952027
    Total Energy =                       -364.2226112653048631
  Basis Set: (AUG-CC-PVTZ AUX)
    Blend: AUG-CC-PVTZ-RI
    Molecular point group: c1

    Geometry (in Angstrom), charge = 0, multiplicity = 1:

       Center              X                  Y                   Z               Mass
    ------------   -----------------  -----------------  -----------------  -----------------
         O            0.874205238709    -1.114817308797     0.690036279915    15.994914619570
         N           -0.411480761291     0.602952691203    -0.086732720085    14.003074004430
         C           -1.674450761291    -0.042598308797     0.250503279915    12.000000000000
         C           -2.135139261291    -1.181333108797    -0.960772320085    12.000000000000
         C           -2.733524761291     1.025106691203     0.479664279915    12.000000000000
         C            0.786449238709    -0.026842308797     0.110641279915    12.000000000000
         C            1.998024238709     0.730434691203    -0.414602720085    12.000000000000
         C            3.302535238709     0.030443691203    -0.064187720085    12.000000000000
         H           -1.487545761291    -0.583088308797     1.182468279915     1.007825032230
         H           -0.437652761291     1.410354691203    -0.703427720085     1.007825032230
         H           -3.011165761291    -1.557201308797    -0.543171720085     1.007825032230
         H           -2.237820761291    -0.544401308797    -1.779727720085     1.007825032230
         H           -1.298022761291    -1.800443308797    -0.940009720085     1.007825032230
         H           -2.423169761291     1.720143691203     1.264071279915     1.007825032230
         H           -3.680800761291     0.565697691203     0.775467279915     1.007825032230
         H           -2.913473761291     1.594365691203    -0.439379720085     1.007825032230
         H            1.894662238709     0.834252691203    -1.505010720085     1.007825032230
         H            1.981363238709     1.749269691203    -0.007632720085     1.007825032230
         H            3.317946238709    -0.979886308797    -0.476931720085     1.007825032230
         H            4.153815238709     0.588552691203    -0.462528720085     1.007825032230
         H            3.415628238709    -0.054962308797     1.018792279915     1.007825032230

  Basis Set: AUG-CC-PVTZ
    Blend: AUG-CC-PVTZ
  Basis Set: (AUG-CC-PVTZ AUX)
    Blend: AUG-CC-PVTZ-JKFIT
	 Reference Energy          =    -364.2226112653049199 [Eh]
	 Singles Energy            =      -0.0000000000000000 [Eh]
	 Same-Spin Energy          =      -0.3759395290609168 [Eh]
	 Opposite-Spin Energy      =      -1.2766865657805506 [Eh]
	 Correlation Energy        =      -1.6526260948414673 [Eh]
	 Total Energy              =    -365.8752373601464001 [Eh]

	 ================> DF-SCS-MP2 Energies <==================
	-----------------------------------------------------------
	 SCS Same-Spin Scale       =       0.3333333333333333 [-]
	 SCS Opposite-Spin Scale   =       1.2000000000000000 [-]
	 SCS Same-Spin Energy      =      -0.1253131763536389 [Eh]
	 SCS Opposite-Spin Energy  =      -1.5320238789366607 [Eh]
	 SCS Correlation Energy    =      -1.6573370552902995 [Eh]
	 SCS Total Energy          =    -365.8799483205952470 [Eh]
	-----------------------------------------------------------

  Dipole Moment: [D]
     X:    -1.2274      Y:     2.8638      Z:    -1.5459     Total:     3.4782

*** Psi4 exiting successfully. Buy a developer a beer!
