                               Psi4 1.3.2 release

  ==> Input File <==

--------------------------------------------------------------------------
#psi4
#
memory 32 gb

molecule  {
0 1
  O        0.8471876    -1.1289085     0.6776284
  N       -0.4170490     0.5891890    -0.1013730
  C       -1.6800190    -0.0563620     0.2358630
  C       -2.0872990    -1.0630810    -0.8349870
  C       -2.7390930     1.0113430     0.4650240
  C        0.7808810    -0.0406060     0.0960010
  C        1.9763429     0.7358634    -0.4380680
  C        3.2969670     0.0166800    -0.0788280
  H       -1.4931140    -0.5968520     1.1678280
  H       -0.4432210     1.3965910    -0.7180680
  H       -3.0167340    -1.5709650    -0.5578120
  H       -2.2433890    -0.5581650    -1.7943680
  H       -1.3035910    -1.8142070    -0.9546500
  H       -2.4287380     1.7063800     1.2494310
  H       -3.6863690     0.5519340     0.7608270
  H       -2.9190420     1.5806020    -0.4540200
  H        1.8890940     0.8204890    -1.5196510
  H        1.9757950     1.7355060    -0.0222730
  H        3.3123780    -0.9936500    -0.4915720
  H        4.1482470     0.5747890    -0.4771690
  H        3.4100600    -0.0687260     1.0041520
units angstrom
no_reorient  #important for SAPT in psi4, default
symmetry c1  #important for SAPT in psi4, default
}

set PROPERTIES_ORIGIN ["COM"]
properties('MP2/aug-cc-pvtz', properties = ['dipole'])
--------------------------------------------------------------------------

    Molecular point group: c1
  Charge       = 0
  Multiplicity = 1
  Basis Set: AUG-CC-PVTZ
    Blend: AUG-CC-PVTZ
  Basis Set: (AUG-CC-PVTZ AUX)
    Blend: AUG-CC-PVTZ-JKFIT

    Orbital Energies [Eh]
    ---------------------

    Doubly Occupied:

       1A    -20.513844     2A    -15.576956     3A    -11.345074
       4A    -11.263928     5A    -11.240125     6A    -11.222868
       7A    -11.215284     8A    -11.211948     9A     -1.367533
      10A     -1.227421    11A     -1.065662    12A     -1.027392
      13A     -0.939263    14A     -0.888248    15A     -0.808366
      16A     -0.778146    17A     -0.682810    18A     -0.653293
      19A     -0.637509    20A     -0.613377    21A     -0.593314
      22A     -0.577812    23A     -0.547491    24A     -0.544777
      25A     -0.525352    26A     -0.514300    27A     -0.504009
      28A     -0.499225    29A     -0.488816    30A     -0.477830
      31A     -0.418154    32A     -0.384939

  @DF-RHF Final Energy:  -364.24843646570685

   => Energetics <=

    Nuclear Repulsion Energy =            392.4724903260450333
    One-Electron Energy =               -1272.7317186595698786
    Two-Electron Energy =                 516.0107918678179431
    Total Energy =                       -364.2484364657068454
  Basis Set: (AUG-CC-PVTZ AUX)
    Blend: AUG-CC-PVTZ-RI
    Molecular point group: c1

    Geometry (in Angstrom), charge = 0, multiplicity = 1:

       Center              X                  Y                   Z               Mass
    ------------   -----------------  -----------------  -----------------  -----------------
         O            0.851848247589    -1.130863875352     0.678238112934    15.994914619570
         N           -0.412388352411     0.587233624648    -0.100763287066    14.003074004430
         C           -1.675358352411    -0.058317375352     0.236472712934    12.000000000000
         C           -2.082638352411    -1.065036375352    -0.834377287066    12.000000000000
         C           -2.734432352411     1.009387624648     0.465633712934    12.000000000000
         C            0.785541647589    -0.042561375352     0.096610712934    12.000000000000
         C            1.981003547589     0.733908024648    -0.437458287066    12.000000000000
         C            3.301627647589     0.014724624648    -0.078218287066    12.000000000000
         H           -1.488453352411    -0.598807375352     1.168437712934     1.007825032230
         H           -0.438560352411     1.394635624648    -0.717458287066     1.007825032230
         H           -3.012073352411    -1.572920375352    -0.557202287066     1.007825032230
         H           -2.238728352411    -0.560120375352    -1.793758287066     1.007825032230
         H           -1.298930352411    -1.816162375352    -0.954040287066     1.007825032230
         H           -2.424077352411     1.704424624648     1.250040712934     1.007825032230
         H           -3.681708352411     0.549978624648     0.761436712934     1.007825032230
         H           -2.914381352411     1.578646624648    -0.453410287066     1.007825032230
         H            1.893754647589     0.818533624648    -1.519041287066     1.007825032230
         H            1.980455647589     1.733550624648    -0.021663287066     1.007825032230
         H            3.317038647589    -0.995605375352    -0.490962287066     1.007825032230
         H            4.152907647589     0.572833624648    -0.476559287066     1.007825032230
         H            3.414720647589    -0.070681375352     1.004761712934     1.007825032230

  Basis Set: AUG-CC-PVTZ
    Blend: AUG-CC-PVTZ
  Basis Set: (AUG-CC-PVTZ AUX)
    Blend: AUG-CC-PVTZ-JKFIT
	 Reference Energy          =    -364.2484364657068454 [Eh]
	 Singles Energy            =      -0.0000000000000000 [Eh]
	 Same-Spin Energy          =      -0.3757378278473175 [Eh]
	 Opposite-Spin Energy      =      -1.2752300335781934 [Eh]
	 Correlation Energy        =      -1.6509678614255110 [Eh]
	 Total Energy              =    -365.8994043271323449 [Eh]

	 ================> DF-SCS-MP2 Energies <==================
	-----------------------------------------------------------
	 SCS Same-Spin Scale       =       0.3333333333333333 [-]
	 SCS Opposite-Spin Scale   =       1.2000000000000000 [-]
	 SCS Same-Spin Energy      =      -0.1252459426157725 [Eh]
	 SCS Opposite-Spin Energy  =      -1.5302760402938320 [Eh]
	 SCS Correlation Energy    =      -1.6555219829096046 [Eh]
	 SCS Total Energy          =    -365.9039584486164358 [Eh]
	-----------------------------------------------------------

  Dipole Moment: [D]
     X:    -1.2286      Y:     2.7347      Z:    -1.6491     Total:     3.4216

*** Psi4 exiting successfully. Buy a developer a beer!
