                               Psi4 1.3.2 release

  ==> Input File <==

--------------------------------------------------------------------------
#psi4
#
memory 32 gb

molecule  {
0 1
  O        0.8686370    -1.1285810     0.6753960
  N       -0.4164715     0.5823405    -0.1120798
  C       -1.6800190    -0.0563620     0.2358630
  C       -2.0762960    -1.0601258    -0.8418674
  C       -2.7390930     1.0113430     0.4650240
  C        0.7808810    -0.0406060     0.0960010
  C        1.9924560     0.7166710    -0.4292430
  C        3.2969670     0.0166800    -0.0788280
  H       -1.4931140    -0.5968520     1.1678280
  H       -0.4432210     1.3965910    -0.7180680
  H       -3.0167340    -1.5709650    -0.5578120
  H       -2.2433890    -0.5581650    -1.7943680
  H       -1.3035910    -1.8142070    -0.9546500
  H       -2.4287380     1.7063800     1.2494310
  H       -3.6863690     0.5519340     0.7608270
  H       -2.9190420     1.5806020    -0.4540200
  H        1.8890940     0.8204890    -1.5196510
  H        1.9757950     1.7355060    -0.0222730
  H        3.3123780    -0.9936500    -0.4915720
  H        4.1482470     0.5747890    -0.4771690
  H        3.4100600    -0.0687260     1.0041520
units angstrom
no_reorient  #important for SAPT in psi4, default
symmetry c1  #important for SAPT in psi4, default
}

set PROPERTIES_ORIGIN ["COM"]
properties('MP2/aug-cc-pvtz', properties = ['dipole'])
--------------------------------------------------------------------------

    Molecular point group: c1
  Charge       = 0
  Multiplicity = 1
  Basis Set: AUG-CC-PVTZ
    Blend: AUG-CC-PVTZ
  Basis Set: (AUG-CC-PVTZ AUX)
    Blend: AUG-CC-PVTZ-JKFIT

    Orbital Energies [Eh]
    ---------------------

    Doubly Occupied:

       1A    -20.512810     2A    -15.577999     3A    -11.344428
       4A    -11.265172     5A    -11.240074     6A    -11.224053
       7A    -11.213331     8A    -11.212322     9A     -1.366919
      10A     -1.229001    11A     -1.066202    12A     -1.029725
      13A     -0.940244    14A     -0.887693    15A     -0.808243
      16A     -0.778964    17A     -0.682298    18A     -0.653843
      19A     -0.635398    20A     -0.614151    21A     -0.592857
      22A     -0.578925    23A     -0.549376    24A     -0.546163
      25A     -0.524163    26A     -0.512488    27A     -0.508281
      28A     -0.497558    29A     -0.489120    30A     -0.477753
      31A     -0.416748    32A     -0.385142

  @DF-RHF Final Energy:  -364.24907895459722

   => Energetics <=

    Nuclear Repulsion Energy =            392.6251041001339104
    One-Electron Energy =               -1273.0254814343036287
    Two-Electron Energy =                 516.1512983795723812
    Total Energy =                       -364.2490789545972802
  Basis Set: (AUG-CC-PVTZ AUX)
    Blend: AUG-CC-PVTZ-RI
    Molecular point group: c1

    Geometry (in Angstrom), charge = 0, multiplicity = 1:

       Center              X                  Y                   Z               Mass
    ------------   -----------------  -----------------  -----------------  -----------------
         O            0.867419602604    -1.128055846880     0.677415794284    15.994914619570
         N           -0.417688897396     0.582865653120    -0.110060005716    14.003074004430
         C           -1.681236397396    -0.055836846880     0.237882794284    12.000000000000
         C           -2.077513397396    -1.059600646880    -0.839847605716    12.000000000000
         C           -2.740310397396     1.011868153120     0.467043794284    12.000000000000
         C            0.779663602604    -0.040080846880     0.098020794284    12.000000000000
         C            1.991238602604     0.717196153120    -0.427223205716    12.000000000000
         C            3.295749602604     0.017205153120    -0.076808205716    12.000000000000
         H           -1.494331397396    -0.596326846880     1.169847794284     1.007825032230
         H           -0.444438397396     1.397116153120    -0.716048205716     1.007825032230
         H           -3.017951397396    -1.570439846880    -0.555792205716     1.007825032230
         H           -2.244606397396    -0.557639846880    -1.792348205716     1.007825032230
         H           -1.304808397396    -1.813681846880    -0.952630205716     1.007825032230
         H           -2.429955397396     1.706905153120     1.251450794284     1.007825032230
         H           -3.687586397396     0.552459153120     0.762846794284     1.007825032230
         H           -2.920259397396     1.581127153120    -0.452000205716     1.007825032230
         H            1.887876602604     0.821014153120    -1.517631205716     1.007825032230
         H            1.974577602604     1.736031153120    -0.020253205716     1.007825032230
         H            3.311160602604    -0.993124846880    -0.489552205716     1.007825032230
         H            4.147029602604     0.575314153120    -0.475149205716     1.007825032230
         H            3.408842602604    -0.068200846880     1.006171794284     1.007825032230

  Basis Set: AUG-CC-PVTZ
    Blend: AUG-CC-PVTZ
  Basis Set: (AUG-CC-PVTZ AUX)
    Blend: AUG-CC-PVTZ-JKFIT
	 Reference Energy          =    -364.2490789545972234 [Eh]
	 Singles Energy            =      -0.0000000000000000 [Eh]
	 Same-Spin Energy          =      -0.3757856349281329 [Eh]
	 Opposite-Spin Energy      =      -1.2751386009003258 [Eh]
	 Correlation Energy        =      -1.6509242358284588 [Eh]
	 Total Energy              =    -365.9000031904257071 [Eh]

	 ================> DF-SCS-MP2 Energies <==================
	-----------------------------------------------------------
	 SCS Same-Spin Scale       =       0.3333333333333333 [-]
	 SCS Opposite-Spin Scale   =       1.2000000000000000 [-]
	 SCS Same-Spin Energy      =      -0.1252618783093776 [Eh]
	 SCS Opposite-Spin Energy  =      -1.5301663210803909 [Eh]
	 SCS Correlation Energy    =      -1.6554281993897684 [Eh]
	 SCS Total Energy          =    -365.9045071539869696 [Eh]
	-----------------------------------------------------------

  Dipole Moment: [D]
     X:    -1.3138      Y:     2.7596      Z:    -1.6278     Total:     3.4628

*** Psi4 exiting successfully. Buy a developer a beer!
