                               Psi4 1.3.2 release

  ==> Input File <==

--------------------------------------------------------------------------
#psi4
#
memory 32 gb

molecule  {
0 1
  O        0.8686370    -1.1285810     0.6753960
  N       -0.4170490     0.5891890    -0.1013730
  C       -1.6586089    -0.0499815     0.2213908
  C       -2.0872990    -1.0630810    -0.8349870
  C       -2.7390930     1.0113430     0.4650240
  C        0.7808810    -0.0406060     0.0960010
  C        1.9924560     0.7166710    -0.4292430
  C        3.2969670     0.0166800    -0.0788280
  H       -1.4931140    -0.5968520     1.1678280
  H       -0.4432210     1.3965910    -0.7180680
  H       -3.0158880    -1.5810119    -0.5740433
  H       -2.2433890    -0.5581650    -1.7943680
  H       -1.3035910    -1.8142070    -0.9546500
  H       -2.4287380     1.7063800     1.2494310
  H       -3.6863690     0.5519340     0.7608270
  H       -2.9190420     1.5806020    -0.4540200
  H        1.8890940     0.8204890    -1.5196510
  H        1.9757950     1.7355060    -0.0222730
  H        3.3123780    -0.9936500    -0.4915720
  H        4.1482470     0.5747890    -0.4771690
  H        3.4100600    -0.0687260     1.0041520
units angstrom
no_reorient  #important for SAPT in psi4, default
symmetry c1  #important for SAPT in psi4, default
}

set PROPERTIES_ORIGIN ["COM"]
properties('MP2/aug-cc-pvtz', properties = ['dipole'])
--------------------------------------------------------------------------

    Molecular point group: c1
  Charge       = 0
  Multiplicity = 1
  Basis Set: AUG-CC-PVTZ
    Blend: AUG-CC-PVTZ
  Basis Set: (AUG-CC-PVTZ AUX)
    Blend: AUG-CC-PVTZ-JKFIT

    Orbital Energies [Eh]
    ---------------------

    Doubly Occupied:

       1A    -20.514840     2A    -15.579870     3A    -11.346166
       4A    -11.264395     5A    -11.241161     6A    -11.223083
       7A    -11.214112     8A    -11.211679     9A     -1.368952
      10A     -1.234522    11A     -1.065616    12A     -1.028721
      13A     -0.938483    14A     -0.889993    15A     -0.809015
      16A     -0.780635    17A     -0.683401    18A     -0.654657
      19A     -0.636837    20A     -0.612990    21A     -0.594519
      22A     -0.578772    23A     -0.550908    24A     -0.543779
      25A     -0.525761    26A     -0.513699    27A     -0.512601
      28A     -0.495946    29A     -0.484810    30A     -0.473553
      31A     -0.418895    32A     -0.386118

  @DF-RHF Final Energy:  -364.24831194449075

   => Energetics <=

    Nuclear Repulsion Energy =            392.7793958852864762
    One-Electron Energy =               -1273.2984400900347737
    Two-Electron Energy =                 516.2707322602575459
    Total Energy =                       -364.2483119444907516
  Basis Set: (AUG-CC-PVTZ AUX)
    Blend: AUG-CC-PVTZ-RI
    Molecular point group: c1

    Geometry (in Angstrom), charge = 0, multiplicity = 1:

       Center              X                  Y                   Z               Mass
    ------------   -----------------  -----------------  -----------------  -----------------
         O            0.866397436340    -1.129158179201     0.677046825493    15.994914619570
         N           -0.419288563660     0.588611820799    -0.099722174507    14.003074004430
         C           -1.660848463660    -0.050558679201     0.223041625493    12.000000000000
         C           -2.089538563660    -1.063658179201    -0.833336174507    12.000000000000
         C           -2.741332563660     1.010765820799     0.466674825493    12.000000000000
         C            0.778641436340    -0.041183179201     0.097651825493    12.000000000000
         C            1.990216436340     0.716093820799    -0.427592174507    12.000000000000
         C            3.294727436340     0.016102820799    -0.077177174507    12.000000000000
         H           -1.495353563660    -0.597429179201     1.169478825493     1.007825032230
         H           -0.445460563660     1.396013820799    -0.716417174507     1.007825032230
         H           -3.018127563660    -1.581589079201    -0.572392474507     1.007825032230
         H           -2.245628563660    -0.558742179201    -1.792717174507     1.007825032230
         H           -1.305830563660    -1.814784179201    -0.952999174507     1.007825032230
         H           -2.430977563660     1.705802820799     1.251081825493     1.007825032230
         H           -3.688608563660     0.551356820799     0.762477825493     1.007825032230
         H           -2.921281563660     1.580024820799    -0.452369174507     1.007825032230
         H            1.886854436340     0.819911820799    -1.518000174507     1.007825032230
         H            1.973555436340     1.734928820799    -0.020622174507     1.007825032230
         H            3.310138436340    -0.994227179201    -0.489921174507     1.007825032230
         H            4.146007436340     0.574211820799    -0.475518174507     1.007825032230
         H            3.407820436340    -0.069303179201     1.005802825493     1.007825032230

  Basis Set: AUG-CC-PVTZ
    Blend: AUG-CC-PVTZ
  Basis Set: (AUG-CC-PVTZ AUX)
    Blend: AUG-CC-PVTZ-JKFIT
	 Reference Energy          =    -364.2483119444907516 [Eh]
	 Singles Energy            =      -0.0000000000000000 [Eh]
	 Same-Spin Energy          =      -0.3758929276973194 [Eh]
	 Opposite-Spin Energy      =      -1.2752239428564018 [Eh]
	 Correlation Energy        =      -1.6511168705537211 [Eh]
	 Total Energy              =    -365.8994288150444731 [Eh]

	 ================> DF-SCS-MP2 Energies <==================
	-----------------------------------------------------------
	 SCS Same-Spin Scale       =       0.3333333333333333 [-]
	 SCS Opposite-Spin Scale   =       1.2000000000000000 [-]
	 SCS Same-Spin Energy      =      -0.1252976425657731 [Eh]
	 SCS Opposite-Spin Energy  =      -1.5302687314276822 [Eh]
	 SCS Correlation Energy    =      -1.6555663739934552 [Eh]
	 SCS Total Energy          =    -365.9038783184842032 [Eh]
	-----------------------------------------------------------

  Dipole Moment: [D]
     X:    -1.2027      Y:     2.7253      Z:    -1.6517     Total:     3.4061

*** Psi4 exiting successfully. Buy a developer a beer!
