                               Psi4 1.3.2 release

  ==> Input File <==

--------------------------------------------------------------------------
#psi4
#
memory 32 gb

molecule  {
0 1
  O        0.8686370    -1.1285810     0.6753960
  N       -0.4170490     0.5891890    -0.1013730
  C       -1.7232048    -0.0700409     0.2638245
  C       -2.0872990    -1.0630810    -0.8349870
  C       -2.7390930     1.0113430     0.4650240
  C        0.7808810    -0.0406060     0.0960010
  C        1.9924560     0.7166710    -0.4292430
  C        3.2969670     0.0166800    -0.0788280
  H       -1.4931140    -0.5968520     1.1678280
  H       -0.4432210     1.3965910    -0.7180680
  H       -3.0175765    -1.5504102    -0.5256075
  H       -2.2433890    -0.5581650    -1.7943680
  H       -1.3035910    -1.8142070    -0.9546500
  H       -2.4287380     1.7063800     1.2494310
  H       -3.6863690     0.5519340     0.7608270
  H       -2.9190420     1.5806020    -0.4540200
  H        1.8890940     0.8204890    -1.5196510
  H        1.9757950     1.7355060    -0.0222730
  H        3.3123780    -0.9936500    -0.4915720
  H        4.1482470     0.5747890    -0.4771690
  H        3.4100600    -0.0687260     1.0041520
units angstrom
no_reorient  #important for SAPT in psi4, default
symmetry c1  #important for SAPT in psi4, default
}

set PROPERTIES_ORIGIN ["COM"]
properties('MP2/aug-cc-pvtz', properties = ['dipole'])
--------------------------------------------------------------------------

    Molecular point group: c1
  Charge       = 0
  Multiplicity = 1
  Basis Set: AUG-CC-PVTZ
    Blend: AUG-CC-PVTZ
  Basis Set: (AUG-CC-PVTZ AUX)
    Blend: AUG-CC-PVTZ-JKFIT

    Orbital Energies [Eh]
    ---------------------

    Doubly Occupied:

       1A    -20.510696     2A    -15.574724     3A    -11.342162
       4A    -11.266856     5A    -11.238436     6A    -11.224532
       7A    -11.214531     8A    -11.212186     9A     -1.363674
      10A     -1.217689    11A     -1.068086    12A     -1.031444
      13A     -0.942971    14A     -0.883881    15A     -0.807415
      16A     -0.773314    17A     -0.680292    18A     -0.651157
      19A     -0.632990    20A     -0.616786    21A     -0.591196
      22A     -0.577419    23A     -0.549965    24A     -0.546609
      25A     -0.525560    26A     -0.511138    27A     -0.501258
      28A     -0.499695    29A     -0.496375    30A     -0.479535
      31A     -0.413817    32A     -0.384182

  @DF-RHF Final Energy:  -364.24624722610110

   => Energetics <=

    Nuclear Repulsion Energy =            391.9450250271646610
    One-Electron Energy =               -1271.7214016073355651
    Two-Electron Energy =                 515.5301293540697998
    Total Energy =                       -364.2462472261011044
  Basis Set: (AUG-CC-PVTZ AUX)
    Blend: AUG-CC-PVTZ-RI
    Molecular point group: c1

    Geometry (in Angstrom), charge = 0, multiplicity = 1:

       Center              X                  Y                   Z               Mass
    ------------   -----------------  -----------------  -----------------  -----------------
         O            0.873146823330    -1.127334789435     0.672198688238    15.994914619570
         N           -0.412539176670     0.590435210565    -0.104570311762    14.003074004430
         C           -1.718694976670    -0.068794689435     0.260627188238    12.000000000000
         C           -2.082789176670    -1.061834789435    -0.838184311762    12.000000000000
         C           -2.734583176670     1.012589210565     0.461826688238    12.000000000000
         C            0.785390823330    -0.039359789435     0.092803688238    12.000000000000
         C            1.996965823330     0.717917210565    -0.432440311762    12.000000000000
         C            3.301476823330     0.017926210565    -0.082025311762    12.000000000000
         H           -1.488604176670    -0.595605789435     1.164630688238     1.007825032230
         H           -0.438711176670     1.397837210565    -0.721265311762     1.007825032230
         H           -3.013066676670    -1.549163989435    -0.528804811762     1.007825032230
         H           -2.238879176670    -0.556918789435    -1.797565311762     1.007825032230
         H           -1.299081176670    -1.812960789435    -0.957847311762     1.007825032230
         H           -2.424228176670     1.707626210565     1.246233688238     1.007825032230
         H           -3.681859176670     0.553180210565     0.757629688238     1.007825032230
         H           -2.914532176670     1.581848210565    -0.457217311762     1.007825032230
         H            1.893603823330     0.821735210565    -1.522848311762     1.007825032230
         H            1.980304823330     1.736752210565    -0.025470311762     1.007825032230
         H            3.316887823330    -0.992403789435    -0.494769311762     1.007825032230
         H            4.152756823330     0.576035210565    -0.480366311762     1.007825032230
         H            3.414569823330    -0.067479789435     1.000954688238     1.007825032230

  Basis Set: AUG-CC-PVTZ
    Blend: AUG-CC-PVTZ
  Basis Set: (AUG-CC-PVTZ AUX)
    Blend: AUG-CC-PVTZ-JKFIT
	 Reference Energy          =    -364.2462472261011044 [Eh]
	 Singles Energy            =      -0.0000000000000000 [Eh]
	 Same-Spin Energy          =      -0.3757529486637244 [Eh]
	 Opposite-Spin Energy      =      -1.2753792548807543 [Eh]
	 Correlation Energy        =      -1.6511322035444786 [Eh]
	 Total Energy              =    -365.8973794296455821 [Eh]

	 ================> DF-SCS-MP2 Energies <==================
	-----------------------------------------------------------
	 SCS Same-Spin Scale       =       0.3333333333333333 [-]
	 SCS Opposite-Spin Scale   =       1.2000000000000000 [-]
	 SCS Same-Spin Energy      =      -0.1252509828879081 [Eh]
	 SCS Opposite-Spin Energy  =      -1.5304551058569051 [Eh]
	 SCS Correlation Energy    =      -1.6557060887448132 [Eh]
	 SCS Total Energy          =    -365.9019533148459118 [Eh]
	-----------------------------------------------------------

  Dipole Moment: [D]
     X:    -1.4778      Y:     2.7278      Z:    -1.6217     Total:     3.5007

*** Psi4 exiting successfully. Buy a developer a beer!
