                               Psi4 1.3.2 release

  ==> Input File <==

--------------------------------------------------------------------------
#psi4
#
memory 32 gb

molecule  {
0 1
  O        0.8686370    -1.1285810     0.6753960
  N       -0.4170490     0.5891890    -0.1013730
  C       -1.6800190    -0.0563620     0.2358630
  C       -2.0872990    -1.0630810    -0.8349870
  C       -2.7390930     1.0113430     0.4650240
  C        0.8114066    -0.0343727     0.1693549
  C        1.9924560     0.7166710    -0.4292430
  C        3.2969670     0.0166800    -0.0788280
  H       -1.4931140    -0.5968520     1.1678280
  H       -0.4432210     1.3965910    -0.7180680
  H       -3.0167340    -1.5709650    -0.5578120
  H       -2.2433890    -0.5581650    -1.7943680
  H       -1.3035910    -1.8142070    -0.9546500
  H       -2.4287380     1.7063800     1.2494310
  H       -3.6863690     0.5519340     0.7608270
  H       -2.9190420     1.5806020    -0.4540200
  H        1.9392979     0.8487207    -1.5202006
  H        1.9757950     1.7355060    -0.0222730
  H        3.3123780    -0.9936500    -0.4915720
  H        4.1482470     0.5747890    -0.4771690
  H        3.4100600    -0.0687260     1.0041520
units angstrom
no_reorient  #important for SAPT in psi4, default
symmetry c1  #important for SAPT in psi4, default
}

set PROPERTIES_ORIGIN ["COM"]
properties('MP2/aug-cc-pvtz', properties = ['dipole'])
--------------------------------------------------------------------------

    Molecular point group: c1
  Charge       = 0
  Multiplicity = 1
  Basis Set: AUG-CC-PVTZ
    Blend: AUG-CC-PVTZ
  Basis Set: (AUG-CC-PVTZ AUX)
    Blend: AUG-CC-PVTZ-JKFIT

    Orbital Energies [Eh]
    ---------------------

    Doubly Occupied:

       1A    -20.522679     2A    -15.570905     3A    -11.347715
       4A    -11.261560     5A    -11.240474     6A    -11.220659
       7A    -11.214017     8A    -11.210050     9A     -1.387422
      10A     -1.219007    11A     -1.064192    12A     -1.027067
      13A     -0.937116    14A     -0.885602    15A     -0.803595
      16A     -0.772138    17A     -0.689080    18A     -0.651915
      19A     -0.633871    20A     -0.610995    21A     -0.603629
      22A     -0.576798    23A     -0.547576    24A     -0.542943
      25A     -0.527684    26A     -0.517365    27A     -0.507636
      28A     -0.494741    29A     -0.488946    30A     -0.478226
      31A     -0.421382    32A     -0.381587

  @DF-RHF Final Energy:  -364.24538389776285

   => Energetics <=

    Nuclear Repulsion Energy =            392.2890821833274799
    One-Electron Energy =               -1272.3517856838980151
    Two-Electron Energy =                 515.8173196028076291
    Total Energy =                       -364.2453838977628493
  Basis Set: (AUG-CC-PVTZ AUX)
    Blend: AUG-CC-PVTZ-RI
    Molecular point group: c1

    Geometry (in Angstrom), charge = 0, multiplicity = 1:

       Center              X                  Y                   Z               Mass
    ------------   -----------------  -----------------  -----------------  -----------------
         O            0.865014894876    -1.129478003899     0.667752991719    15.994914619570
         N           -0.420671105124     0.588291996101    -0.109016008281    14.003074004430
         C           -1.683641105124    -0.057259003899     0.228219991719    12.000000000000
         C           -2.090921105124    -1.063978003899    -0.842630008281    12.000000000000
         C           -2.742715105124     1.010445996101     0.457380991719    12.000000000000
         C            0.807784494876    -0.035269703899     0.161711891719    12.000000000000
         C            1.988833894876     0.715773996101    -0.436886008281    12.000000000000
         C            3.293344894876     0.015782996101    -0.086471008281    12.000000000000
         H           -1.496736105124    -0.597749003899     1.160184991719     1.007825032230
         H           -0.446843105124     1.395693996101    -0.725711008281     1.007825032230
         H           -3.020356105124    -1.571862003899    -0.565455008281     1.007825032230
         H           -2.247011105124    -0.559062003899    -1.802011008281     1.007825032230
         H           -1.307213105124    -1.815104003899    -0.962293008281     1.007825032230
         H           -2.432360105124     1.705482996101     1.241787991719     1.007825032230
         H           -3.689991105124     0.551036996101     0.753183991719     1.007825032230
         H           -2.922664105124     1.579704996101    -0.461663008281     1.007825032230
         H            1.935675794876     0.847823696101    -1.527843608281     1.007825032230
         H            1.972172894876     1.734608996101    -0.029916008281     1.007825032230
         H            3.308755894876    -0.994547003899    -0.499215008281     1.007825032230
         H            4.144624894876     0.573891996101    -0.484812008281     1.007825032230
         H            3.406437894876    -0.069623003899     0.996508991719     1.007825032230

  Basis Set: AUG-CC-PVTZ
    Blend: AUG-CC-PVTZ
  Basis Set: (AUG-CC-PVTZ AUX)
    Blend: AUG-CC-PVTZ-JKFIT
	 Reference Energy          =    -364.2453838977628493 [Eh]
	 Singles Energy            =      -0.0000000000000000 [Eh]
	 Same-Spin Energy          =      -0.3754640555199092 [Eh]
	 Opposite-Spin Energy      =      -1.2747289970060405 [Eh]
	 Correlation Energy        =      -1.6501930525259496 [Eh]
	 Total Energy              =    -365.8955769502887847 [Eh]

	 ================> DF-SCS-MP2 Energies <==================
	-----------------------------------------------------------
	 SCS Same-Spin Scale       =       0.3333333333333333 [-]
	 SCS Opposite-Spin Scale   =       1.2000000000000000 [-]
	 SCS Same-Spin Energy      =      -0.1251546851733031 [Eh]
	 SCS Opposite-Spin Energy  =      -1.5296747964072486 [Eh]
	 SCS Correlation Energy    =      -1.6548294815805515 [Eh]
	 SCS Total Energy          =    -365.9002133793434268 [Eh]
	-----------------------------------------------------------

  Dipole Moment: [D]
     X:    -1.0086      Y:     2.5695      Z:    -1.5260     Total:     3.1541

*** Psi4 exiting successfully. Buy a developer a beer!
