                               Psi4 1.3.2 release

  ==> Input File <==

--------------------------------------------------------------------------
#psi4
#
memory 32 gb

molecule  {
0 1
  O        0.8686370    -1.1285810     0.6753960
  N       -0.4281554     0.5709592    -0.0906896
  C       -1.6800190    -0.0563620     0.2358630
  C       -2.0872990    -1.0630810    -0.8349870
  C       -2.7390930     1.0113430     0.4650240
  C        0.7808810    -0.0406060     0.0960010
  C        2.0081526     0.6970023    -0.4207214
  C        3.2969670     0.0166800    -0.0788280
  H       -1.4931140    -0.5968520     1.1678280
  H       -0.4432210     1.3965910    -0.7180680
  H       -3.0167340    -1.5709650    -0.5578120
  H       -2.2433890    -0.5581650    -1.7943680
  H       -1.3035910    -1.8142070    -0.9546500
  H       -2.4287380     1.7063800     1.2494310
  H       -3.6863690     0.5519340     0.7608270
  H       -2.9190420     1.5806020    -0.4540200
  H        1.8890940     0.8204890    -1.5196510
  H        1.9757950     1.7355060    -0.0222730
  H        3.3123780    -0.9936500    -0.4915720
  H        4.1482470     0.5747890    -0.4771690
  H        3.4100600    -0.0687260     1.0041520
units angstrom
no_reorient  #important for SAPT in psi4, default
symmetry c1  #important for SAPT in psi4, default
}

set PROPERTIES_ORIGIN ["COM"]
properties('MP2/aug-cc-pvtz', properties = ['dipole'])
--------------------------------------------------------------------------

    Molecular point group: c1
  Charge       = 0
  Multiplicity = 1
  Basis Set: AUG-CC-PVTZ
    Blend: AUG-CC-PVTZ
  Basis Set: (AUG-CC-PVTZ AUX)
    Blend: AUG-CC-PVTZ-JKFIT

    Orbital Energies [Eh]
    ---------------------

    Doubly Occupied:

       1A    -20.511960     2A    -15.579881     3A    -11.344708
       4A    -11.263523     5A    -11.243114     6A    -11.223414
       7A    -11.213264     8A    -11.211779     9A     -1.367528
      10A     -1.230020    11A     -1.067377    12A     -1.032328
      13A     -0.939758    14A     -0.889437    15A     -0.809682
      16A     -0.773265    17A     -0.682786    18A     -0.653620
      19A     -0.634838    20A     -0.614289    21A     -0.592960
      22A     -0.577103    23A     -0.553516    24A     -0.545155
      25A     -0.525933    26A     -0.516821    27A     -0.511567
      28A     -0.495877    29A     -0.485992    30A     -0.474854
      31A     -0.416843    32A     -0.383786

  @DF-RHF Final Energy:  -364.24690731724831

   => Energetics <=

    Nuclear Repulsion Energy =            392.8878452606566043
    One-Electron Energy =               -1273.5355448727759722
    Two-Electron Energy =                 516.4007922948710529
    Total Energy =                       -364.2469073172483149
  Basis Set: (AUG-CC-PVTZ AUX)
    Blend: AUG-CC-PVTZ-RI
    Molecular point group: c1

    Geometry (in Angstrom), charge = 0, multiplicity = 1:

       Center              X                  Y                   Z               Mass
    ------------   -----------------  -----------------  -----------------  -----------------
         O            0.868351727564    -1.124312484094     0.673207681713    15.994914619570
         N           -0.428440672436     0.575227715906    -0.092877918287    14.003074004430
         C           -1.680304272436    -0.052093484094     0.233674681713    12.000000000000
         C           -2.087584272436    -1.058812484094    -0.837175318287    12.000000000000
         C           -2.739378272436     1.015611515906     0.462835681713    12.000000000000
         C            0.780595727564    -0.036337484094     0.093812681713    12.000000000000
         C            2.007867327564     0.701270815906    -0.422909718287    12.000000000000
         C            3.296681727564     0.020948515906    -0.081016318287    12.000000000000
         H           -1.493399272436    -0.592583484094     1.165639681713     1.007825032230
         H           -0.443506272436     1.400859515906    -0.720256318287     1.007825032230
         H           -3.017019272436    -1.566696484094    -0.560000318287     1.007825032230
         H           -2.243674272436    -0.553896484094    -1.796556318287     1.007825032230
         H           -1.303876272436    -1.809938484094    -0.956838318287     1.007825032230
         H           -2.429023272436     1.710648515906     1.247242681713     1.007825032230
         H           -3.686654272436     0.556202515906     0.758638681713     1.007825032230
         H           -2.919327272436     1.584870515906    -0.456208318287     1.007825032230
         H            1.888808727564     0.824757515906    -1.521839318287     1.007825032230
         H            1.975509727564     1.739774515906    -0.024461318287     1.007825032230
         H            3.312092727564    -0.989381484094    -0.493760318287     1.007825032230
         H            4.147961727564     0.579057515906    -0.479357318287     1.007825032230
         H            3.409774727564    -0.064457484094     1.001963681713     1.007825032230

  Basis Set: AUG-CC-PVTZ
    Blend: AUG-CC-PVTZ
  Basis Set: (AUG-CC-PVTZ AUX)
    Blend: AUG-CC-PVTZ-JKFIT
	 Reference Energy          =    -364.2469073172483149 [Eh]
	 Singles Energy            =      -0.0000000000000000 [Eh]
	 Same-Spin Energy          =      -0.3761677080766735 [Eh]
	 Opposite-Spin Energy      =      -1.2755421158397782 [Eh]
	 Correlation Energy        =      -1.6517098239164518 [Eh]
	 Total Energy              =    -365.8986171411647774 [Eh]

	 ================> DF-SCS-MP2 Energies <==================
	-----------------------------------------------------------
	 SCS Same-Spin Scale       =       0.3333333333333333 [-]
	 SCS Opposite-Spin Scale   =       1.2000000000000000 [-]
	 SCS Same-Spin Energy      =      -0.1253892360255578 [Eh]
	 SCS Opposite-Spin Energy  =      -1.5306505390077338 [Eh]
	 SCS Correlation Energy    =      -1.6560397750332916 [Eh]
	 SCS Total Energy          =    -365.9029470922815790 [Eh]
	-----------------------------------------------------------

  Dipole Moment: [D]
     X:    -1.2300      Y:     2.7543      Z:    -1.6476     Total:     3.4371

*** Psi4 exiting successfully. Buy a developer a beer!
