                               Psi4 1.3.2 release

  ==> Input File <==

--------------------------------------------------------------------------
#psi4
#
memory 32 gb

molecule  {
0 1
  O        0.8686370    -1.1285810     0.6753960
  N       -0.4170490     0.5891890    -0.1013730
  C       -1.6800190    -0.0563620     0.2358630
  C       -2.0872990    -1.0630810    -0.8349870
  C       -2.7390930     1.0113430     0.4650240
  C        0.7889446    -0.0498336     0.1011292
  C        1.9924560     0.7166710    -0.4292430
  C        3.2901155     0.0071209    -0.0726683
  H       -1.4931140    -0.5968520     1.1678280
  H       -0.4432210     1.3965910    -0.7180680
  H       -3.0167340    -1.5709650    -0.5578120
  H       -2.2433890    -0.5581650    -1.7943680
  H       -1.3035910    -1.8142070    -0.9546500
  H       -2.4287380     1.7063800     1.2494310
  H       -3.6863690     0.5519340     0.7608270
  H       -2.9190420     1.5806020    -0.4540200
  H        1.8890940     0.8204890    -1.5196510
  H        1.9757950     1.7355060    -0.0222730
  H        3.3123780    -0.9936500    -0.4915720
  H        4.1482470     0.5747890    -0.4771690
  H        3.4100600    -0.0687260     1.0041520
units angstrom
no_reorient  #important for SAPT in psi4, default
symmetry c1  #important for SAPT in psi4, default
}

set PROPERTIES_ORIGIN ["COM"]
properties('MP2/aug-cc-pvtz', properties = ['dipole'])
--------------------------------------------------------------------------

    Molecular point group: c1
  Charge       = 0
  Multiplicity = 1
  Basis Set: AUG-CC-PVTZ
    Blend: AUG-CC-PVTZ
  Basis Set: (AUG-CC-PVTZ AUX)
    Blend: AUG-CC-PVTZ-JKFIT

    Orbital Energies [Eh]
    ---------------------

    Doubly Occupied:

       1A    -20.516393     2A    -15.575691     3A    -11.344968
       4A    -11.263704     5A    -11.240298     6A    -11.222570
       7A    -11.213835     8A    -11.211802     9A     -1.374230
      10A     -1.225726    11A     -1.065435    12A     -1.028930
      13A     -0.939051    14A     -0.887194    15A     -0.806595
      16A     -0.775684    17A     -0.683810    18A     -0.652776
      19A     -0.636172    20A     -0.613148    21A     -0.596354
      22A     -0.578195    23A     -0.548193    24A     -0.544626
      25A     -0.526634    26A     -0.513928    27A     -0.507895
      28A     -0.497642    29A     -0.488802    30A     -0.478126
      31A     -0.418347    32A     -0.384970

  @DF-RHF Final Energy:  -364.24938819196962

   => Energetics <=

    Nuclear Repulsion Energy =            392.5816190665045156
    One-Electron Energy =               -1272.9385658364490155
    Two-Electron Energy =                 516.1075585779748280
    Total Energy =                       -364.2493881919696150
  Basis Set: (AUG-CC-PVTZ AUX)
    Blend: AUG-CC-PVTZ-RI
    Molecular point group: c1

    Geometry (in Angstrom), charge = 0, multiplicity = 1:

       Center              X                  Y                   Z               Mass
    ------------   -----------------  -----------------  -----------------  -----------------
         O            0.868510635508    -1.126622283390     0.674219020810    15.994914619570
         N           -0.417175364492     0.591147716610    -0.102549979190    14.003074004430
         C           -1.680145364492    -0.054403283390     0.234686020810    12.000000000000
         C           -2.087425364492    -1.061122283390    -0.836163979190    12.000000000000
         C           -2.739219364492     1.013301716610     0.463847020810    12.000000000000
         C            0.788818235508    -0.047874883390     0.099952220810    12.000000000000
         C            1.992329635508     0.718629716610    -0.430419979190    12.000000000000
         C            3.289989135508     0.009079616610    -0.073845279190    12.000000000000
         H           -1.493240364492    -0.594893283390     1.166651020810     1.007825032230
         H           -0.443347364492     1.398549716610    -0.719244979190     1.007825032230
         H           -3.016860364492    -1.569006283390    -0.558988979190     1.007825032230
         H           -2.243515364492    -0.556206283390    -1.795544979190     1.007825032230
         H           -1.303717364492    -1.812248283390    -0.955826979190     1.007825032230
         H           -2.428864364492     1.708338716610     1.248254020810     1.007825032230
         H           -3.686495364492     0.553892716610     0.759650020810     1.007825032230
         H           -2.919168364492     1.582560716610    -0.455196979190     1.007825032230
         H            1.888967635508     0.822447716610    -1.520827979190     1.007825032230
         H            1.975668635508     1.737464716610    -0.023449979190     1.007825032230
         H            3.312251635508    -0.991691283390    -0.492748979190     1.007825032230
         H            4.148120635508     0.576747716610    -0.478345979190     1.007825032230
         H            3.409933635508    -0.066767283390     1.002975020810     1.007825032230

  Basis Set: AUG-CC-PVTZ
    Blend: AUG-CC-PVTZ
  Basis Set: (AUG-CC-PVTZ AUX)
    Blend: AUG-CC-PVTZ-JKFIT
	 Reference Energy          =    -364.2493881919696150 [Eh]
	 Singles Energy            =      -0.0000000000000000 [Eh]
	 Same-Spin Energy          =      -0.3756048459317261 [Eh]
	 Opposite-Spin Energy      =      -1.2748435036743504 [Eh]
	 Correlation Energy        =      -1.6504483496060764 [Eh]
	 Total Energy              =    -365.8998365415756666 [Eh]

	 ================> DF-SCS-MP2 Energies <==================
	-----------------------------------------------------------
	 SCS Same-Spin Scale       =       0.3333333333333333 [-]
	 SCS Opposite-Spin Scale   =       1.2000000000000000 [-]
	 SCS Same-Spin Energy      =      -0.1252016153105754 [Eh]
	 SCS Opposite-Spin Energy  =      -1.5298122044092204 [Eh]
	 SCS Correlation Energy    =      -1.6550138197197957 [Eh]
	 SCS Total Energy          =    -365.9044020116893989 [Eh]
	-----------------------------------------------------------

  Dipole Moment: [D]
     X:    -1.2023      Y:     2.6589      Z:    -1.6089     Total:     3.3322

*** Psi4 exiting successfully. Buy a developer a beer!
