                               Psi4 1.3.2 release

  ==> Input File <==

--------------------------------------------------------------------------
#psi4
#
memory 32 gb

molecule  {
0 1
  O        0.8472311    -1.1286906     0.6780309
  N       -0.4281082     0.5711787    -0.0902763
  C       -1.6800190    -0.0563620     0.2358630
  C       -2.0872990    -1.0630810    -0.8349870
  C       -2.7390930     1.0113430     0.4650240
  C        0.7808810    -0.0406060     0.0960010
  C        1.9924560     0.7166710    -0.4292430
  C        3.2969670     0.0166800    -0.0788280
  H       -1.4931140    -0.5968520     1.1678280
  H       -0.4432210     1.3965910    -0.7180680
  H       -3.0167340    -1.5709650    -0.5578120
  H       -2.2433890    -0.5581650    -1.7943680
  H       -1.3035910    -1.8142070    -0.9546500
  H       -2.4287380     1.7063800     1.2494310
  H       -3.6863690     0.5519340     0.7608270
  H       -2.9190420     1.5806020    -0.4540200
  H        1.8890940     0.8204890    -1.5196510
  H        1.9757950     1.7355060    -0.0222730
  H        3.3123780    -0.9936500    -0.4915720
  H        4.1482470     0.5747890    -0.4771690
  H        3.4100600    -0.0687260     1.0041520
units angstrom
no_reorient  #important for SAPT in psi4, default
symmetry c1  #important for SAPT in psi4, default
}

set PROPERTIES_ORIGIN ["COM"]
properties('MP2/aug-cc-pvtz', properties = ['dipole'])
--------------------------------------------------------------------------

    Molecular point group: c1
  Charge       = 0
  Multiplicity = 1
  Basis Set: AUG-CC-PVTZ
    Blend: AUG-CC-PVTZ
  Basis Set: (AUG-CC-PVTZ AUX)
    Blend: AUG-CC-PVTZ-JKFIT

    Orbital Energies [Eh]
    ---------------------

    Doubly Occupied:

       1A    -20.512331     2A    -15.578492     3A    -11.344834
       4A    -11.262497     5A    -11.242742     6A    -11.222788
       7A    -11.215064     8A    -11.211212     9A     -1.367895
      10A     -1.228695    11A     -1.066615    12A     -1.029822
      13A     -0.939128    14A     -0.889780    15A     -0.810019
      16A     -0.772962    17A     -0.683280    18A     -0.653272
      19A     -0.636471    20A     -0.613950    21A     -0.592789
      22A     -0.576559    23A     -0.550484    24A     -0.544564
      25A     -0.525368    26A     -0.513891    27A     -0.511738
      28A     -0.497488    29A     -0.487371    30A     -0.476259
      31A     -0.417889    32A     -0.382934

  @DF-RHF Final Energy:  -364.24767778942027

   => Energetics <=

    Nuclear Repulsion Energy =            392.8528718052696149
    One-Electron Energy =               -1273.4827311232284046
    Two-Electron Energy =                 516.3821815285384673
    Total Energy =                       -364.2476777894203224
  Basis Set: (AUG-CC-PVTZ AUX)
    Blend: AUG-CC-PVTZ-RI
    Molecular point group: c1

    Geometry (in Angstrom), charge = 0, multiplicity = 1:

       Center              X                  Y                   Z               Mass
    ------------   -----------------  -----------------  -----------------  -----------------
         O            0.851551258622    -1.126484165952     0.676314578793    15.994914619570
         N           -0.423788041378     0.573385134048    -0.091992621207    14.003074004430
         C           -1.675698841378    -0.054155565952     0.234146678793    12.000000000000
         C           -2.082978841378    -1.060874565952    -0.836703321207    12.000000000000
         C           -2.734772841378     1.013549434048     0.463307678793    12.000000000000
         C            0.785201158622    -0.038399565952     0.094284678793    12.000000000000
         C            1.996776158622     0.718877434048    -0.430959321207    12.000000000000
         C            3.301287158622     0.018886434048    -0.080544321207    12.000000000000
         H           -1.488793841378    -0.594645565952     1.166111678793     1.007825032230
         H           -0.438900841378     1.398797434048    -0.719784321207     1.007825032230
         H           -3.012413841378    -1.568758565952    -0.559528321207     1.007825032230
         H           -2.239068841378    -0.555958565952    -1.796084321207     1.007825032230
         H           -1.299270841378    -1.812000565952    -0.956366321207     1.007825032230
         H           -2.424417841378     1.708586434048     1.247714678793     1.007825032230
         H           -3.682048841378     0.554140434048     0.759110678793     1.007825032230
         H           -2.914721841378     1.582808434048    -0.455736321207     1.007825032230
         H            1.893414158622     0.822695434048    -1.521367321207     1.007825032230
         H            1.980115158622     1.737712434048    -0.023989321207     1.007825032230
         H            3.316698158622    -0.991443565952    -0.493288321207     1.007825032230
         H            4.152567158622     0.576995434048    -0.478885321207     1.007825032230
         H            3.414380158622    -0.066519565952     1.002435678793     1.007825032230

  Basis Set: AUG-CC-PVTZ
    Blend: AUG-CC-PVTZ
  Basis Set: (AUG-CC-PVTZ AUX)
    Blend: AUG-CC-PVTZ-JKFIT
	 Reference Energy          =    -364.2476777894202655 [Eh]
	 Singles Energy            =      -0.0000000000000000 [Eh]
	 Same-Spin Energy          =      -0.3760708738736880 [Eh]
	 Opposite-Spin Energy      =      -1.2755010815936894 [Eh]
	 Correlation Energy        =      -1.6515719554673773 [Eh]
	 Total Energy              =    -365.8992497448876406 [Eh]

	 ================> DF-SCS-MP2 Energies <==================
	-----------------------------------------------------------
	 SCS Same-Spin Scale       =       0.3333333333333333 [-]
	 SCS Opposite-Spin Scale   =       1.2000000000000000 [-]
	 SCS Same-Spin Energy      =      -0.1253569579578960 [Eh]
	 SCS Opposite-Spin Energy  =      -1.5306012979124273 [Eh]
	 SCS Correlation Energy    =      -1.6559582558703232 [Eh]
	 SCS Total Energy          =    -365.9036360452905683 [Eh]
	-----------------------------------------------------------

  Dipole Moment: [D]
     X:    -1.1667      Y:     2.7630      Z:    -1.6569     Total:     3.4264

*** Psi4 exiting successfully. Buy a developer a beer!
