                               Psi4 1.3.2 release

  ==> Input File <==

--------------------------------------------------------------------------
#psi4
#
memory 32 gb

molecule  {
0 1
  O        0.8686370    -1.1285810     0.6753960
  N       -0.4170490     0.5891890    -0.1013730
  C       -1.6800190    -0.0563620     0.2358630
  C       -2.0872990    -1.0630810    -0.8349870
  C       -2.7390930     1.0113430     0.4650240
  C        0.7808810    -0.0406060     0.0960010
  C        2.0720467     0.7664180    -0.4637473
  C        3.2969670     0.0166800    -0.0788280
  H       -1.4931140    -0.5968520     1.1678280
  H       -0.4432210     1.3965910    -0.7180680
  H       -3.0167340    -1.5709650    -0.5578120
  H       -2.2433890    -0.5581650    -1.7943680
  H       -1.3035910    -1.8142070    -0.9546500
  H       -2.4287380     1.7063800     1.2494310
  H       -3.6863690     0.5519340     0.7608270
  H       -2.9190420     1.5806020    -0.4540200
  H        1.8890940     0.8204890    -1.5196510
  H        1.9757950     1.7355060    -0.0222730
  H        3.3123780    -0.9936500    -0.4915720
  H        4.1482470     0.5747890    -0.4771690
  H        3.4100600    -0.0687260     1.0041520
units angstrom
no_reorient  #important for SAPT in psi4, default
symmetry c1  #important for SAPT in psi4, default
}

set PROPERTIES_ORIGIN ["COM"]
properties('MP2/aug-cc-pvtz', properties = ['dipole'])
--------------------------------------------------------------------------

    Molecular point group: c1
  Charge       = 0
  Multiplicity = 1
  Basis Set: AUG-CC-PVTZ
    Blend: AUG-CC-PVTZ
  Basis Set: (AUG-CC-PVTZ AUX)
    Blend: AUG-CC-PVTZ-JKFIT

    Orbital Energies [Eh]
    ---------------------

    Doubly Occupied:

       1A    -20.513666     2A    -15.579116     3A    -11.346089
       4A    -11.265056     5A    -11.240009     6A    -11.223570
       7A    -11.212602     8A    -11.211472     9A     -1.364482
      10A     -1.227668    11A     -1.063068    12A     -1.033468
      13A     -0.939960    14A     -0.879663    15A     -0.810001
      16A     -0.778936    17A     -0.671998    18A     -0.653151
      19A     -0.639470    20A     -0.614369    21A     -0.591570
      22A     -0.579511    23A     -0.550173    24A     -0.545493
      25A     -0.528450    26A     -0.523706    27A     -0.502347
      28A     -0.500240    29A     -0.490473    30A     -0.479243
      31A     -0.404191    32A     -0.385447

  @DF-RHF Final Energy:  -364.24099147394793

   => Energetics <=

    Nuclear Repulsion Energy =            391.1602291627885961
    One-Electron Energy =               -1270.1051274643270972
    Two-Electron Energy =                 514.7039068275905720
    Total Energy =                       -364.2409914739479291
  Basis Set: (AUG-CC-PVTZ AUX)
    Blend: AUG-CC-PVTZ-RI
    Molecular point group: c1

    Geometry (in Angstrom), charge = 0, multiplicity = 1:

       Center              X                  Y                   Z               Mass
    ------------   -----------------  -----------------  -----------------  -----------------
         O            0.860339084363    -1.133767430595     0.678993197745    15.994914619570
         N           -0.425346915637     0.584002569405    -0.097775802255    14.003074004430
         C           -1.688316915637    -0.061548430595     0.239460197745    12.000000000000
         C           -2.095596915637    -1.068267430595    -0.831389802255    12.000000000000
         C           -2.747390915637     1.006156569405     0.468621197745    12.000000000000
         C            0.772583084363    -0.045792430595     0.099598197745    12.000000000000
         C            2.063748784363     0.761231569405    -0.460150102255    12.000000000000
         C            3.288669084363     0.011493569405    -0.075230802255    12.000000000000
         H           -1.501411915637    -0.602038430595     1.171425197745     1.007825032230
         H           -0.451518915637     1.391404569405    -0.714470802255     1.007825032230
         H           -3.025031915637    -1.576151430595    -0.554214802255     1.007825032230
         H           -2.251686915637    -0.563351430595    -1.790770802255     1.007825032230
         H           -1.311888915637    -1.819393430595    -0.951052802255     1.007825032230
         H           -2.437035915637     1.701193569405     1.253028197745     1.007825032230
         H           -3.694666915637     0.546747569405     0.764424197745     1.007825032230
         H           -2.927339915637     1.575415569405    -0.450422802255     1.007825032230
         H            1.880796084363     0.815302569405    -1.516053802255     1.007825032230
         H            1.967497084363     1.730319569405    -0.018675802255     1.007825032230
         H            3.304080084363    -0.998836430595    -0.487974802255     1.007825032230
         H            4.139949084363     0.569602569405    -0.473571802255     1.007825032230
         H            3.401762084363    -0.073912430595     1.007749197745     1.007825032230

  Basis Set: AUG-CC-PVTZ
    Blend: AUG-CC-PVTZ
  Basis Set: (AUG-CC-PVTZ AUX)
    Blend: AUG-CC-PVTZ-JKFIT
	 Reference Energy          =    -364.2409914739479291 [Eh]
	 Singles Energy            =      -0.0000000000000000 [Eh]
	 Same-Spin Energy          =      -0.3759843161671683 [Eh]
	 Opposite-Spin Energy      =      -1.2757426916569179 [Eh]
	 Correlation Energy        =      -1.6517270078240862 [Eh]
	 Total Energy              =    -365.8927184817720217 [Eh]

	 ================> DF-SCS-MP2 Energies <==================
	-----------------------------------------------------------
	 SCS Same-Spin Scale       =       0.3333333333333333 [-]
	 SCS Opposite-Spin Scale   =       1.2000000000000000 [-]
	 SCS Same-Spin Energy      =      -0.1253281053890561 [Eh]
	 SCS Opposite-Spin Energy  =      -1.5308912299883015 [Eh]
	 SCS Correlation Energy    =      -1.6562193353773575 [Eh]
	 SCS Total Energy          =    -365.8972108093252587 [Eh]
	-----------------------------------------------------------

  Dipole Moment: [D]
     X:    -1.3826      Y:     2.6736      Z:    -1.6061     Total:     3.4116

*** Psi4 exiting successfully. Buy a developer a beer!
