                               Psi4 1.3.2 release

  ==> Input File <==

--------------------------------------------------------------------------
#psi4
#
memory 32 gb

molecule  {
0 1
  O        0.8686370    -1.1285810     0.6753960
  N       -0.4170490     0.5891890    -0.1013730
  C       -1.6800190    -0.0563620     0.2358630
  C       -2.0872990    -1.0630810    -0.8349870
  C       -2.7390930     1.0113430     0.4650240
  C        0.7666782     0.1354767     0.0022291
  C        1.9924560     0.7166710    -0.4292430
  C        3.2969670     0.0166800    -0.0788280
  H       -1.4931140    -0.5968520     1.1678280
  H       -0.4432210     1.3965910    -0.7180680
  H       -3.0167340    -1.5709650    -0.5578120
  H       -2.2433890    -0.5581650    -1.7943680
  H       -1.3035910    -1.8142070    -0.9546500
  H       -2.4287380     1.7063800     1.2494310
  H       -3.6863690     0.5519340     0.7608270
  H       -2.9190420     1.5806020    -0.4540200
  H        1.8890940     0.8204890    -1.5196510
  H        1.9757950     1.7355060    -0.0222730
  H        3.3123780    -0.9936500    -0.4915720
  H        4.1482470     0.5747890    -0.4771690
  H        3.4100600    -0.0687260     1.0041520
units angstrom
no_reorient  #important for SAPT in psi4, default
symmetry c1  #important for SAPT in psi4, default
}

set PROPERTIES_ORIGIN ["COM"]
properties('MP2/aug-cc-pvtz', properties = ['dipole'])
--------------------------------------------------------------------------

    Molecular point group: c1
  Charge       = 0
  Multiplicity = 1
  Basis Set: AUG-CC-PVTZ
    Blend: AUG-CC-PVTZ
  Basis Set: (AUG-CC-PVTZ AUX)
    Blend: AUG-CC-PVTZ-JKFIT

    Orbital Energies [Eh]
    ---------------------

    Doubly Occupied:

       1A    -20.473248     2A    -15.606895     3A    -11.344503
       4A    -11.277970     5A    -11.246145     6A    -11.232031
       7A    -11.218227     8A    -11.215955     9A     -1.324908
      10A     -1.192368    11A     -1.085587    12A     -1.047612
      13A     -0.946705    14A     -0.910025    15A     -0.832188
      16A     -0.791680    17A     -0.681386    18A     -0.664623
      19A     -0.648112    20A     -0.622452    21A     -0.588501
      22A     -0.563798    23A     -0.552329    24A     -0.538364
      25A     -0.531465    26A     -0.523810    27A     -0.502574
      28A     -0.492716    29A     -0.469774    30A     -0.461021
      31A     -0.386304    32A     -0.365297

  @DF-RHF Final Energy:  -364.18498339756820

   => Energetics <=

    Nuclear Repulsion Energy =            391.9868507227197370
    One-Electron Energy =               -1271.6665275719458350
    Two-Electron Energy =                 515.4946934516578949
    Total Energy =                       -364.1849833975682031
  Basis Set: (AUG-CC-PVTZ AUX)
    Blend: AUG-CC-PVTZ-RI
    Molecular point group: c1

    Geometry (in Angstrom), charge = 0, multiplicity = 1:

       Center              X                  Y                   Z               Mass
    ------------   -----------------  -----------------  -----------------  -----------------
         O            0.870117753315    -1.146938865577     0.685172285207    15.994914619570
         N           -0.415568246685     0.570831134423    -0.091596714793    14.003074004430
         C           -1.678538246685    -0.074719865577     0.245639285207    12.000000000000
         C           -2.085818246685    -1.081438865577    -0.825210714793    12.000000000000
         C           -2.737612246685     0.992985134423     0.474800285207    12.000000000000
         C            0.768158953315     0.117118834423     0.012005385207    12.000000000000
         C            1.993936753315     0.698313134423    -0.419466714793    12.000000000000
         C            3.298447753315    -0.001677865577    -0.069051714793    12.000000000000
         H           -1.491633246685    -0.615209865577     1.177604285207     1.007825032230
         H           -0.441740246685     1.378233134423    -0.708291714793     1.007825032230
         H           -3.015253246685    -1.589322865577    -0.548035714793     1.007825032230
         H           -2.241908246685    -0.576522865577    -1.784591714793     1.007825032230
         H           -1.302110246685    -1.832564865577    -0.944873714793     1.007825032230
         H           -2.427257246685     1.688022134423     1.259207285207     1.007825032230
         H           -3.684888246685     0.533576134423     0.770603285207     1.007825032230
         H           -2.917561246685     1.562244134423    -0.444243714793     1.007825032230
         H            1.890574753315     0.802131134423    -1.509874714793     1.007825032230
         H            1.977275753315     1.717148134423    -0.012496714793     1.007825032230
         H            3.313858753315    -1.012007865577    -0.481795714793     1.007825032230
         H            4.149727753315     0.556431134423    -0.467392714793     1.007825032230
         H            3.411540753315    -0.087083865577     1.013928285207     1.007825032230

  Basis Set: AUG-CC-PVTZ
    Blend: AUG-CC-PVTZ
  Basis Set: (AUG-CC-PVTZ AUX)
    Blend: AUG-CC-PVTZ-JKFIT
	 Reference Energy          =    -364.1849833975682031 [Eh]
	 Singles Energy            =      -0.0000000000000000 [Eh]
	 Same-Spin Energy          =      -0.3799504901657103 [Eh]
	 Opposite-Spin Energy      =      -1.2833046189252975 [Eh]
	 Correlation Energy        =      -1.6632551090910077 [Eh]
	 Total Energy              =    -365.8482385066591860 [Eh]

	 ================> DF-SCS-MP2 Energies <==================
	-----------------------------------------------------------
	 SCS Same-Spin Scale       =       0.3333333333333333 [-]
	 SCS Opposite-Spin Scale   =       1.2000000000000000 [-]
	 SCS Same-Spin Energy      =      -0.1266501633885701 [Eh]
	 SCS Opposite-Spin Energy  =      -1.5399655427103569 [Eh]
	 SCS Correlation Energy    =      -1.6666157060989271 [Eh]
	 SCS Total Energy          =    -365.8515991036671267 [Eh]
	-----------------------------------------------------------

  Dipole Moment: [D]
     X:    -1.8896      Y:     3.6432      Z:    -2.1165     Total:     4.6177

*** Psi4 exiting successfully. Buy a developer a beer!
