                               Psi4 1.4a3.dev225

  ==> Input File <==

--------------------------------------------------------------------------
#psi4
#
memory 32 gb

molecule  {
0 1
  O        0.8665680     1.1680080    -0.7351460
  N       -0.3660760    -0.5086790     0.1929010
  C       -1.6441200     0.0174450    -0.2761400
  C       -2.1412550     1.1442230     0.6252270
  C       -2.6427120    -1.1266550    -0.3840140
  C        0.8063460     0.1556180    -0.0295640
  C        2.0712022    -0.4520361     0.6765458
  C        3.2825740    -0.2523450    -0.1975960
  H       -1.4466230     0.4281070    -1.2709490
  H       -0.3785050    -1.2608410     0.8714320
  H       -3.0785860     1.5617170     0.2436050
  H       -2.3175770     0.7713190     1.6396860
  H       -1.3960540     1.9417130     0.6641920
  H       -2.2693050    -1.9092940    -1.0497770
  H       -3.5969080    -0.7634960    -0.7753550
  H       -2.8341330    -1.5678230     0.6011330
  H        2.1523320     0.0883960     1.6122110
  H        1.8656800    -1.4909910     0.8873090
  H        3.4076760     0.8004350    -0.4533700
  H        4.1701610    -0.5986810     0.3385000
  H        3.2011700    -0.8174180    -1.1296580
units angstrom
no_reorient  #important for SAPT in psi4, default
symmetry c1  #important for SAPT in psi4, default
}

set PROPERTIES_ORIGIN ["COM"]
properties('MP2/aug-cc-pvtz', properties = ['dipole'])
--------------------------------------------------------------------------

    Molecular point group: c1
  Charge       = 0
  Multiplicity = 1
  Basis Set: AUG-CC-PVTZ
    Blend: AUG-CC-PVTZ
  Basis Set: (AUG-CC-PVTZ AUX)
    Blend: AUG-CC-PVTZ-JKFIT

    Orbital Energies [Eh]
    ---------------------

    Doubly Occupied:

       1A    -20.511302     2A    -15.580794     3A    -11.345379
       4A    -11.266088     5A    -11.239410     6A    -11.224634
       7A    -11.214338     8A    -11.212589     9A     -1.365209
      10A     -1.228793    11A     -1.064641    12A     -1.032066
      13A     -0.940298    14A     -0.883329    15A     -0.810707
      16A     -0.780914    17A     -0.676717    18A     -0.658592
      19A     -0.627405    20A     -0.617516    21A     -0.592154
      22A     -0.579114    23A     -0.555186    24A     -0.545553
      25A     -0.527091    26A     -0.517000    27A     -0.508779
      28A     -0.499350    29A     -0.488250    30A     -0.478345
      31A     -0.409230    32A     -0.386572

  @DF-RHF Final Energy:  -364.24746435710449

   => Energetics <=

    Nuclear Repulsion Energy =            391.8539849157372714
    One-Electron Energy =               -1271.4682091842282716
    Two-Electron Energy =                 515.3667599113864526
    Total Energy =                       -364.2474643571044908
  Basis Set: (AUG-CC-PVTZ AUX)
    Blend: AUG-CC-PVTZ-RI
    Molecular point group: c1

    Geometry (in Angstrom), charge = 0, multiplicity = 1:

       Center              X                  Y                   Z               Mass
    ------------   -----------------  -----------------  -----------------  -----------------
         O            0.840690282250     1.145807959123    -0.718743913203    15.994914619570
         N           -0.391953717750    -0.530879040877     0.209303086797    14.003074004430
         C           -1.669997717750    -0.004755040877    -0.259737913203    12.000000000000
         C           -2.167132717750     1.122022959123     0.641629086797    12.000000000000
         C           -2.668589717750    -1.148855040877    -0.367611913203    12.000000000000
         C            0.780468282250     0.133417959123    -0.013161913203    12.000000000000
         C            2.045324482250    -0.474236140877     0.692947886797    12.000000000000
         C            3.256696282250    -0.274545040877    -0.181193913203    12.000000000000
         H           -1.472500717750     0.405906959123    -1.254546913203     1.007825032230
         H           -0.404382717750    -1.283041040877     0.887834086797     1.007825032230
         H           -3.104463717750     1.539516959123     0.260007086797     1.007825032230
         H           -2.343454717750     0.749118959123     1.656088086797     1.007825032230
         H           -1.421931717750     1.919512959123     0.680594086797     1.007825032230
         H           -2.295182717750    -1.931494040877    -1.033374913203     1.007825032230
         H           -3.622785717750    -0.785696040877    -0.758952913203     1.007825032230
         H           -2.860010717750    -1.590023040877     0.617535086797     1.007825032230
         H            2.126454282250     0.066195959123     1.628613086797     1.007825032230
         H            1.839802282250    -1.513191040877     0.903711086797     1.007825032230
         H            3.381798282250     0.778234959123    -0.436967913203     1.007825032230
         H            4.144283282250    -0.620881040877     0.354902086797     1.007825032230
         H            3.175292282250    -0.839618040877    -1.113255913203     1.007825032230

  Basis Set: AUG-CC-PVTZ
    Blend: AUG-CC-PVTZ
  Basis Set: (AUG-CC-PVTZ AUX)
    Blend: AUG-CC-PVTZ-JKFIT
	 Reference Energy          =    -364.2474643571044908 [Eh]
	 Singles Energy            =      -0.0000000000000000 [Eh]
	 Same-Spin Energy          =      -0.3758057688700059 [Eh]
	 Opposite-Spin Energy      =      -1.2752766252363945 [Eh]
	 Correlation Energy        =      -1.6510823941064006 [Eh]
	 Total Energy              =    -365.8985467512109153 [Eh]

	 ================> DF-SCS-MP2 Energies <==================
	-----------------------------------------------------------
	 SCS Same-Spin Scale       =       0.3333333333333333 [-]
	 SCS Opposite-Spin Scale   =       1.2000000000000000 [-]
	 SCS Same-Spin Energy      =      -0.1252685896233353 [Eh]
	 SCS Opposite-Spin Energy  =      -1.5303319502836734 [Eh]
	 SCS Correlation Energy    =      -1.6556005399070086 [Eh]
	 SCS Total Energy          =    -365.9030648970115180 [Eh]
	-----------------------------------------------------------

  Dipole Moment: [D]
     X:    -1.3236      Y:    -2.5858      Z:     1.8758     Total:     3.4579

*** Psi4 exiting successfully. Buy a developer a beer!
