                               Psi4 1.3.2 release

  ==> Input File <==

--------------------------------------------------------------------------
#psi4
#
memory 32 gb

molecule  {
0 1
  O        0.8686370    -1.1285810     0.6753960
  N       -0.4203203     0.6160861    -0.0582974
  C       -1.6800190    -0.0563620     0.2358630
  C       -2.1309927    -1.0741332    -0.8066553
  C       -2.7390930     1.0113430     0.4650240
  C        0.7808810    -0.0406060     0.0960010
  C        1.9924560     0.7166710    -0.4292430
  C        3.2969670     0.0166800    -0.0788280
  H       -1.4931140    -0.5968520     1.1678280
  H       -0.4432210     1.3965910    -0.7180680
  H       -3.0167340    -1.5709650    -0.5578120
  H       -2.2433890    -0.5581650    -1.7943680
  H       -1.3035910    -1.8142070    -0.9546500
  H       -2.4287380     1.7063800     1.2494310
  H       -3.6863690     0.5519340     0.7608270
  H       -2.9190420     1.5806020    -0.4540200
  H        1.8890940     0.8204890    -1.5196510
  H        1.9757950     1.7355060    -0.0222730
  H        3.3123780    -0.9936500    -0.4915720
  H        4.1482470     0.5747890    -0.4771690
  H        3.4100600    -0.0687260     1.0041520
units angstrom
no_reorient  #important for SAPT in psi4, default
symmetry c1  #important for SAPT in psi4, default
}

set PROPERTIES_ORIGIN ["COM"]
properties('MP2/aug-cc-pvtz', properties = ['dipole'])
--------------------------------------------------------------------------

    Molecular point group: c1
  Charge       = 0
  Multiplicity = 1
  Basis Set: AUG-CC-PVTZ
    Blend: AUG-CC-PVTZ
  Basis Set: (AUG-CC-PVTZ AUX)
    Blend: AUG-CC-PVTZ-JKFIT

    Orbital Energies [Eh]
    ---------------------

    Doubly Occupied:

       1A    -20.516617     2A    -15.580082     3A    -11.346989
       4A    -11.264255     5A    -11.241351     6A    -11.221196
       7A    -11.214300     8A    -11.214005     9A     -1.368367
      10A     -1.227103    11A     -1.066119    12A     -1.030345
      13A     -0.938876    14A     -0.888653    15A     -0.808049
      16A     -0.774744    17A     -0.682898    18A     -0.652191
      19A     -0.636030    20A     -0.614163    21A     -0.596366
      22A     -0.576960    23A     -0.552166    24A     -0.542051
      25A     -0.530203    26A     -0.513803    27A     -0.511307
      28A     -0.494696    29A     -0.483360    30A     -0.473210
      31A     -0.419674    32A     -0.388241

  @DF-RHF Final Energy:  -364.24450826643886

   => Energetics <=

    Nuclear Repulsion Energy =            391.9684022109461807
    One-Electron Energy =               -1271.6890809310907571
    Two-Electron Energy =                 515.4761704537057767
    Total Energy =                       -364.2445082664388565
  Basis Set: (AUG-CC-PVTZ AUX)
    Blend: AUG-CC-PVTZ-RI
    Molecular point group: c1

    Geometry (in Angstrom), charge = 0, multiplicity = 1:

       Center              X                  Y                   Z               Mass
    ------------   -----------------  -----------------  -----------------  -----------------
         O            0.873590386234    -1.130700973644     0.667201484569    15.994914619570
         N           -0.415366913766     0.613966126356    -0.066491915431    14.003074004430
         C           -1.675065613766    -0.058481973644     0.227668484569    12.000000000000
         C           -2.126039313766    -1.076253173644    -0.814849815431    12.000000000000
         C           -2.734139613766     1.009223026356     0.456829484569    12.000000000000
         C            0.785834386234    -0.042725973644     0.087806484569    12.000000000000
         C            1.997409386234     0.714551026356    -0.437437515431    12.000000000000
         C            3.301920386234     0.014560026356    -0.087022515431    12.000000000000
         H           -1.488160613766    -0.598971973644     1.159633484569     1.007825032230
         H           -0.438267613766     1.394471026356    -0.726262515431     1.007825032230
         H           -3.011780613766    -1.573084973644    -0.566006515431     1.007825032230
         H           -2.238435613766    -0.560284973644    -1.802562515431     1.007825032230
         H           -1.298637613766    -1.816326973644    -0.962844515431     1.007825032230
         H           -2.423784613766     1.704260026356     1.241236484569     1.007825032230
         H           -3.681415613766     0.549814026356     0.752632484569     1.007825032230
         H           -2.914088613766     1.578482026356    -0.462214515431     1.007825032230
         H            1.894047386234     0.818369026356    -1.527845515431     1.007825032230
         H            1.980748386234     1.733386026356    -0.030467515431     1.007825032230
         H            3.317331386234    -0.995769973644    -0.499766515431     1.007825032230
         H            4.153200386234     0.572669026356    -0.485363515431     1.007825032230
         H            3.415013386234    -0.070845973644     0.995957484569     1.007825032230

  Basis Set: AUG-CC-PVTZ
    Blend: AUG-CC-PVTZ
  Basis Set: (AUG-CC-PVTZ AUX)
    Blend: AUG-CC-PVTZ-JKFIT
	 Reference Energy          =    -364.2445082664388565 [Eh]
	 Singles Energy            =      -0.0000000000000000 [Eh]
	 Same-Spin Energy          =      -0.3758821342260851 [Eh]
	 Opposite-Spin Energy      =      -1.2756270651147772 [Eh]
	 Correlation Energy        =      -1.6515091993408624 [Eh]
	 Total Energy              =    -365.8960174657797211 [Eh]

	 ================> DF-SCS-MP2 Energies <==================
	-----------------------------------------------------------
	 SCS Same-Spin Scale       =       0.3333333333333333 [-]
	 SCS Opposite-Spin Scale   =       1.2000000000000000 [-]
	 SCS Same-Spin Energy      =      -0.1252940447420283 [Eh]
	 SCS Opposite-Spin Energy  =      -1.5307524781377326 [Eh]
	 SCS Correlation Energy    =      -1.6560465228797610 [Eh]
	 SCS Total Energy          =    -365.9005547893186190 [Eh]
	-----------------------------------------------------------

  Dipole Moment: [D]
     X:    -1.1848      Y:     2.5958      Z:    -1.6910     Total:     3.3168

*** Psi4 exiting successfully. Buy a developer a beer!
