                               Psi4 1.3.2 release

  ==> Input File <==

--------------------------------------------------------------------------
#psi4
#
memory 32 gb

molecule  {
0 1
  O        0.8686370    -1.1285810     0.6753960
  N       -0.4170490     0.5891890    -0.1013730
  C       -1.6673534    -0.0731662     0.2501693
  C       -2.0872990    -1.0630810    -0.8349870
  C       -2.7390930     1.0113430     0.4650240
  C        0.7808810    -0.0406060     0.0960010
  C        1.9924560     0.7166710    -0.4292430
  C        3.2969670     0.0166800    -0.0788280
  H       -1.4931140    -0.5968520     1.1678280
  H       -0.4255680     1.3978653    -0.7168937
  H       -3.0167340    -1.5709650    -0.5578120
  H       -2.2433890    -0.5581650    -1.7943680
  H       -1.3035910    -1.8142070    -0.9546500
  H       -2.4287380     1.7063800     1.2494310
  H       -3.6863690     0.5519340     0.7608270
  H       -2.9190420     1.5806020    -0.4540200
  H        1.8890940     0.8204890    -1.5196510
  H        1.9757950     1.7355060    -0.0222730
  H        3.3123780    -0.9936500    -0.4915720
  H        4.1482470     0.5747890    -0.4771690
  H        3.4100600    -0.0687260     1.0041520
units angstrom
no_reorient  #important for SAPT in psi4, default
symmetry c1  #important for SAPT in psi4, default
}

set PROPERTIES_ORIGIN ["COM"]
properties('MP2/aug-cc-pvtz', properties = ['dipole'])
--------------------------------------------------------------------------

    Molecular point group: c1
  Charge       = 0
  Multiplicity = 1
  Basis Set: AUG-CC-PVTZ
    Blend: AUG-CC-PVTZ
  Basis Set: (AUG-CC-PVTZ AUX)
    Blend: AUG-CC-PVTZ-JKFIT

    Orbital Energies [Eh]
    ---------------------

    Doubly Occupied:

       1A    -20.513232     2A    -15.578338     3A    -11.344129
       4A    -11.264753     5A    -11.240258     6A    -11.223558
       7A    -11.213519     8A    -11.212501     9A     -1.367203
      10A     -1.228383    11A     -1.065212    12A     -1.028672
      13A     -0.937966    14A     -0.887549    15A     -0.811074
      16A     -0.777482    17A     -0.681881    18A     -0.656259
      19A     -0.635502    20A     -0.611508    21A     -0.593242
      22A     -0.577784    23A     -0.549156    24A     -0.545211
      25A     -0.525574    26A     -0.512829    27A     -0.509839
      28A     -0.498000    29A     -0.484649    30A     -0.480512
      31A     -0.416954    32A     -0.385563

  @DF-RHF Final Energy:  -364.24874916923221

   => Energetics <=

    Nuclear Repulsion Energy =            392.4690331161419863
    One-Electron Energy =               -1272.7189828880354980
    Two-Electron Energy =                 516.0012006026613562
    Total Energy =                       -364.2487491692321555
  Basis Set: (AUG-CC-PVTZ AUX)
    Blend: AUG-CC-PVTZ-RI
    Molecular point group: c1

    Geometry (in Angstrom), charge = 0, multiplicity = 1:

       Center              X                  Y                   Z               Mass
    ------------   -----------------  -----------------  -----------------  -----------------
         O            0.867161951572    -1.126840131642     0.673894047900    15.994914619570
         N           -0.418524048428     0.590929868358    -0.102874952100    14.003074004430
         C           -1.668828448428    -0.071425331642     0.248667347900    12.000000000000
         C           -2.088774048428    -1.061340131642    -0.836488952100    12.000000000000
         C           -2.740568048428     1.013083868358     0.463522047900    12.000000000000
         C            0.779405951572    -0.038865131642     0.094499047900    12.000000000000
         C            1.990980951572     0.718411868358    -0.430744952100    12.000000000000
         C            3.295491951572     0.018420868358    -0.080329952100    12.000000000000
         H           -1.494589048428    -0.595111131642     1.166326047900     1.007825032230
         H           -0.427043048428     1.399606168358    -0.718395652100     1.007825032230
         H           -3.018209048428    -1.569224131642    -0.559313952100     1.007825032230
         H           -2.244864048428    -0.556424131642    -1.795869952100     1.007825032230
         H           -1.305066048428    -1.812466131642    -0.956151952100     1.007825032230
         H           -2.430213048428     1.708120868358     1.247929047900     1.007825032230
         H           -3.687844048428     0.553674868358     0.759325047900     1.007825032230
         H           -2.920517048428     1.582342868358    -0.455521952100     1.007825032230
         H            1.887618951572     0.822229868358    -1.521152952100     1.007825032230
         H            1.974319951572     1.737246868358    -0.023774952100     1.007825032230
         H            3.310902951572    -0.991909131642    -0.493073952100     1.007825032230
         H            4.146771951572     0.576529868358    -0.478670952100     1.007825032230
         H            3.408584951572    -0.066985131642     1.002650047900     1.007825032230

  Basis Set: AUG-CC-PVTZ
    Blend: AUG-CC-PVTZ
  Basis Set: (AUG-CC-PVTZ AUX)
    Blend: AUG-CC-PVTZ-JKFIT
	 Reference Energy          =    -364.2487491692322124 [Eh]
	 Singles Energy            =      -0.0000000000000000 [Eh]
	 Same-Spin Energy          =      -0.3756254652726203 [Eh]
	 Opposite-Spin Energy      =      -1.2749900231122797 [Eh]
	 Correlation Energy        =      -1.6506154883849000 [Eh]
	 Total Energy              =    -365.8993646576171272 [Eh]

	 ================> DF-SCS-MP2 Energies <==================
	-----------------------------------------------------------
	 SCS Same-Spin Scale       =       0.3333333333333333 [-]
	 SCS Opposite-Spin Scale   =       1.2000000000000000 [-]
	 SCS Same-Spin Energy      =      -0.1252084884242067 [Eh]
	 SCS Opposite-Spin Energy  =      -1.5299880277347355 [Eh]
	 SCS Correlation Energy    =      -1.6551965161589424 [Eh]
	 SCS Total Energy          =    -365.9039456853911361 [Eh]
	-----------------------------------------------------------

  Dipole Moment: [D]
     X:    -1.2732      Y:     2.7210      Z:    -1.6400     Total:     3.4227

*** Psi4 exiting successfully. Buy a developer a beer!
