                               Psi4 1.3.2 release

  ==> Input File <==

--------------------------------------------------------------------------
#psi4
#
memory 32 gb

molecule  {
0 1
  O        0.8686370    -1.1285810     0.6753960
  N       -0.4170490     0.5891890    -0.1013730
  C       -1.6800190    -0.0563620     0.2358630
  C       -2.0338905    -0.9310652    -0.6945614
  C       -2.7390930     1.0113430     0.4650240
  C        0.7808810    -0.0406060     0.0960010
  C        1.9924560     0.7166710    -0.4292430
  C        3.2969670     0.0166800    -0.0788280
  H       -1.4931140    -0.5968520     1.1678280
  H       -0.4432210     1.3965910    -0.7180680
  H       -3.0167340    -1.5709650    -0.5578120
  H       -2.2433890    -0.5581650    -1.7943680
  H       -1.3035910    -1.8142070    -0.9546500
  H       -2.4287380     1.7063800     1.2494310
  H       -3.6863690     0.5519340     0.7608270
  H       -2.9190420     1.5806020    -0.4540200
  H        1.8890940     0.8204890    -1.5196510
  H        1.9757950     1.7355060    -0.0222730
  H        3.3123780    -0.9936500    -0.4915720
  H        4.1482470     0.5747890    -0.4771690
  H        3.4100600    -0.0687260     1.0041520
units angstrom
no_reorient  #important for SAPT in psi4, default
symmetry c1  #important for SAPT in psi4, default
}

set PROPERTIES_ORIGIN ["COM"]
properties('MP2/aug-cc-pvtz', properties = ['dipole'])
--------------------------------------------------------------------------

    Molecular point group: c1
  Charge       = 0
  Multiplicity = 1
  Basis Set: AUG-CC-PVTZ
    Blend: AUG-CC-PVTZ
  Basis Set: (AUG-CC-PVTZ AUX)
    Blend: AUG-CC-PVTZ-JKFIT

    Orbital Energies [Eh]
    ---------------------

    Doubly Occupied:

       1A    -20.513679     2A    -15.578349     3A    -11.345402
       4A    -11.255052     5A    -11.240459     6A    -11.226039
       7A    -11.224478     8A    -11.213595     9A     -1.367978
      10A     -1.237719    11A     -1.088228    12A     -1.038485
      13A     -0.944243    14A     -0.887036    15A     -0.802461
      16A     -0.780474    17A     -0.686308    18A     -0.662628
      19A     -0.645638    20A     -0.628156    21A     -0.596233
      22A     -0.582543    23A     -0.550885    24A     -0.541037
      25A     -0.522189    26A     -0.516550    27A     -0.512403
      28A     -0.487982    29A     -0.475351    30A     -0.447831
      31A     -0.415583    32A     -0.392742

  @DF-RHF Final Energy:  -364.19868574656431

   => Energetics <=

    Nuclear Repulsion Energy =            395.9833597017394595
    One-Electron Energy =               -1279.5486222778843057
    Two-Electron Energy =                 519.3665768295804810
    Total Energy =                       -364.1986857465643652
  Basis Set: (AUG-CC-PVTZ AUX)
    Blend: AUG-CC-PVTZ-RI
    Molecular point group: c1

    Geometry (in Angstrom), charge = 0, multiplicity = 1:

       Center              X                  Y                   Z               Mass
    ------------   -----------------  -----------------  -----------------  -----------------
         O            0.863068773161    -1.142344563980     0.660755456518    15.994914619570
         N           -0.422617226839     0.575425436020    -0.116013543482    14.003074004430
         C           -1.685587226839    -0.070125563980     0.221222456518    12.000000000000
         C           -2.039458726839    -0.944828763980    -0.709201943482    12.000000000000
         C           -2.744661226839     0.997579436020     0.450383456518    12.000000000000
         C            0.775312773161    -0.054369563980     0.081360456518    12.000000000000
         C            1.986887773161     0.702907436020    -0.443883543482    12.000000000000
         C            3.291398773161     0.002916436020    -0.093468543482    12.000000000000
         H           -1.498682226839    -0.610615563980     1.153187456518     1.007825032230
         H           -0.448789226839     1.382827436020    -0.732708543482     1.007825032230
         H           -3.022302226839    -1.584728563980    -0.572452543482     1.007825032230
         H           -2.248957226839    -0.571928563980    -1.809008543482     1.007825032230
         H           -1.309159226839    -1.827970563980    -0.969290543482     1.007825032230
         H           -2.434306226839     1.692616436020     1.234790456518     1.007825032230
         H           -3.691937226839     0.538170436020     0.746186456518     1.007825032230
         H           -2.924610226839     1.566838436020    -0.468660543482     1.007825032230
         H            1.883525773161     0.806725436020    -1.534291543482     1.007825032230
         H            1.970226773161     1.721742436020    -0.036913543482     1.007825032230
         H            3.306809773161    -1.007413563980    -0.506212543482     1.007825032230
         H            4.142678773161     0.561025436020    -0.491809543482     1.007825032230
         H            3.404491773161    -0.082489563980     0.989511456518     1.007825032230

  Basis Set: AUG-CC-PVTZ
    Blend: AUG-CC-PVTZ
  Basis Set: (AUG-CC-PVTZ AUX)
    Blend: AUG-CC-PVTZ-JKFIT
	 Reference Energy          =    -364.1986857465643084 [Eh]
	 Singles Energy            =      -0.0000000000000000 [Eh]
	 Same-Spin Energy          =      -0.3788103265460130 [Eh]
	 Opposite-Spin Energy      =      -1.2791896009552703 [Eh]
	 Correlation Energy        =      -1.6579999275012833 [Eh]
	 Total Energy              =    -365.8566856740656021 [Eh]

	 ================> DF-SCS-MP2 Energies <==================
	-----------------------------------------------------------
	 SCS Same-Spin Scale       =       0.3333333333333333 [-]
	 SCS Opposite-Spin Scale   =       1.2000000000000000 [-]
	 SCS Same-Spin Energy      =      -0.1262701088486710 [Eh]
	 SCS Opposite-Spin Energy  =      -1.5350275211463245 [Eh]
	 SCS Correlation Energy    =      -1.6612976299949955 [Eh]
	 SCS Total Energy          =    -365.8599833765592848 [Eh]
	-----------------------------------------------------------

  Dipole Moment: [D]
     X:    -1.2875      Y:     2.6738      Z:    -1.6354     Total:     3.3884

*** Psi4 exiting successfully. Buy a developer a beer!
