                               Psi4 1.4a3.dev225

  ==> Input File <==

--------------------------------------------------------------------------
#psi4
#
memory 32 gb

molecule  {
0 1
  O        0.8665680     1.1680080    -0.7351460
  N       -0.3660760    -0.5086790     0.1929010
  C       -1.6441200     0.0174450    -0.2761400
  C       -2.1412550     1.1442230     0.6252270
  C       -2.6427120    -1.1266550    -0.3840140
  C        0.7634247     0.1312987    -0.0214198
  C        2.0309430    -0.4326950     0.6540710
  C        3.2825740    -0.2523450    -0.1975960
  H       -1.4466230     0.4281070    -1.2709490
  H       -0.3785050    -1.2608410     0.8714320
  H       -3.0785860     1.5617170     0.2436050
  H       -2.3175770     0.7713190     1.6396860
  H       -1.3960540     1.9417130     0.6641920
  H       -2.2693050    -1.9092940    -1.0497770
  H       -3.5969080    -0.7634960    -0.7753550
  H       -2.8341330    -1.5678230     0.6011330
  H        2.1523320     0.0883960     1.6122110
  H        1.8656800    -1.4909910     0.8873090
  H        3.4076760     0.8004350    -0.4533700
  H        4.1701610    -0.5986810     0.3385000
  H        3.2011700    -0.8174180    -1.1296580
units angstrom
no_reorient  #important for SAPT in psi4, default
symmetry c1  #important for SAPT in psi4, default
}

set PROPERTIES_ORIGIN ["COM"]
properties('MP2/aug-cc-pvtz', properties = ['dipole'])
--------------------------------------------------------------------------

    Molecular point group: c1
  Charge       = 0
  Multiplicity = 1
  Basis Set: AUG-CC-PVTZ
    Blend: AUG-CC-PVTZ
  Basis Set: (AUG-CC-PVTZ AUX)
    Blend: AUG-CC-PVTZ-JKFIT

    Orbital Energies [Eh]
    ---------------------

    Doubly Occupied:

       1A    -20.501348     2A    -15.589338     3A    -11.341291
       4A    -11.270468     5A    -11.239000     6A    -11.228029
       7A    -11.215599     8A    -11.213348     9A     -1.352634
      10A     -1.240556    11A     -1.068641    12A     -1.030728
      13A     -0.943685    14A     -0.886287    15A     -0.815327
      16A     -0.793109    17A     -0.676171    18A     -0.661663
      19A     -0.627419    20A     -0.617584    21A     -0.587327
      22A     -0.577200    23A     -0.557001    24A     -0.548873
      25A     -0.527262    26A     -0.511343    27A     -0.506536
      28A     -0.496529    29A     -0.489372    30A     -0.474315
      31A     -0.407298    32A     -0.389189

  @DF-RHF Final Energy:  -364.24525743444167

   => Energetics <=

    Nuclear Repulsion Energy =            392.7250023267648658
    One-Electron Energy =               -1273.1715815486936663
    Two-Electron Energy =                 516.2013217874871316
    Total Energy =                       -364.2452574344416689
  Basis Set: (AUG-CC-PVTZ AUX)
    Blend: AUG-CC-PVTZ-RI
    Molecular point group: c1

    Geometry (in Angstrom), charge = 0, multiplicity = 1:

       Center              X                  Y                   Z               Mass
    ------------   -----------------  -----------------  -----------------  -----------------
         O            0.849362467131     1.146326973445    -0.717249841724    15.994914619570
         N           -0.383281532869    -0.530360026555     0.210797158276    14.003074004430
         C           -1.661325532869    -0.004236026555    -0.258243841724    12.000000000000
         C           -2.158460532869     1.122541973445     0.643123158276    12.000000000000
         C           -2.659917532869    -1.148336026555    -0.366117841724    12.000000000000
         C            0.746219167131     0.109617673445    -0.003523641724    12.000000000000
         C            2.013737467131    -0.454376026555     0.671967158276    12.000000000000
         C            3.265368467131    -0.274026026555    -0.179699841724    12.000000000000
         H           -1.463828532869     0.406425973445    -1.253052841724     1.007825032230
         H           -0.395710532869    -1.282522026555     0.889328158276     1.007825032230
         H           -3.095791532869     1.540035973445     0.261501158276     1.007825032230
         H           -2.334782532869     0.749637973445     1.657582158276     1.007825032230
         H           -1.413259532869     1.920031973445     0.682088158276     1.007825032230
         H           -2.286510532869    -1.930975026555    -1.031880841724     1.007825032230
         H           -3.614113532869    -0.785177026555    -0.757458841724     1.007825032230
         H           -2.851338532869    -1.589504026555     0.619029158276     1.007825032230
         H            2.135126467131     0.066714973445     1.630107158276     1.007825032230
         H            1.848474467131    -1.512672026555     0.905205158276     1.007825032230
         H            3.390470467131     0.778753973445    -0.435473841724     1.007825032230
         H            4.152955467131    -0.620362026555     0.356396158276     1.007825032230
         H            3.183964467131    -0.839099026555    -1.111761841724     1.007825032230

  Basis Set: AUG-CC-PVTZ
    Blend: AUG-CC-PVTZ
  Basis Set: (AUG-CC-PVTZ AUX)
    Blend: AUG-CC-PVTZ-JKFIT
	 Reference Energy          =    -364.2452574344416689 [Eh]
	 Singles Energy            =      -0.0000000000000000 [Eh]
	 Same-Spin Energy          =      -0.3761107765468884 [Eh]
	 Opposite-Spin Energy      =      -1.2757275716320327 [Eh]
	 Correlation Energy        =      -1.6518383481789209 [Eh]
	 Total Energy              =    -365.8970957826205677 [Eh]

	 ================> DF-SCS-MP2 Energies <==================
	-----------------------------------------------------------
	 SCS Same-Spin Scale       =       0.3333333333333333 [-]
	 SCS Opposite-Spin Scale   =       1.2000000000000000 [-]
	 SCS Same-Spin Energy      =      -0.1253702588489628 [Eh]
	 SCS Opposite-Spin Energy  =      -1.5308730859584392 [Eh]
	 SCS Correlation Energy    =      -1.6562433448074019 [Eh]
	 SCS Total Energy          =    -365.9015007792490906 [Eh]
	-----------------------------------------------------------

  Dipole Moment: [D]
     X:    -1.6717      Y:    -2.7940      Z:     1.9805     Total:     3.8109

*** Psi4 exiting successfully. Buy a developer a beer!
