                               Psi4 1.4a3.dev225

  ==> Input File <==

--------------------------------------------------------------------------
#psi4
#
memory 32 gb

molecule  {
0 1
  O        0.8665680     1.1680080    -0.7351460
  N       -0.3660760    -0.5086790     0.1929010
  C       -1.6441200     0.0174450    -0.2761400
  C       -2.1412550     1.1442230     0.6252270
  C       -2.6427120    -1.1266550    -0.3840140
  C        0.8063460     0.1556180    -0.0295640
  C        2.0309430    -0.4326950     0.6540710
  C        3.2825740    -0.2523450    -0.1975960
  H       -1.4466230     0.4281070    -1.2709490
  H       -0.3778916    -1.2237180     0.8379431
  H       -3.0785860     1.5617170     0.2436050
  H       -2.3175770     0.7713190     1.6396860
  H       -1.3960540     1.9417130     0.6641920
  H       -2.2693050    -1.9092940    -1.0497770
  H       -3.5969080    -0.7634960    -0.7753550
  H       -2.8341330    -1.5678230     0.6011330
  H        2.1523320     0.0883960     1.6122110
  H        1.8656800    -1.4909910     0.8873090
  H        3.4076760     0.8004350    -0.4533700
  H        4.1701610    -0.5986810     0.3385000
  H        3.2011700    -0.8174180    -1.1296580
units angstrom
no_reorient  #important for SAPT in psi4, default
symmetry c1  #important for SAPT in psi4, default
}

set PROPERTIES_ORIGIN ["COM"]
properties('MP2/aug-cc-pvtz', properties = ['dipole'])
--------------------------------------------------------------------------

    Molecular point group: c1
  Charge       = 0
  Multiplicity = 1
  Basis Set: AUG-CC-PVTZ
    Blend: AUG-CC-PVTZ
  Basis Set: (AUG-CC-PVTZ AUX)
    Blend: AUG-CC-PVTZ-JKFIT

    Orbital Energies [Eh]
    ---------------------

    Doubly Occupied:

       1A    -20.511068     2A    -15.575555     3A    -11.344531
       4A    -11.265936     5A    -11.240104     6A    -11.224670
       7A    -11.215914     8A    -11.212666     9A     -1.367055
      10A     -1.235155    11A     -1.067036    12A     -1.031600
      13A     -0.940487    14A     -0.888470    15A     -0.811794
      16A     -0.790112    17A     -0.682680    18A     -0.660460
      19A     -0.626441    20A     -0.617034    21A     -0.594600
      22A     -0.579218    23A     -0.556162    24A     -0.545632
      25A     -0.527041    26A     -0.514067    27A     -0.509658
      28A     -0.497380    29A     -0.487552    30A     -0.476466
      31A     -0.415400    32A     -0.387464

  @DF-RHF Final Energy:  -364.24924620299066

   => Energetics <=

    Nuclear Repulsion Energy =            392.8469352058707500
    One-Electron Energy =               -1273.3935410813126055
    Two-Electron Energy =                 516.2973596724511935
    Total Energy =                       -364.2492462029906619
  Basis Set: (AUG-CC-PVTZ AUX)
    Blend: AUG-CC-PVTZ-RI
    Molecular point group: c1

    Geometry (in Angstrom), charge = 0, multiplicity = 1:

       Center              X                  Y                   Z               Mass
    ------------   -----------------  -----------------  -----------------  -----------------
         O            0.844882231849     1.143466452970    -0.716107516109    15.994914619570
         N           -0.387761768151    -0.533220547030     0.211939483891    14.003074004430
         C           -1.665805768151    -0.007096547030    -0.257101516109    12.000000000000
         C           -2.162940768151     1.119681452970     0.644265483891    12.000000000000
         C           -2.664397768151    -1.151196547030    -0.364975516109    12.000000000000
         C            0.784660231849     0.131076452970    -0.010525516109    12.000000000000
         C            2.009257231849    -0.457236547030     0.673109483891    12.000000000000
         C            3.260888231849    -0.276886547030    -0.178557516109    12.000000000000
         H           -1.468308768151     0.403565452970    -1.251910516109     1.007825032230
         H           -0.399577368151    -1.248259547030     0.856981583891     1.007825032230
         H           -3.100271768151     1.537175452970     0.262643483891     1.007825032230
         H           -2.339262768151     0.746777452970     1.658724483891     1.007825032230
         H           -1.417739768151     1.917171452970     0.683230483891     1.007825032230
         H           -2.290990768151    -1.933835547030    -1.030738516109     1.007825032230
         H           -3.618593768151    -0.788037547030    -0.756316516109     1.007825032230
         H           -2.855818768151    -1.592364547030     0.620171483891     1.007825032230
         H            2.130646231849     0.063854452970     1.631249483891     1.007825032230
         H            1.843994231849    -1.515532547030     0.906347483891     1.007825032230
         H            3.385990231849     0.775893452970    -0.434331516109     1.007825032230
         H            4.148475231849    -0.623222547030     0.357538483891     1.007825032230
         H            3.179484231849    -0.841959547030    -1.110619516109     1.007825032230

  Basis Set: AUG-CC-PVTZ
    Blend: AUG-CC-PVTZ
  Basis Set: (AUG-CC-PVTZ AUX)
    Blend: AUG-CC-PVTZ-JKFIT
	 Reference Energy          =    -364.2492462029906619 [Eh]
	 Singles Energy            =      -0.0000000000000000 [Eh]
	 Same-Spin Energy          =      -0.3754402711253444 [Eh]
	 Opposite-Spin Energy      =      -1.2743127135553998 [Eh]
	 Correlation Energy        =      -1.6497529846807442 [Eh]
	 Total Energy              =    -365.8989991876713930 [Eh]

	 ================> DF-SCS-MP2 Energies <==================
	-----------------------------------------------------------
	 SCS Same-Spin Scale       =       0.3333333333333333 [-]
	 SCS Opposite-Spin Scale   =       1.2000000000000000 [-]
	 SCS Same-Spin Energy      =      -0.1251467570417815 [Eh]
	 SCS Opposite-Spin Energy  =      -1.5291752562664798 [Eh]
	 SCS Correlation Energy    =      -1.6543220133082612 [Eh]
	 SCS Total Energy          =    -365.9035682162989360 [Eh]
	-----------------------------------------------------------

  Dipole Moment: [D]
     X:    -1.2641      Y:    -2.5772      Z:     1.8800     Total:     3.4314

*** Psi4 exiting successfully. Buy a developer a beer!
