                               Psi4 1.3.2 release

  ==> Input File <==

--------------------------------------------------------------------------
#psi4
#
memory 32 gb

molecule  {
0 1
  O        0.8686370    -1.1285810     0.6753960
  N       -0.4170490     0.5891890    -0.1013730
  C       -1.6800190    -0.0563620     0.2358630
  C       -2.0872990    -1.0630810    -0.8349870
  C       -2.7390930     1.0113430     0.4650240
  C        0.8008674    -0.0366801     0.1450760
  C        1.9924560     0.7166710    -0.4292430
  C        3.2969670     0.0166800    -0.0788280
  H       -1.4931140    -0.5968520     1.1678280
  H       -0.4432210     1.3965910    -0.7180680
  H       -3.0167340    -1.5709650    -0.5578120
  H       -2.2433890    -0.5581650    -1.7943680
  H       -1.3035910    -1.8142070    -0.9546500
  H       -2.4287380     1.7063800     1.2494310
  H       -3.6863690     0.5519340     0.7608270
  H       -2.9190420     1.5806020    -0.4540200
  H        1.9225403     0.8393466    -1.5203498
  H        1.9757950     1.7355060    -0.0222730
  H        3.3123780    -0.9936500    -0.4915720
  H        4.1482470     0.5747890    -0.4771690
  H        3.4100600    -0.0687260     1.0041520
units angstrom
no_reorient  #important for SAPT in psi4, default
symmetry c1  #important for SAPT in psi4, default
}

set PROPERTIES_ORIGIN ["COM"]
properties('MP2/aug-cc-pvtz', properties = ['dipole'])
--------------------------------------------------------------------------

    Molecular point group: c1
  Charge       = 0
  Multiplicity = 1
  Basis Set: AUG-CC-PVTZ
    Blend: AUG-CC-PVTZ
  Basis Set: (AUG-CC-PVTZ AUX)
    Blend: AUG-CC-PVTZ-JKFIT

    Orbital Energies [Eh]
    ---------------------

    Doubly Occupied:

       1A    -20.519533     2A    -15.573399     3A    -11.346577
       4A    -11.262710     5A    -11.240287     6A    -11.221623
       7A    -11.213806     8A    -11.210886     9A     -1.380699
      10A     -1.222540    11A     -1.064713    12A     -1.028107
      13A     -0.938057    14A     -0.886289    15A     -0.805105
      16A     -0.774188    17A     -0.686871    18A     -0.652265
      19A     -0.634410    20A     -0.611833    21A     -0.600520
      22A     -0.577414    23A     -0.548272    24A     -0.543762
      25A     -0.526847    26A     -0.515867    27A     -0.508086
      28A     -0.495519    29A     -0.488459    30A     -0.478302
      31A     -0.420322    32A     -0.383266

  @DF-RHF Final Energy:  -364.24792785537386

   => Energetics <=

    Nuclear Repulsion Energy =            392.3746406346161848
    One-Electron Energy =               -1272.5240660960121204
    Two-Electron Energy =                 515.9014976060220761
    Total Energy =                       -364.2479278553738595
  Basis Set: (AUG-CC-PVTZ AUX)
    Blend: AUG-CC-PVTZ-RI
    Molecular point group: c1

    Geometry (in Angstrom), charge = 0, multiplicity = 1:

       Center              X                  Y                   Z               Mass
    ------------   -----------------  -----------------  -----------------  -----------------
         O            0.866260416030    -1.129155359721     0.670285553766    15.994914619570
         N           -0.419425583970     0.588614640279    -0.106483446234    14.003074004430
         C           -1.682395583970    -0.056936359721     0.230752553766    12.000000000000
         C           -2.089675583970    -1.063655359721    -0.840097446234    12.000000000000
         C           -2.741469583970     1.010768640279     0.459913553766    12.000000000000
         C            0.798490816030    -0.037254459721     0.139965553766    12.000000000000
         C            1.990079416030     0.716096640279    -0.434353446234    12.000000000000
         C            3.294590416030     0.016105640279    -0.083938446234    12.000000000000
         H           -1.495490583970    -0.597426359721     1.162717553766     1.007825032230
         H           -0.445597583970     1.396016640279    -0.723178446234     1.007825032230
         H           -3.019110583970    -1.571539359721    -0.562922446234     1.007825032230
         H           -2.245765583970    -0.558739359721    -1.799478446234     1.007825032230
         H           -1.305967583970    -1.814781359721    -0.959760446234     1.007825032230
         H           -2.431114583970     1.705805640279     1.244320553766     1.007825032230
         H           -3.688745583970     0.551359640279     0.755716553766     1.007825032230
         H           -2.921418583970     1.580027640279    -0.459130446234     1.007825032230
         H            1.920163716030     0.838772240279    -1.525460246234     1.007825032230
         H            1.973418416030     1.734931640279    -0.027383446234     1.007825032230
         H            3.310001416030    -0.994224359721    -0.496682446234     1.007825032230
         H            4.145870416030     0.574214640279    -0.482279446234     1.007825032230
         H            3.407683416030    -0.069300359721     0.999041553766     1.007825032230

  Basis Set: AUG-CC-PVTZ
    Blend: AUG-CC-PVTZ
  Basis Set: (AUG-CC-PVTZ AUX)
    Blend: AUG-CC-PVTZ-JKFIT
	 Reference Energy          =    -364.2479278553738595 [Eh]
	 Singles Energy            =      -0.0000000000000000 [Eh]
	 Same-Spin Energy          =      -0.3755109176071670 [Eh]
	 Opposite-Spin Energy      =      -1.2747372038010307 [Eh]
	 Correlation Energy        =      -1.6502481214081977 [Eh]
	 Total Energy              =    -365.8981759767820563 [Eh]

	 ================> DF-SCS-MP2 Energies <==================
	-----------------------------------------------------------
	 SCS Same-Spin Scale       =       0.3333333333333333 [-]
	 SCS Opposite-Spin Scale   =       1.2000000000000000 [-]
	 SCS Same-Spin Energy      =      -0.1251703058690556 [Eh]
	 SCS Opposite-Spin Energy  =      -1.5296846445612369 [Eh]
	 SCS Correlation Energy    =      -1.6548549504302925 [Eh]
	 SCS Total Energy          =    -365.9027828058041791 [Eh]
	-----------------------------------------------------------

  Dipole Moment: [D]
     X:    -1.1067      Y:     2.6221      Z:    -1.5663     Total:     3.2486

*** Psi4 exiting successfully. Buy a developer a beer!
