                               Psi4 1.3.2 release

  ==> Input File <==

--------------------------------------------------------------------------
#psi4
#
memory 32 gb

molecule  {
0 1
  O        0.8686370    -1.1285810     0.6753960
  N       -0.4170490     0.5891890    -0.1013730
  C       -1.8532743    -0.1449193     0.2821253
  C       -2.0872990    -1.0630810    -0.8349870
  C       -2.7390930     1.0113430     0.4650240
  C        0.7808810    -0.0406060     0.0960010
  C        1.9924560     0.7166710    -0.4292430
  C        3.2969670     0.0166800    -0.0788280
  H       -1.4931140    -0.5968520     1.1678280
  H       -0.4432210     1.3965910    -0.7180680
  H       -3.0167340    -1.5709650    -0.5578120
  H       -2.2433890    -0.5581650    -1.7943680
  H       -1.3035910    -1.8142070    -0.9546500
  H       -2.4287380     1.7063800     1.2494310
  H       -3.6863690     0.5519340     0.7608270
  H       -2.9190420     1.5806020    -0.4540200
  H        1.8890940     0.8204890    -1.5196510
  H        1.9757950     1.7355060    -0.0222730
  H        3.3123780    -0.9936500    -0.4915720
  H        4.1482470     0.5747890    -0.4771690
  H        3.4100600    -0.0687260     1.0041520
units angstrom
no_reorient  #important for SAPT in psi4, default
symmetry c1  #important for SAPT in psi4, default
}

set PROPERTIES_ORIGIN ["COM"]
properties('MP2/aug-cc-pvtz', properties = ['dipole'])
--------------------------------------------------------------------------

    Molecular point group: c1
  Charge       = 0
  Multiplicity = 1
  Basis Set: AUG-CC-PVTZ
    Blend: AUG-CC-PVTZ
  Basis Set: (AUG-CC-PVTZ AUX)
    Blend: AUG-CC-PVTZ-JKFIT

    Orbital Energies [Eh]
    ---------------------

    Doubly Occupied:

       1A    -20.502794     2A    -15.560731     3A    -11.333527
       4A    -11.279495     5A    -11.232498     6A    -11.229639
       7A    -11.220169     8A    -11.207953     9A     -1.354375
      10A     -1.191813    11A     -1.079170    12A     -1.031240
      13A     -0.958337    14A     -0.873811    15A     -0.805849
      16A     -0.757900    17A     -0.675058    18A     -0.642496
      19A     -0.632967    20A     -0.625404    21A     -0.589029
      22A     -0.580510    23A     -0.557740    24A     -0.538659
      25A     -0.525715    26A     -0.516788    27A     -0.506883
      28A     -0.504770    29A     -0.480001    30A     -0.469647
      31A     -0.402540    32A     -0.378748

  @DF-RHF Final Energy:  -364.21863253393684

   => Energetics <=

    Nuclear Repulsion Energy =            390.4427362518224527
    One-Electron Energy =               -1268.8302257651350828
    Two-Electron Energy =                 514.1688569793757324
    Total Energy =                       -364.2186325339368977
  Basis Set: (AUG-CC-PVTZ AUX)
    Blend: AUG-CC-PVTZ-RI
    Molecular point group: c1

    Geometry (in Angstrom), charge = 0, multiplicity = 1:

       Center              X                  Y                   Z               Mass
    ------------   -----------------  -----------------  -----------------  -----------------
         O            0.886700157675    -1.119348180175     0.670572679865    15.994914619570
         N           -0.398985842325     0.598421819825    -0.106196320135    14.003074004430
         C           -1.835211142325    -0.135686480175     0.277301979865    12.000000000000
         C           -2.069235842325    -1.053848180175    -0.839810320135    12.000000000000
         C           -2.721029842325     1.020575819825     0.460200679865    12.000000000000
         C            0.798944157675    -0.031373180175     0.091177679865    12.000000000000
         C            2.010519157675     0.725903819825    -0.434066320135    12.000000000000
         C            3.315030157675     0.025912819825    -0.083651320135    12.000000000000
         H           -1.475050842325    -0.587619180175     1.163004679865     1.007825032230
         H           -0.425157842325     1.405823819825    -0.722891320135     1.007825032230
         H           -2.998670842325    -1.561732180175    -0.562635320135     1.007825032230
         H           -2.225325842325    -0.548932180175    -1.799191320135     1.007825032230
         H           -1.285527842325    -1.804974180175    -0.959473320135     1.007825032230
         H           -2.410674842325     1.715612819825     1.244607679865     1.007825032230
         H           -3.668305842325     0.561166819825     0.756003679865     1.007825032230
         H           -2.900978842325     1.589834819825    -0.458843320135     1.007825032230
         H            1.907157157675     0.829721819825    -1.524474320135     1.007825032230
         H            1.993858157675     1.744738819825    -0.027096320135     1.007825032230
         H            3.330441157675    -0.984417180175    -0.496395320135     1.007825032230
         H            4.166310157675     0.584021819825    -0.481992320135     1.007825032230
         H            3.428123157675    -0.059493180175     0.999328679865     1.007825032230

  Basis Set: AUG-CC-PVTZ
    Blend: AUG-CC-PVTZ
  Basis Set: (AUG-CC-PVTZ AUX)
    Blend: AUG-CC-PVTZ-JKFIT
	 Reference Energy          =    -364.2186325339368409 [Eh]
	 Singles Energy            =      -0.0000000000000000 [Eh]
	 Same-Spin Energy          =      -0.3767863774086265 [Eh]
	 Opposite-Spin Energy      =      -1.2775198589147736 [Eh]
	 Correlation Energy        =      -1.6543062363234000 [Eh]
	 Total Energy              =    -365.8729387702602480 [Eh]

	 ================> DF-SCS-MP2 Energies <==================
	-----------------------------------------------------------
	 SCS Same-Spin Scale       =       0.3333333333333333 [-]
	 SCS Opposite-Spin Scale   =       1.2000000000000000 [-]
	 SCS Same-Spin Energy      =      -0.1255954591362088 [Eh]
	 SCS Opposite-Spin Energy  =      -1.5330238306977282 [Eh]
	 SCS Correlation Energy    =      -1.6586192898339371 [Eh]
	 SCS Total Energy          =    -365.8772518237707914 [Eh]
	-----------------------------------------------------------

  Dipole Moment: [D]
     X:    -2.0270      Y:     2.5939      Z:    -1.6464     Total:     3.6807

*** Psi4 exiting successfully. Buy a developer a beer!
