                               Psi4 1.3.2 release

  ==> Input File <==

--------------------------------------------------------------------------
#psi4
#
memory 32 gb

molecule  {
0 1
  O        0.8686370    -1.1285810     0.6753960
  N       -0.4170490     0.5891890    -0.1013730
  C       -1.6543070    -0.0897685     0.2643684
  C       -2.0872990    -1.0630810    -0.8349870
  C       -2.7390930     1.0113430     0.4650240
  C        0.7808810    -0.0406060     0.0960010
  C        1.9924560     0.7166710    -0.4292430
  C        3.2969670     0.0166800    -0.0788280
  H       -1.4931140    -0.5968520     1.1678280
  H       -0.4079125     1.3988934    -0.7155318
  H       -3.0167340    -1.5709650    -0.5578120
  H       -2.2433890    -0.5581650    -1.7943680
  H       -1.3035910    -1.8142070    -0.9546500
  H       -2.4287380     1.7063800     1.2494310
  H       -3.6863690     0.5519340     0.7608270
  H       -2.9190420     1.5806020    -0.4540200
  H        1.8890940     0.8204890    -1.5196510
  H        1.9757950     1.7355060    -0.0222730
  H        3.3123780    -0.9936500    -0.4915720
  H        4.1482470     0.5747890    -0.4771690
  H        3.4100600    -0.0687260     1.0041520
units angstrom
no_reorient  #important for SAPT in psi4, default
symmetry c1  #important for SAPT in psi4, default
}

set PROPERTIES_ORIGIN ["COM"]
properties('MP2/aug-cc-pvtz', properties = ['dipole'])
--------------------------------------------------------------------------

    Molecular point group: c1
  Charge       = 0
  Multiplicity = 1
  Basis Set: AUG-CC-PVTZ
    Blend: AUG-CC-PVTZ
  Basis Set: (AUG-CC-PVTZ AUX)
    Blend: AUG-CC-PVTZ-JKFIT

    Orbital Energies [Eh]
    ---------------------

    Doubly Occupied:

       1A    -20.513032     2A    -15.578413     3A    -11.343415
       4A    -11.264728     5A    -11.240256     6A    -11.223637
       7A    -11.213562     8A    -11.212581     9A     -1.367307
      10A     -1.228211    11A     -1.064404    12A     -1.027541
      13A     -0.936025    14A     -0.887294    15A     -0.814373
      16A     -0.776467    17A     -0.681450    18A     -0.659418
      19A     -0.635586    20A     -0.609174    21A     -0.593122
      22A     -0.577448    23A     -0.548459    24A     -0.545001
      25A     -0.525629    26A     -0.513135    27A     -0.510651
      28A     -0.500517    29A     -0.482603    30A     -0.480003
      31A     -0.416679    32A     -0.385167

  @DF-RHF Final Energy:  -364.24650961519120

   => Energetics <=

    Nuclear Repulsion Energy =            392.4435510032264460
    One-Electron Energy =               -1272.6695480281969139
    Two-Electron Energy =                 515.9794874097792672
    Total Energy =                       -364.2465096151911439
  Basis Set: (AUG-CC-PVTZ AUX)
    Blend: AUG-CC-PVTZ-RI
    Molecular point group: c1

    Geometry (in Angstrom), charge = 0, multiplicity = 1:

       Center              X                  Y                   Z               Mass
    ------------   -----------------  -----------------  -----------------  -----------------
         O            0.865647174092    -1.125118220717     0.672401761335    15.994914619570
         N           -0.420038825908     0.592651779283    -0.104367238665    14.003074004430
         C           -1.657296825908    -0.086305720717     0.261374161335    12.000000000000
         C           -2.090288825908    -1.059618220717    -0.837981238665    12.000000000000
         C           -2.742082825908     1.014805779283     0.462029761335    12.000000000000
         C            0.777891174092    -0.037143220717     0.093006761335    12.000000000000
         C            1.989466174092     0.720133779283    -0.432237238665    12.000000000000
         C            3.293977174092     0.020142779283    -0.081822238665    12.000000000000
         H           -1.496103825908    -0.593389220717     1.164833761335     1.007825032230
         H           -0.410902325908     1.402356179283    -0.718526038665     1.007825032230
         H           -3.019723825908    -1.567502220717    -0.560806238665     1.007825032230
         H           -2.246378825908    -0.554702220717    -1.797362238665     1.007825032230
         H           -1.306580825908    -1.810744220717    -0.957644238665     1.007825032230
         H           -2.431727825908     1.709842779283     1.246436761335     1.007825032230
         H           -3.689358825908     0.555396779283     0.757832761335     1.007825032230
         H           -2.922031825908     1.584064779283    -0.457014238665     1.007825032230
         H            1.886104174092     0.823951779283    -1.522645238665     1.007825032230
         H            1.972805174092     1.738968779283    -0.025267238665     1.007825032230
         H            3.309388174092    -0.990187220717    -0.494566238665     1.007825032230
         H            4.145257174092     0.578251779283    -0.480163238665     1.007825032230
         H            3.407070174092    -0.065263220717     1.001157761335     1.007825032230

  Basis Set: AUG-CC-PVTZ
    Blend: AUG-CC-PVTZ
  Basis Set: (AUG-CC-PVTZ AUX)
    Blend: AUG-CC-PVTZ-JKFIT
	 Reference Energy          =    -364.2465096151912007 [Eh]
	 Singles Energy            =      -0.0000000000000000 [Eh]
	 Same-Spin Energy          =      -0.3755220315271013 [Eh]
	 Opposite-Spin Energy      =      -1.2749377408656284 [Eh]
	 Correlation Energy        =      -1.6504597723927297 [Eh]
	 Total Energy              =    -365.8969693875839084 [Eh]

	 ================> DF-SCS-MP2 Energies <==================
	-----------------------------------------------------------
	 SCS Same-Spin Scale       =       0.3333333333333333 [-]
	 SCS Opposite-Spin Scale   =       1.2000000000000000 [-]
	 SCS Same-Spin Energy      =      -0.1251740105090338 [Eh]
	 SCS Opposite-Spin Energy  =      -1.5299252890387540 [Eh]
	 SCS Correlation Energy    =      -1.6550992995477878 [Eh]
	 SCS Total Energy          =    -365.9016089147389721 [Eh]
	-----------------------------------------------------------

  Dipole Moment: [D]
     X:    -1.2514      Y:     2.7154      Z:    -1.6389     Total:     3.4096

*** Psi4 exiting successfully. Buy a developer a beer!
