                               Psi4 1.3.2 release

  ==> Input File <==

--------------------------------------------------------------------------
#psi4
#
memory 32 gb

molecule  {
0 1
  O        0.8686370    -1.1285810     0.6753960
  N       -0.4170490     0.5891890    -0.1013730
  C       -1.6800190    -0.0563620     0.2358630
  C       -2.0872990    -1.0630810    -0.8349870
  C       -2.7390930     1.0113430     0.4650240
  C        0.8306248    -0.0950820     0.1261569
  C        1.9924560     0.7166710    -0.4292430
  C        3.2543865    -0.0398494    -0.0422864
  H       -1.4931140    -0.5968520     1.1678280
  H       -0.4432210     1.3965910    -0.7180680
  H       -3.0167340    -1.5709650    -0.5578120
  H       -2.2433890    -0.5581650    -1.7943680
  H       -1.3035910    -1.8142070    -0.9546500
  H       -2.4287380     1.7063800     1.2494310
  H       -3.6863690     0.5519340     0.7608270
  H       -2.9190420     1.5806020    -0.4540200
  H        1.8890940     0.8204890    -1.5196510
  H        1.9757950     1.7355060    -0.0222730
  H        3.3123780    -0.9936500    -0.4915720
  H        4.1482470     0.5747890    -0.4771690
  H        3.4100600    -0.0687260     1.0041520
units angstrom
no_reorient  #important for SAPT in psi4, default
symmetry c1  #important for SAPT in psi4, default
}

set PROPERTIES_ORIGIN ["COM"]
properties('MP2/aug-cc-pvtz', properties = ['dipole'])
--------------------------------------------------------------------------

    Molecular point group: c1
  Charge       = 0
  Multiplicity = 1
  Basis Set: AUG-CC-PVTZ
    Blend: AUG-CC-PVTZ
  Basis Set: (AUG-CC-PVTZ AUX)
    Blend: AUG-CC-PVTZ-JKFIT

    Orbital Energies [Eh]
    ---------------------

    Doubly Occupied:

       1A    -20.530962     2A    -15.561919     3A    -11.345337
       4A    -11.257451     5A    -11.241463     6A    -11.217961
       7A    -11.216741     8A    -11.208187     9A     -1.414723
      10A     -1.208790    11A     -1.064181    12A     -1.023156
      13A     -0.934827    14A     -0.884981    15A     -0.799252
      16A     -0.764370    17A     -0.692025    18A     -0.652505
      19A     -0.642865    20A     -0.611212    21A     -0.607984
      22A     -0.578241    23A     -0.547907    24A     -0.540919
      25A     -0.533669    26A     -0.516906    27A     -0.506124
      28A     -0.497715    29A     -0.492159    30A     -0.477493
      31A     -0.418073    32A     -0.378039

  @DF-RHF Final Energy:  -364.23634492872014

   => Energetics <=

    Nuclear Repulsion Energy =            393.0754619562817425
    One-Electron Energy =               -1273.8873408444596862
    Two-Electron Energy =                 516.5755339594578572
    Total Energy =                       -364.2363449287200865
  Basis Set: (AUG-CC-PVTZ AUX)
    Blend: AUG-CC-PVTZ-RI
    Molecular point group: c1

    Geometry (in Angstrom), charge = 0, multiplicity = 1:

       Center              X                  Y                   Z               Mass
    ------------   -----------------  -----------------  -----------------  -----------------
         O            0.867890178710    -1.117007799035     0.668442158499    15.994914619570
         N           -0.417795821290     0.600762200965    -0.108326841501    14.003074004430
         C           -1.680765821290    -0.044788799035     0.228909158499    12.000000000000
         C           -2.088045821290    -1.051507799035    -0.841940841501    12.000000000000
         C           -2.739839821290     1.022916200965     0.458070158499    12.000000000000
         C            0.829877978710    -0.083508799035     0.119203058499    12.000000000000
         C            1.991709178710     0.728244200965    -0.436196841501    12.000000000000
         C            3.253639678710    -0.028276199035    -0.049240241501    12.000000000000
         H           -1.493860821290    -0.585278799035     1.160874158499     1.007825032230
         H           -0.443967821290     1.408164200965    -0.725021841501     1.007825032230
         H           -3.017480821290    -1.559391799035    -0.564765841501     1.007825032230
         H           -2.244135821290    -0.546591799035    -1.801321841501     1.007825032230
         H           -1.304337821290    -1.802633799035    -0.961603841501     1.007825032230
         H           -2.429484821290     1.717953200965     1.242477158499     1.007825032230
         H           -3.687115821290     0.563507200965     0.753873158499     1.007825032230
         H           -2.919788821290     1.592175200965    -0.460973841501     1.007825032230
         H            1.888347178710     0.832062200965    -1.526604841501     1.007825032230
         H            1.975048178710     1.747079200965    -0.029226841501     1.007825032230
         H            3.311631178710    -0.982076799035    -0.498525841501     1.007825032230
         H            4.147500178710     0.586362200965    -0.484122841501     1.007825032230
         H            3.409313178710    -0.057152799035     0.997198158499     1.007825032230

  Basis Set: AUG-CC-PVTZ
    Blend: AUG-CC-PVTZ
  Basis Set: (AUG-CC-PVTZ AUX)
    Blend: AUG-CC-PVTZ-JKFIT
	 Reference Energy          =    -364.2363449287201433 [Eh]
	 Singles Energy            =      -0.0000000000000000 [Eh]
	 Same-Spin Energy          =      -0.3749518128298231 [Eh]
	 Opposite-Spin Energy      =      -1.2737638976466559 [Eh]
	 Correlation Energy        =      -1.6487157104764789 [Eh]
	 Total Energy              =    -365.8850606391966380 [Eh]

	 ================> DF-SCS-MP2 Energies <==================
	-----------------------------------------------------------
	 SCS Same-Spin Scale       =       0.3333333333333333 [-]
	 SCS Opposite-Spin Scale   =       1.2000000000000000 [-]
	 SCS Same-Spin Energy      =      -0.1249839376099410 [Eh]
	 SCS Opposite-Spin Energy  =      -1.5285166771759870 [Eh]
	 SCS Correlation Energy    =      -1.6535006147859281 [Eh]
	 SCS Total Energy          =    -365.8898455435060555 [Eh]
	-----------------------------------------------------------

  Dipole Moment: [D]
     X:    -0.7313      Y:     2.3110      Z:    -1.4412     Total:     2.8200

*** Psi4 exiting successfully. Buy a developer a beer!
