                               Psi4 1.3.2 release

  ==> Input File <==

--------------------------------------------------------------------------
#psi4
#
memory 32 gb

molecule  {
0 1
  O        0.8686370    -1.1285810     0.6753960
  N       -0.4170490     0.5891890    -0.1013730
  C       -1.6373294    -0.0439096     0.2065968
  C       -2.0872990    -1.0630810    -0.8349870
  C       -2.7390930     1.0113430     0.4650240
  C        0.7808810    -0.0406060     0.0960010
  C        1.9924560     0.7166710    -0.4292430
  C        3.2969670     0.0166800    -0.0788280
  H       -1.4931140    -0.5968520     1.1678280
  H       -0.4432210     1.3965910    -0.7180680
  H       -3.0147592    -1.5909010    -0.5903541
  H       -2.2433890    -0.5581650    -1.7943680
  H       -1.3035910    -1.8142070    -0.9546500
  H       -2.4287380     1.7063800     1.2494310
  H       -3.6863690     0.5519340     0.7608270
  H       -2.9190420     1.5806020    -0.4540200
  H        1.8890940     0.8204890    -1.5196510
  H        1.9757950     1.7355060    -0.0222730
  H        3.3123780    -0.9936500    -0.4915720
  H        4.1482470     0.5747890    -0.4771690
  H        3.4100600    -0.0687260     1.0041520
units angstrom
no_reorient  #important for SAPT in psi4, default
symmetry c1  #important for SAPT in psi4, default
}

set PROPERTIES_ORIGIN ["COM"]
properties('MP2/aug-cc-pvtz', properties = ['dipole'])
--------------------------------------------------------------------------

    Molecular point group: c1
  Charge       = 0
  Multiplicity = 1
  Basis Set: AUG-CC-PVTZ
    Blend: AUG-CC-PVTZ
  Basis Set: (AUG-CC-PVTZ AUX)
    Blend: AUG-CC-PVTZ-JKFIT

    Orbital Energies [Eh]
    ---------------------

    Doubly Occupied:

       1A    -20.516217     2A    -15.581247     3A    -11.347417
       4A    -11.264076     5A    -11.242014     6A    -11.222741
       7A    -11.214715     8A    -11.210920     9A     -1.370826
      10A     -1.240677    11A     -1.065316    12A     -1.027447
      13A     -0.937151    14A     -0.892210    15A     -0.810186
      16A     -0.782972    17A     -0.684429    18A     -0.655733
      19A     -0.638298    20A     -0.612649    21A     -0.595641
      22A     -0.579204    23A     -0.551904    24A     -0.542275
      25A     -0.526030    26A     -0.516212    27A     -0.513908
      28A     -0.495322    29A     -0.482631    30A     -0.468200
      31A     -0.420518    32A     -0.386106

  @DF-RHF Final Energy:  -364.24571515340472

   => Energetics <=

    Nuclear Repulsion Energy =            393.0667025858423358
    One-Electron Energy =               -1273.8344488514437671
    Two-Electron Energy =                 516.5220311121967143
    Total Energy =                       -364.2457151534047171
  Basis Set: (AUG-CC-PVTZ AUX)
    Blend: AUG-CC-PVTZ-RI
    Molecular point group: c1

    Geometry (in Angstrom), charge = 0, multiplicity = 1:

       Center              X                  Y                   Z               Mass
    ------------   -----------------  -----------------  -----------------  -----------------
         O            0.864169006538    -1.129704629885     0.678732028920    15.994914619570
         N           -0.421516993462     0.588065370115    -0.098036971080    14.003074004430
         C           -1.641797393462    -0.045033229885     0.209932828920    12.000000000000
         C           -2.091766993462    -1.064204629885    -0.831650971080    12.000000000000
         C           -2.743560993462     1.010219370115     0.468360028920    12.000000000000
         C            0.776413006538    -0.041729629885     0.099337028920    12.000000000000
         C            1.987988006538     0.715547370115    -0.425906971080    12.000000000000
         C            3.292499006538     0.015556370115    -0.075491971080    12.000000000000
         H           -1.497581993462    -0.597975629885     1.171164028920     1.007825032230
         H           -0.447688993462     1.395467370115    -0.714731971080     1.007825032230
         H           -3.019227193462    -1.592024629885    -0.587018071080     1.007825032230
         H           -2.247856993462    -0.559288629885    -1.791031971080     1.007825032230
         H           -1.308058993462    -1.815330629885    -0.951313971080     1.007825032230
         H           -2.433205993462     1.705256370115     1.252767028920     1.007825032230
         H           -3.690836993462     0.550810370115     0.764163028920     1.007825032230
         H           -2.923509993462     1.579478370115    -0.450683971080     1.007825032230
         H            1.884626006538     0.819365370115    -1.516314971080     1.007825032230
         H            1.971327006538     1.734382370115    -0.018936971080     1.007825032230
         H            3.307910006538    -0.994773629885    -0.488235971080     1.007825032230
         H            4.143779006538     0.573665370115    -0.473832971080     1.007825032230
         H            3.405592006538    -0.069849629885     1.007488028920     1.007825032230

  Basis Set: AUG-CC-PVTZ
    Blend: AUG-CC-PVTZ
  Basis Set: (AUG-CC-PVTZ AUX)
    Blend: AUG-CC-PVTZ-JKFIT
	 Reference Energy          =    -364.2457151534047171 [Eh]
	 Singles Energy            =      -0.0000000000000000 [Eh]
	 Same-Spin Energy          =      -0.3760735709462799 [Eh]
	 Opposite-Spin Energy      =      -1.2754029302952183 [Eh]
	 Correlation Energy        =      -1.6514765012414983 [Eh]
	 Total Energy              =    -365.8971916546462353 [Eh]

	 ================> DF-SCS-MP2 Energies <==================
	-----------------------------------------------------------
	 SCS Same-Spin Scale       =       0.3333333333333333 [-]
	 SCS Opposite-Spin Scale   =       1.2000000000000000 [-]
	 SCS Same-Spin Energy      =      -0.1253578569820933 [Eh]
	 SCS Opposite-Spin Energy  =      -1.5304835163542621 [Eh]
	 SCS Correlation Energy    =      -1.6558413733363553 [Eh]
	 SCS Total Energy          =    -365.9015565267410466 [Eh]
	-----------------------------------------------------------

  Dipole Moment: [D]
     X:    -1.1133      Y:     2.7235      Z:    -1.6620     Total:     3.3792

*** Psi4 exiting successfully. Buy a developer a beer!
