                               Psi4 1.3.2 release

  ==> Input File <==

--------------------------------------------------------------------------
#psi4
#
memory 32 gb

molecule  {
0 1
  O        0.8686370    -1.1285810     0.6753960
  N       -0.4170490     0.5891890    -0.1013730
  C       -1.6800190    -0.0563620     0.2358630
  C       -2.1140033    -1.1290889    -0.9051998
  C       -2.7390930     1.0113430     0.4650240
  C        0.7808810    -0.0406060     0.0960010
  C        1.9924560     0.7166710    -0.4292430
  C        3.2969670     0.0166800    -0.0788280
  H       -1.4931140    -0.5968520     1.1678280
  H       -0.4432210     1.3965910    -0.7180680
  H       -3.0167340    -1.5709650    -0.5578120
  H       -2.2433890    -0.5581650    -1.7943680
  H       -1.3035910    -1.8142070    -0.9546500
  H       -2.4287380     1.7063800     1.2494310
  H       -3.6863690     0.5519340     0.7608270
  H       -2.9190420     1.5806020    -0.4540200
  H        1.8890940     0.8204890    -1.5196510
  H        1.9757950     1.7355060    -0.0222730
  H        3.3123780    -0.9936500    -0.4915720
  H        4.1482470     0.5747890    -0.4771690
  H        3.4100600    -0.0687260     1.0041520
units angstrom
no_reorient  #important for SAPT in psi4, default
symmetry c1  #important for SAPT in psi4, default
}

set PROPERTIES_ORIGIN ["COM"]
properties('MP2/aug-cc-pvtz', properties = ['dipole'])
--------------------------------------------------------------------------

    Molecular point group: c1
  Charge       = 0
  Multiplicity = 1
  Basis Set: AUG-CC-PVTZ
    Blend: AUG-CC-PVTZ
  Basis Set: (AUG-CC-PVTZ AUX)
    Blend: AUG-CC-PVTZ-JKFIT

    Orbital Energies [Eh]
    ---------------------

    Doubly Occupied:

       1A    -20.513641     2A    -15.579038     3A    -11.344877
       4A    -11.268696     5A    -11.240379     6A    -11.223662
       7A    -11.213568     8A    -11.209551     9A     -1.367122
      10A     -1.226631    11A     -1.061625    12A     -1.025332
      13A     -0.940009    14A     -0.888398    15A     -0.809192
      16A     -0.777857    17A     -0.681678    18A     -0.651255
      19A     -0.634344    20A     -0.608383    21A     -0.593619
      22A     -0.579142    23A     -0.556437    24A     -0.549080
      25A     -0.532463    26A     -0.513074    27A     -0.510498
      28A     -0.493859    29A     -0.493037    30A     -0.469685
      31A     -0.417425    32A     -0.378713

  @DF-RHF Final Energy:  -364.24200861562338

   => Energetics <=

    Nuclear Repulsion Energy =            390.9199907818817792
    One-Electron Energy =               -1269.6194578169008764
    Two-Electron Energy =                 514.4574584193957207
    Total Energy =                       -364.2420086156233765
  Basis Set: (AUG-CC-PVTZ AUX)
    Blend: AUG-CC-PVTZ-RI
    Molecular point group: c1

    Geometry (in Angstrom), charge = 0, multiplicity = 1:

       Center              X                  Y                   Z               Mass
    ------------   -----------------  -----------------  -----------------  -----------------
         O            0.871421127534    -1.121699122593     0.682716074066    15.994914619570
         N           -0.414264872466     0.596070877407    -0.094052925934    14.003074004430
         C           -1.677234872466    -0.049480122593     0.243183074066    12.000000000000
         C           -2.111219172466    -1.122207022593    -0.897879725934    12.000000000000
         C           -2.736308872466     1.018224877407     0.472344074066    12.000000000000
         C            0.783665127534    -0.033724122593     0.103321074066    12.000000000000
         C            1.995240127534     0.723552877407    -0.421922925934    12.000000000000
         C            3.299751127534     0.023561877407    -0.071507925934    12.000000000000
         H           -1.490329872466    -0.589970122593     1.175148074066     1.007825032230
         H           -0.440436872466     1.403472877407    -0.710747925934     1.007825032230
         H           -3.013949872466    -1.564083122593    -0.550491925934     1.007825032230
         H           -2.240604872466    -0.551283122593    -1.787047925934     1.007825032230
         H           -1.300806872466    -1.807325122593    -0.947329925934     1.007825032230
         H           -2.425953872466     1.713261877407     1.256751074066     1.007825032230
         H           -3.683584872466     0.558815877407     0.768147074066     1.007825032230
         H           -2.916257872466     1.587483877407    -0.446699925934     1.007825032230
         H            1.891878127534     0.827370877407    -1.512330925934     1.007825032230
         H            1.978579127534     1.742387877407    -0.014952925934     1.007825032230
         H            3.315162127534    -0.986768122593    -0.484251925934     1.007825032230
         H            4.151031127534     0.581670877407    -0.469848925934     1.007825032230
         H            3.412844127534    -0.061844122593     1.011472074066     1.007825032230

  Basis Set: AUG-CC-PVTZ
    Blend: AUG-CC-PVTZ
  Basis Set: (AUG-CC-PVTZ AUX)
    Blend: AUG-CC-PVTZ-JKFIT
	 Reference Energy          =    -364.2420086156233765 [Eh]
	 Singles Energy            =      -0.0000000000000000 [Eh]
	 Same-Spin Energy          =      -0.3755269274799129 [Eh]
	 Opposite-Spin Energy      =      -1.2753170763220254 [Eh]
	 Correlation Energy        =      -1.6508440038019383 [Eh]
	 Total Energy              =    -365.8928526194252981 [Eh]

	 ================> DF-SCS-MP2 Energies <==================
	-----------------------------------------------------------
	 SCS Same-Spin Scale       =       0.3333333333333333 [-]
	 SCS Opposite-Spin Scale   =       1.2000000000000000 [-]
	 SCS Same-Spin Energy      =      -0.1251756424933043 [Eh]
	 SCS Opposite-Spin Energy  =      -1.5303804915864305 [Eh]
	 SCS Correlation Energy    =      -1.6555561340797349 [Eh]
	 SCS Total Energy          =    -365.8975647497031218 [Eh]
	-----------------------------------------------------------

  Dipole Moment: [D]
     X:    -1.2716      Y:     2.7812      Z:    -1.6088     Total:     3.4555

*** Psi4 exiting successfully. Buy a developer a beer!
