                               Psi4 1.3.2 release

  ==> Input File <==

--------------------------------------------------------------------------
#psi4
#
memory 32 gb

molecule  {
0 1
  O        0.8686370    -1.1285810     0.6753960
  N       -0.4055777     0.6072269    -0.1119963
  C       -1.6800190    -0.0563620     0.2358630
  C       -2.0872990    -1.0630810    -0.8349870
  C       -2.7390930     1.0113430     0.4650240
  C        0.7808810    -0.0406060     0.0960010
  C        1.9763903     0.7361090    -0.4376046
  C        3.2969670     0.0166800    -0.0788280
  H       -1.4931140    -0.5968520     1.1678280
  H       -0.4432210     1.3965910    -0.7180680
  H       -3.0167340    -1.5709650    -0.5578120
  H       -2.2433890    -0.5581650    -1.7943680
  H       -1.3035910    -1.8142070    -0.9546500
  H       -2.4287380     1.7063800     1.2494310
  H       -3.6863690     0.5519340     0.7608270
  H       -2.9190420     1.5806020    -0.4540200
  H        1.8890940     0.8204890    -1.5196510
  H        1.9757950     1.7355060    -0.0222730
  H        3.3123780    -0.9936500    -0.4915720
  H        4.1482470     0.5747890    -0.4771690
  H        3.4100600    -0.0687260     1.0041520
units angstrom
no_reorient  #important for SAPT in psi4, default
symmetry c1  #important for SAPT in psi4, default
}

set PROPERTIES_ORIGIN ["COM"]
properties('MP2/aug-cc-pvtz', properties = ['dipole'])
--------------------------------------------------------------------------

    Molecular point group: c1
  Charge       = 0
  Multiplicity = 1
  Basis Set: AUG-CC-PVTZ
    Blend: AUG-CC-PVTZ
  Basis Set: (AUG-CC-PVTZ AUX)
    Blend: AUG-CC-PVTZ-JKFIT

    Orbital Energies [Eh]
    ---------------------

    Doubly Occupied:

       1A    -20.515026     2A    -15.576797     3A    -11.345252
       4A    -11.266414     5A    -11.237681     6A    -11.223580
       7A    -11.213700     8A    -11.213290     9A     -1.366909
      10A     -1.227695    11A     -1.065412    12A     -1.027191
      13A     -0.940054    14A     -0.886517    15A     -0.806963
      16A     -0.783339    17A     -0.682038    18A     -0.653309
      19A     -0.636536    20A     -0.613385    21A     -0.594327
      22A     -0.579006    23A     -0.546878    24A     -0.545494
      25A     -0.525585    26A     -0.513055    27A     -0.501713
      28A     -0.498380    29A     -0.489246    30A     -0.478921
      31A     -0.417385    32A     -0.387743

  @DF-RHF Final Energy:  -364.24820735711279

   => Energetics <=

    Nuclear Repulsion Energy =            392.1218208333222037
    One-Electron Energy =               -1272.0224168940683285
    Two-Electron Energy =                 515.6523887036332781
    Total Energy =                       -364.2482073571128467
  Basis Set: (AUG-CC-PVTZ AUX)
    Blend: AUG-CC-PVTZ-RI
    Molecular point group: c1

    Geometry (in Angstrom), charge = 0, multiplicity = 1:

       Center              X                  Y                   Z               Mass
    ------------   -----------------  -----------------  -----------------  -----------------
         O            0.868916371852    -1.132801989869     0.677560061743    15.994914619570
         N           -0.405298328148     0.603005910131    -0.109832238257    14.003074004430
         C           -1.679739628148    -0.060582989869     0.238027061743    12.000000000000
         C           -2.087019628148    -1.067301989869    -0.832822938257    12.000000000000
         C           -2.738813628148     1.007122010131     0.467188061743    12.000000000000
         C            0.781160371852    -0.044826989869     0.098165061743    12.000000000000
         C            1.976669671852     0.731888010131    -0.435440538257    12.000000000000
         C            3.297246371852     0.012459010131    -0.076663938257    12.000000000000
         H           -1.492834628148    -0.601072989869     1.169992061743     1.007825032230
         H           -0.442941628148     1.392370010131    -0.715903938257     1.007825032230
         H           -3.016454628148    -1.575185989869    -0.555647938257     1.007825032230
         H           -2.243109628148    -0.562385989869    -1.792203938257     1.007825032230
         H           -1.303311628148    -1.818427989869    -0.952485938257     1.007825032230
         H           -2.428458628148     1.702159010131     1.251595061743     1.007825032230
         H           -3.686089628148     0.547713010131     0.762991061743     1.007825032230
         H           -2.918762628148     1.576381010131    -0.451855938257     1.007825032230
         H            1.889373371852     0.816268010131    -1.517486938257     1.007825032230
         H            1.976074371852     1.731285010131    -0.020108938257     1.007825032230
         H            3.312657371852    -0.997870989869    -0.489407938257     1.007825032230
         H            4.148526371852     0.570568010131    -0.475004938257     1.007825032230
         H            3.410339371852    -0.072946989869     1.006316061743     1.007825032230

  Basis Set: AUG-CC-PVTZ
    Blend: AUG-CC-PVTZ
  Basis Set: (AUG-CC-PVTZ AUX)
    Blend: AUG-CC-PVTZ-JKFIT
	 Reference Energy          =    -364.2482073571127899 [Eh]
	 Singles Energy            =      -0.0000000000000000 [Eh]
	 Same-Spin Energy          =      -0.3754991369580679 [Eh]
	 Opposite-Spin Energy      =      -1.2750163106101864 [Eh]
	 Correlation Energy        =      -1.6505154475682544 [Eh]
	 Total Energy              =    -365.8987228046810287 [Eh]

	 ================> DF-SCS-MP2 Energies <==================
	-----------------------------------------------------------
	 SCS Same-Spin Scale       =       0.3333333333333333 [-]
	 SCS Opposite-Spin Scale   =       1.2000000000000000 [-]
	 SCS Same-Spin Energy      =      -0.1251663789860226 [Eh]
	 SCS Opposite-Spin Energy  =      -1.5300195727322237 [Eh]
	 SCS Correlation Energy    =      -1.6551859517182463 [Eh]
	 SCS Total Energy          =    -365.9033933088310278 [Eh]
	-----------------------------------------------------------

  Dipole Moment: [D]
     X:    -1.3547      Y:     2.6958      Z:    -1.6337     Total:     3.4309

*** Psi4 exiting successfully. Buy a developer a beer!
