                               Psi4 1.3.2 release

  ==> Input File <==

--------------------------------------------------------------------------
#psi4
#
memory 32 gb

molecule  {
0 1
  O        0.8686370    -1.1285810     0.6753960
  N       -0.4170490     0.5891890    -0.1013730
  C       -1.6800190    -0.0563620     0.2358630
  C       -2.0872990    -1.0630810    -0.8349870
  C       -2.7390930     1.0113430     0.4650240
  C        0.7808810    -0.0406060     0.0960010
  C        1.9924560     0.7166710    -0.4292430
  C        3.2969670     0.0166800    -0.0788280
  H       -1.4931140    -0.5968520     1.1678280
  H       -0.4406458     1.3171469    -0.6573885
  H       -3.0167340    -1.5709650    -0.5578120
  H       -2.2433890    -0.5581650    -1.7943680
  H       -1.3035910    -1.8142070    -0.9546500
  H       -2.4287380     1.7063800     1.2494310
  H       -3.6863690     0.5519340     0.7608270
  H       -2.9190420     1.5806020    -0.4540200
  H        1.8890940     0.8204890    -1.5196510
  H        1.9757950     1.7355060    -0.0222730
  H        3.3123780    -0.9936500    -0.4915720
  H        4.1482470     0.5747890    -0.4771690
  H        3.4100600    -0.0687260     1.0041520
units angstrom
no_reorient  #important for SAPT in psi4, default
symmetry c1  #important for SAPT in psi4, default
}

set PROPERTIES_ORIGIN ["COM"]
properties('MP2/aug-cc-pvtz', properties = ['dipole'])
--------------------------------------------------------------------------

    Molecular point group: c1
  Charge       = 0
  Multiplicity = 1
  Basis Set: AUG-CC-PVTZ
    Blend: AUG-CC-PVTZ
  Basis Set: (AUG-CC-PVTZ AUX)
    Blend: AUG-CC-PVTZ-JKFIT

    Orbital Energies [Eh]
    ---------------------

    Doubly Occupied:

       1A    -20.513797     2A    -15.568007     3A    -11.345134
       4A    -11.264812     5A    -11.240788     6A    -11.223649
       7A    -11.213901     8A    -11.212769     9A     -1.368397
      10A     -1.241308    11A     -1.067351    12A     -1.032319
      13A     -0.940332    14A     -0.889319    15A     -0.815440
      16A     -0.794326    17A     -0.683979    18A     -0.657630
      19A     -0.636269    20A     -0.614182    21A     -0.596033
      22A     -0.580652    23A     -0.550049    24A     -0.545571
      25A     -0.526047    26A     -0.513113    27A     -0.510669
      28A     -0.497204    29A     -0.488340    30A     -0.477485
      31A     -0.417892    32A     -0.387404

  @DF-RHF Final Energy:  -364.24351455903081

   => Energetics <=

    Nuclear Repulsion Energy =            393.1349350807859082
    One-Electron Energy =               -1273.9285627457704777
    Two-Electron Energy =                 516.5501131059537556
    Total Energy =                       -364.2435145590308139
  Basis Set: (AUG-CC-PVTZ AUX)
    Blend: AUG-CC-PVTZ-RI
    Molecular point group: c1

    Geometry (in Angstrom), charge = 0, multiplicity = 1:

       Center              X                  Y                   Z               Mass
    ------------   -----------------  -----------------  -----------------  -----------------
         O            0.868614457216    -1.127885315611     0.674864552222    15.994914619570
         N           -0.417071542784     0.589884684389    -0.101904447778    14.003074004430
         C           -1.680041542784    -0.055666315611     0.235331552222    12.000000000000
         C           -2.087321542784    -1.062385315611    -0.835518447778    12.000000000000
         C           -2.739115542784     1.012038684389     0.464492552222    12.000000000000
         C            0.780858457216    -0.039910315611     0.095469552222    12.000000000000
         C            1.992433457216     0.717366684389    -0.429774447778    12.000000000000
         C            3.296944457216     0.017375684389    -0.079359447778    12.000000000000
         H           -1.493136542784    -0.596156315611     1.167296552222     1.007825032230
         H           -0.440668342784     1.317842584389    -0.657919947778     1.007825032230
         H           -3.016756542784    -1.570269315611    -0.558343447778     1.007825032230
         H           -2.243411542784    -0.557469315611    -1.794899447778     1.007825032230
         H           -1.303613542784    -1.813511315611    -0.955181447778     1.007825032230
         H           -2.428760542784     1.707075684389     1.248899552222     1.007825032230
         H           -3.686391542784     0.552629684389     0.760295552222     1.007825032230
         H           -2.919064542784     1.581297684389    -0.454551447778     1.007825032230
         H            1.889071457216     0.821184684389    -1.520182447778     1.007825032230
         H            1.975772457216     1.736201684389    -0.022804447778     1.007825032230
         H            3.312355457216    -0.992954315611    -0.492103447778     1.007825032230
         H            4.148224457216     0.575484684389    -0.477700447778     1.007825032230
         H            3.410037457216    -0.068030315611     1.003620552222     1.007825032230

  Basis Set: AUG-CC-PVTZ
    Blend: AUG-CC-PVTZ
  Basis Set: (AUG-CC-PVTZ AUX)
    Blend: AUG-CC-PVTZ-JKFIT
	 Reference Energy          =    -364.2435145590308139 [Eh]
	 Singles Energy            =      -0.0000000000000000 [Eh]
	 Same-Spin Energy          =      -0.3750152641914533 [Eh]
	 Opposite-Spin Energy      =      -1.2735132889543110 [Eh]
	 Correlation Energy        =      -1.6485285531457643 [Eh]
	 Total Energy              =    -365.8920431121765660 [Eh]

	 ================> DF-SCS-MP2 Energies <==================
	-----------------------------------------------------------
	 SCS Same-Spin Scale       =       0.3333333333333333 [-]
	 SCS Opposite-Spin Scale   =       1.2000000000000000 [-]
	 SCS Same-Spin Energy      =      -0.1250050880638177 [Eh]
	 SCS Opposite-Spin Energy  =      -1.5282159467451732 [Eh]
	 SCS Correlation Energy    =      -1.6532210348089911 [Eh]
	 SCS Total Energy          =    -365.8967355938398214 [Eh]
	-----------------------------------------------------------

  Dipole Moment: [D]
     X:    -1.2685      Y:     2.6762      Z:    -1.6070     Total:     3.3695

*** Psi4 exiting successfully. Buy a developer a beer!
