                               Psi4 1.3.2 release

  ==> Input File <==

--------------------------------------------------------------------------
#psi4
#
memory 32 gb

molecule  {
0 1
  O        0.8257181    -1.1289044     0.6796837
  N       -0.4170490     0.5891890    -0.1013730
  C       -1.6800190    -0.0563620     0.2358630
  C       -2.0872990    -1.0630810    -0.8349870
  C       -2.7390930     1.0113430     0.4650240
  C        0.7808810    -0.0406060     0.0960010
  C        1.9598657     0.7548193    -0.4467304
  C        3.2969670     0.0166800    -0.0788280
  H       -1.4931140    -0.5968520     1.1678280
  H       -0.4432210     1.3965910    -0.7180680
  H       -3.0167340    -1.5709650    -0.5578120
  H       -2.2433890    -0.5581650    -1.7943680
  H       -1.3035910    -1.8142070    -0.9546500
  H       -2.4287380     1.7063800     1.2494310
  H       -3.6863690     0.5519340     0.7608270
  H       -2.9190420     1.5806020    -0.4540200
  H        1.8890940     0.8204890    -1.5196510
  H        1.9757950     1.7355060    -0.0222730
  H        3.3123780    -0.9936500    -0.4915720
  H        4.1482470     0.5747890    -0.4771690
  H        3.4100600    -0.0687260     1.0041520
units angstrom
no_reorient  #important for SAPT in psi4, default
symmetry c1  #important for SAPT in psi4, default
}

set PROPERTIES_ORIGIN ["COM"]
properties('MP2/aug-cc-pvtz', properties = ['dipole'])
--------------------------------------------------------------------------

    Molecular point group: c1
  Charge       = 0
  Multiplicity = 1
  Basis Set: AUG-CC-PVTZ
    Blend: AUG-CC-PVTZ
  Basis Set: (AUG-CC-PVTZ AUX)
    Blend: AUG-CC-PVTZ-JKFIT

    Orbital Energies [Eh]
    ---------------------

    Doubly Occupied:

       1A    -20.514216     2A    -15.575579     3A    -11.345357
       4A    -11.262894     5A    -11.240166     6A    -11.222248
       7A    -11.217067     8A    -11.211367     9A     -1.368016
      10A     -1.226216    11A     -1.065301    12A     -1.025115
      13A     -0.938632    14A     -0.888639    15A     -0.808625
      16A     -0.778010    17A     -0.683201    18A     -0.653240
      19A     -0.639845    20A     -0.612903    21A     -0.593316
      22A     -0.577390    23A     -0.545698    24A     -0.544120
      25A     -0.525354    26A     -0.515889    27A     -0.502585
      28A     -0.497917    29A     -0.488889    30A     -0.477699
      31A     -0.418798    32A     -0.384096

  @DF-RHF Final Energy:  -364.24594412454150

   => Energetics <=

    Nuclear Repulsion Energy =            392.4656449208324602
    One-Electron Energy =               -1272.7263976684723730
    Two-Electron Energy =                 516.0148086230983608
    Total Energy =                       -364.2459441245415519
  Basis Set: (AUG-CC-PVTZ AUX)
    Blend: AUG-CC-PVTZ-RI
    Molecular point group: c1

    Geometry (in Angstrom), charge = 0, multiplicity = 1:

       Center              X                  Y                   Z               Mass
    ------------   -----------------  -----------------  -----------------  -----------------
         O            0.835080142583    -1.132836638466     0.680910916223    15.994914619570
         N           -0.407686957417     0.585256761534    -0.100145783777    14.003074004430
         C           -1.670656957417    -0.060294238466     0.237090216223    12.000000000000
         C           -2.077936957417    -1.067013238466    -0.833759783777    12.000000000000
         C           -2.729730957417     1.007410761534     0.466251216223    12.000000000000
         C            0.790243042583    -0.044538238466     0.097228216223    12.000000000000
         C            1.969227742583     0.750887061534    -0.445503183777    12.000000000000
         C            3.306329042583     0.012747761534    -0.077600783777    12.000000000000
         H           -1.483751957417    -0.600784238466     1.169055216223     1.007825032230
         H           -0.433858957417     1.392658761534    -0.716840783777     1.007825032230
         H           -3.007371957417    -1.574897238466    -0.556584783777     1.007825032230
         H           -2.234026957417    -0.562097238466    -1.793140783777     1.007825032230
         H           -1.294228957417    -1.818139238466    -0.953422783777     1.007825032230
         H           -2.419375957417     1.702447761534     1.250658216223     1.007825032230
         H           -3.677006957417     0.548001761534     0.762054216223     1.007825032230
         H           -2.909679957417     1.576669761534    -0.452792783777     1.007825032230
         H            1.898456042583     0.816556761534    -1.518423783777     1.007825032230
         H            1.985157042583     1.731573761534    -0.021045783777     1.007825032230
         H            3.321740042583    -0.997582238466    -0.490344783777     1.007825032230
         H            4.157609042583     0.570856761534    -0.475941783777     1.007825032230
         H            3.419422042583    -0.072658238466     1.005379216223     1.007825032230

  Basis Set: AUG-CC-PVTZ
    Blend: AUG-CC-PVTZ
  Basis Set: (AUG-CC-PVTZ AUX)
    Blend: AUG-CC-PVTZ-JKFIT
	 Reference Energy          =    -364.2459441245414951 [Eh]
	 Singles Energy            =      -0.0000000000000000 [Eh]
	 Same-Spin Energy          =      -0.3757602393795496 [Eh]
	 Opposite-Spin Energy      =      -1.2754264931739812 [Eh]
	 Correlation Energy        =      -1.6511867325535308 [Eh]
	 Total Energy              =    -365.8971308570950214 [Eh]

	 ================> DF-SCS-MP2 Energies <==================
	-----------------------------------------------------------
	 SCS Same-Spin Scale       =       0.3333333333333333 [-]
	 SCS Opposite-Spin Scale   =       1.2000000000000000 [-]
	 SCS Same-Spin Energy      =      -0.1252534131265165 [Eh]
	 SCS Opposite-Spin Energy  =      -1.5305117918087774 [Eh]
	 SCS Correlation Energy    =      -1.6557652049352940 [Eh]
	 SCS Total Energy          =    -365.9017093294767733 [Eh]
	-----------------------------------------------------------

  Dipole Moment: [D]
     X:    -1.1629      Y:     2.7396      Z:    -1.6551     Total:     3.4054

*** Psi4 exiting successfully. Buy a developer a beer!
