                               Psi4 1.3.2 release

  ==> Input File <==

--------------------------------------------------------------------------
#psi4
#
memory 32 gb

molecule  {
0 1
  O        0.8686370    -1.1285810     0.6753960
  N       -0.4170490     0.5891890    -0.1013730
  C       -1.6800190    -0.0563620     0.2358630
  C       -2.0872990    -1.0630810    -0.8349870
  C       -2.7390930     1.0113430     0.4650240
  C        0.6932945     0.0054414     0.0815700
  C        1.9924560     0.7166710    -0.4292430
  C        3.2969670     0.0166800    -0.0788280
  H       -1.4931140    -0.5968520     1.1678280
  H       -0.4432210     1.3965910    -0.7180680
  H       -3.0167340    -1.5709650    -0.5578120
  H       -2.2433890    -0.5581650    -1.7943680
  H       -1.3035910    -1.8142070    -0.9546500
  H       -2.4287380     1.7063800     1.2494310
  H       -3.6863690     0.5519340     0.7608270
  H       -2.9190420     1.5806020    -0.4540200
  H        1.8890940     0.8204890    -1.5196510
  H        1.9757950     1.7355060    -0.0222730
  H        3.3123780    -0.9936500    -0.4915720
  H        4.1482470     0.5747890    -0.4771690
  H        3.4100600    -0.0687260     1.0041520
units angstrom
no_reorient  #important for SAPT in psi4, default
symmetry c1  #important for SAPT in psi4, default
}

set PROPERTIES_ORIGIN ["COM"]
properties('MP2/aug-cc-pvtz', properties = ['dipole'])
--------------------------------------------------------------------------

    Molecular point group: c1
  Charge       = 0
  Multiplicity = 1
  Basis Set: AUG-CC-PVTZ
    Blend: AUG-CC-PVTZ
  Basis Set: (AUG-CC-PVTZ AUX)
    Blend: AUG-CC-PVTZ-JKFIT

    Orbital Energies [Eh]
    ---------------------

    Doubly Occupied:

       1A    -20.493836     2A    -15.595568     3A    -11.338222
       4A    -11.273888     5A    -11.238828     6A    -11.230417
       7A    -11.218739     8A    -11.209112     9A     -1.347171
      10A     -1.245351    11A     -1.073410    12A     -1.028093
      13A     -0.946812    14A     -0.886216    15A     -0.818797
      16A     -0.804121    17A     -0.673282    18A     -0.659030
      19A     -0.636638    20A     -0.617000    21A     -0.588689
      22A     -0.569366    23A     -0.553932    24A     -0.552135
      25A     -0.529180    26A     -0.511090    27A     -0.497417
      28A     -0.497382    29A     -0.491081    30A     -0.473226
      31A     -0.399236    32A     -0.388670

  @DF-RHF Final Energy:  -364.23294618611203

   => Energetics <=

    Nuclear Repulsion Energy =            392.9096085149830060
    One-Electron Energy =               -1273.5132420694030770
    Two-Electron Energy =                 516.3706873683080403
    Total Energy =                       -364.2329461861120308
  Basis Set: (AUG-CC-PVTZ AUX)
    Blend: AUG-CC-PVTZ-RI
    Molecular point group: c1

    Geometry (in Angstrom), charge = 0, multiplicity = 1:

       Center              X                  Y                   Z               Mass
    ------------   -----------------  -----------------  -----------------  -----------------
         O            0.877768549038    -1.133381719819     0.676900407141    15.994914619570
         N           -0.407917450962     0.584388280181    -0.099868592859    14.003074004430
         C           -1.670887450962    -0.061162719819     0.237367407141    12.000000000000
         C           -2.078167450962    -1.067881719819    -0.833482592859    12.000000000000
         C           -2.729961450962     1.006542280181     0.466528407141    12.000000000000
         C            0.702426049038     0.000640680181     0.083074407141    12.000000000000
         C            2.001587549038     0.711870280181    -0.427738592859    12.000000000000
         C            3.306098549038     0.011879280181    -0.077323592859    12.000000000000
         H           -1.483982450962    -0.601652719819     1.169332407141     1.007825032230
         H           -0.434089450962     1.391790280181    -0.716563592859     1.007825032230
         H           -3.007602450962    -1.575765719819    -0.556307592859     1.007825032230
         H           -2.234257450962    -0.562965719819    -1.792863592859     1.007825032230
         H           -1.294459450962    -1.819007719819    -0.953145592859     1.007825032230
         H           -2.419606450962     1.701579280181     1.250935407141     1.007825032230
         H           -3.677237450962     0.547133280181     0.762331407141     1.007825032230
         H           -2.909910450962     1.575801280181    -0.452515592859     1.007825032230
         H            1.898225549038     0.815688280181    -1.518146592859     1.007825032230
         H            1.984926549038     1.730705280181    -0.020768592859     1.007825032230
         H            3.321509549038    -0.998450719819    -0.490067592859     1.007825032230
         H            4.157378549038     0.569988280181    -0.475664592859     1.007825032230
         H            3.419191549038    -0.073526719819     1.005656407141     1.007825032230

  Basis Set: AUG-CC-PVTZ
    Blend: AUG-CC-PVTZ
  Basis Set: (AUG-CC-PVTZ AUX)
    Blend: AUG-CC-PVTZ-JKFIT
	 Reference Energy          =    -364.2329461861120308 [Eh]
	 Singles Energy            =      -0.0000000000000000 [Eh]
	 Same-Spin Energy          =      -0.3764893160527136 [Eh]
	 Opposite-Spin Energy      =      -1.2764482251991058 [Eh]
	 Correlation Energy        =      -1.6529375412518195 [Eh]
	 Total Energy              =    -365.8858837273638756 [Eh]

	 ================> DF-SCS-MP2 Energies <==================
	-----------------------------------------------------------
	 SCS Same-Spin Scale       =       0.3333333333333333 [-]
	 SCS Opposite-Spin Scale   =       1.2000000000000000 [-]
	 SCS Same-Spin Energy      =      -0.1254964386842379 [Eh]
	 SCS Opposite-Spin Energy  =      -1.5317378702389270 [Eh]
	 SCS Correlation Energy    =      -1.6572343089231649 [Eh]
	 SCS Total Energy          =    -365.8901804950351675 [Eh]
	-----------------------------------------------------------

  Dipole Moment: [D]
     X:    -2.0842      Y:     3.0897      Z:    -1.7954     Total:     4.1369

*** Psi4 exiting successfully. Buy a developer a beer!
