                               Psi4 1.4a3.dev225

  ==> Input File <==

--------------------------------------------------------------------------
#psi4
#
memory 32 gb

molecule  {
0 1
  O        0.8665680     1.1680080    -0.7351460
  N       -0.3660760    -0.5086790     0.1929010
  C       -1.6266068     0.0102355    -0.2697127
  C       -2.1412550     1.1442230     0.6252270
  C       -2.6427120    -1.1266550    -0.3840140
  C        0.8063460     0.1556180    -0.0295640
  C        2.0309430    -0.4326950     0.6540710
  C        3.2825740    -0.2523450    -0.1975960
  H       -1.4466230     0.4281070    -1.2709490
  H       -0.3785050    -1.2608410     0.8714320
  H       -3.0785860     1.5617170     0.2436050
  H       -2.3175770     0.7713190     1.6396860
  H       -1.3960540     1.9417130     0.6641920
  H       -2.2693050    -1.9092940    -1.0497770
  H       -3.5969080    -0.7634960    -0.7753550
  H       -2.8341330    -1.5678230     0.6011330
  H        2.1523320     0.0883960     1.6122110
  H        1.8656800    -1.4909910     0.8873090
  H        3.4076760     0.8004350    -0.4533700
  H        4.1701610    -0.5986810     0.3385000
  H        3.2011700    -0.8174180    -1.1296580
units angstrom
no_reorient  #important for SAPT in psi4, default
symmetry c1  #important for SAPT in psi4, default
}

set PROPERTIES_ORIGIN ["COM"]
properties('MP2/aug-cc-pvtz', properties = ['dipole'])
--------------------------------------------------------------------------

    Molecular point group: c1
  Charge       = 0
  Multiplicity = 1
  Basis Set: AUG-CC-PVTZ
    Blend: AUG-CC-PVTZ
  Basis Set: (AUG-CC-PVTZ AUX)
    Blend: AUG-CC-PVTZ-JKFIT

    Orbital Energies [Eh]
    ---------------------

    Doubly Occupied:

       1A    -20.511944     2A    -15.581669     3A    -11.345388
       4A    -11.265269     5A    -11.240511     6A    -11.224298
       7A    -11.216185     8A    -11.211979     9A     -1.367872
      10A     -1.233856    11A     -1.065919    12A     -1.029430
      13A     -0.938601    14A     -0.889492    15A     -0.810899
      16A     -0.782554    17A     -0.682535    18A     -0.659987
      19A     -0.626699    20A     -0.615607    21A     -0.594117
      22A     -0.578209    23A     -0.556275    24A     -0.544735
      25A     -0.527732    26A     -0.515404    27A     -0.509998
      28A     -0.496883    29A     -0.484593    30A     -0.474823
      31A     -0.416298    32A     -0.386223

  @DF-RHF Final Energy:  -364.24915886791609

   => Energetics <=

    Nuclear Repulsion Energy =            392.7543183163622302
    One-Electron Energy =               -1273.2349869731308445
    Two-Electron Energy =                 516.2315097888524633
    Total Energy =                       -364.2491588679160941
  Basis Set: (AUG-CC-PVTZ AUX)
    Blend: AUG-CC-PVTZ-RI
    Molecular point group: c1

    Geometry (in Angstrom), charge = 0, multiplicity = 1:

       Center              X                  Y                   Z               Mass
    ------------   -----------------  -----------------  -----------------  -----------------
         O            0.843061721677     1.144543149725    -0.717070842149    15.994914619570
         N           -0.389582278323    -0.532143850275     0.210976157851    14.003074004430
         C           -1.650113078323    -0.013229350275    -0.251637542149    12.000000000000
         C           -2.164761278323     1.120758149725     0.643302157851    12.000000000000
         C           -2.666218278323    -1.150119850275    -0.365938842149    12.000000000000
         C            0.782839721677     0.132153149725    -0.011488842149    12.000000000000
         C            2.007436721677    -0.456159850275     0.672146157851    12.000000000000
         C            3.259067721677    -0.275809850275    -0.179520842149    12.000000000000
         H           -1.470129278323     0.404642149725    -1.252873842149     1.007825032230
         H           -0.402011278323    -1.284305850275     0.889507157851     1.007825032230
         H           -3.102092278323     1.538252149725     0.261680157851     1.007825032230
         H           -2.341083278323     0.747854149725     1.657761157851     1.007825032230
         H           -1.419560278323     1.918248149725     0.682267157851     1.007825032230
         H           -2.292811278323    -1.932758850275    -1.031701842149     1.007825032230
         H           -3.620414278323    -0.786960850275    -0.757279842149     1.007825032230
         H           -2.857639278323    -1.591287850275     0.619208157851     1.007825032230
         H            2.128825721677     0.064931149725     1.630286157851     1.007825032230
         H            1.842173721677    -1.514455850275     0.905384157851     1.007825032230
         H            3.384169721677     0.776970149725    -0.435294842149     1.007825032230
         H            4.146654721677    -0.622145850275     0.356575157851     1.007825032230
         H            3.177663721677    -0.840882850275    -1.111582842149     1.007825032230

  Basis Set: AUG-CC-PVTZ
    Blend: AUG-CC-PVTZ
  Basis Set: (AUG-CC-PVTZ AUX)
    Blend: AUG-CC-PVTZ-JKFIT
	 Reference Energy          =    -364.2491588679160941 [Eh]
	 Singles Energy            =      -0.0000000000000000 [Eh]
	 Same-Spin Energy          =      -0.3759040050660393 [Eh]
	 Opposite-Spin Energy      =      -1.2752173791204460 [Eh]
	 Correlation Energy        =      -1.6511213841864854 [Eh]
	 Total Energy              =    -365.9002802521025615 [Eh]

	 ================> DF-SCS-MP2 Energies <==================
	-----------------------------------------------------------
	 SCS Same-Spin Scale       =       0.3333333333333333 [-]
	 SCS Opposite-Spin Scale   =       1.2000000000000000 [-]
	 SCS Same-Spin Energy      =      -0.1253013350220131 [Eh]
	 SCS Opposite-Spin Energy  =      -1.5302608549445351 [Eh]
	 SCS Correlation Energy    =      -1.6555621899665482 [Eh]
	 SCS Total Energy          =    -365.9047210578826252 [Eh]
	-----------------------------------------------------------

  Dipole Moment: [D]
     X:    -1.2074      Y:    -2.6110      Z:     1.9017     Total:     3.4484

*** Psi4 exiting successfully. Buy a developer a beer!
