                               Psi4 1.3.2 release

  ==> Input File <==

--------------------------------------------------------------------------
#psi4
#
memory 32 gb

molecule  {
0 1
  O        0.8686370    -1.1285810     0.6753960
  N       -0.3815543     0.6427054    -0.1330496
  C       -1.6800190    -0.0563620     0.2358630
  C       -2.0872990    -1.0630810    -0.8349870
  C       -2.7390930     1.0113430     0.4650240
  C        0.7808810    -0.0406060     0.0960010
  C        1.9431714     0.7742695    -0.4538377
  C        3.2969670     0.0166800    -0.0788280
  H       -1.4931140    -0.5968520     1.1678280
  H       -0.4432210     1.3965910    -0.7180680
  H       -3.0167340    -1.5709650    -0.5578120
  H       -2.2433890    -0.5581650    -1.7943680
  H       -1.3035910    -1.8142070    -0.9546500
  H       -2.4287380     1.7063800     1.2494310
  H       -3.6863690     0.5519340     0.7608270
  H       -2.9190420     1.5806020    -0.4540200
  H        1.8890940     0.8204890    -1.5196510
  H        1.9757950     1.7355060    -0.0222730
  H        3.3123780    -0.9936500    -0.4915720
  H        4.1482470     0.5747890    -0.4771690
  H        3.4100600    -0.0687260     1.0041520
units angstrom
no_reorient  #important for SAPT in psi4, default
symmetry c1  #important for SAPT in psi4, default
}

set PROPERTIES_ORIGIN ["COM"]
properties('MP2/aug-cc-pvtz', properties = ['dipole'])
--------------------------------------------------------------------------

    Molecular point group: c1
  Charge       = 0
  Multiplicity = 1
  Basis Set: AUG-CC-PVTZ
    Blend: AUG-CC-PVTZ
  Basis Set: (AUG-CC-PVTZ AUX)
    Blend: AUG-CC-PVTZ-JKFIT

    Orbital Energies [Eh]
    ---------------------

    Doubly Occupied:

       1A    -20.518302     2A    -15.573774     3A    -11.346596
       4A    -11.269325     5A    -11.233225     6A    -11.223823
       7A    -11.214803     8A    -11.214017     9A     -1.366843
      10A     -1.227091    11A     -1.064818    12A     -1.021893
      13A     -0.940422    14A     -0.884525    15A     -0.806723
      16A     -0.792394    17A     -0.681607    18A     -0.652656
      19A     -0.639707    20A     -0.612860    21A     -0.596953
      22A     -0.579479    23A     -0.546233    24A     -0.541475
      25A     -0.525686    26A     -0.513202    27A     -0.503274
      28A     -0.492906    29A     -0.484512    30A     -0.478757
      31A     -0.416551    32A     -0.391570

  @DF-RHF Final Energy:  -364.23652687324773

   => Energetics <=

    Nuclear Repulsion Energy =            391.4201775733733371
    One-Electron Energy =               -1270.6014048574038497
    Two-Electron Energy =                 514.9447004107827297
    Total Energy =                       -364.2365268732477261
  Basis Set: (AUG-CC-PVTZ AUX)
    Blend: AUG-CC-PVTZ-RI
    Molecular point group: c1

    Geometry (in Angstrom), charge = 0, multiplicity = 1:

       Center              X                  Y                   Z               Mass
    ------------   -----------------  -----------------  -----------------  -----------------
         O            0.869456993108    -1.141096832902     0.681813835282    15.994914619570
         N           -0.380734306892     0.630189567098    -0.126631764718    14.003074004430
         C           -1.679199006892    -0.068877832902     0.242280835282    12.000000000000
         C           -2.086479006892    -1.075596832902    -0.828569164718    12.000000000000
         C           -2.738273006892     0.998827167098     0.471441835282    12.000000000000
         C            0.781700993108    -0.053121832902     0.102418835282    12.000000000000
         C            1.943991393108     0.761753667098    -0.447419864718    12.000000000000
         C            3.297786993108     0.004164167098    -0.072410164718    12.000000000000
         H           -1.492294006892    -0.609367832902     1.174245835282     1.007825032230
         H           -0.442401006892     1.384075167098    -0.711650164718     1.007825032230
         H           -3.015914006892    -1.583480832902    -0.551394164718     1.007825032230
         H           -2.242569006892    -0.570680832902    -1.787950164718     1.007825032230
         H           -1.302771006892    -1.826722832902    -0.948232164718     1.007825032230
         H           -2.427918006892     1.693864167098     1.255848835282     1.007825032230
         H           -3.685549006892     0.539418167098     0.767244835282     1.007825032230
         H           -2.918222006892     1.568086167098    -0.447602164718     1.007825032230
         H            1.889913993108     0.807973167098    -1.513233164718     1.007825032230
         H            1.976614993108     1.722990167098    -0.015855164718     1.007825032230
         H            3.313197993108    -1.006165832902    -0.485154164718     1.007825032230
         H            4.149066993108     0.562273167098    -0.470751164718     1.007825032230
         H            3.410879993108    -0.081241832902     1.010569835282     1.007825032230

  Basis Set: AUG-CC-PVTZ
    Blend: AUG-CC-PVTZ
  Basis Set: (AUG-CC-PVTZ AUX)
    Blend: AUG-CC-PVTZ-JKFIT
	 Reference Energy          =    -364.2365268732477261 [Eh]
	 Singles Energy            =      -0.0000000000000000 [Eh]
	 Same-Spin Energy          =      -0.3752585185074873 [Eh]
	 Opposite-Spin Energy      =      -1.2754218936217965 [Eh]
	 Correlation Energy        =      -1.6506804121292837 [Eh]
	 Total Energy              =    -365.8872072853770305 [Eh]

	 ================> DF-SCS-MP2 Energies <==================
	-----------------------------------------------------------
	 SCS Same-Spin Scale       =       0.3333333333333333 [-]
	 SCS Opposite-Spin Scale   =       1.2000000000000000 [-]
	 SCS Same-Spin Energy      =      -0.1250861728358291 [Eh]
	 SCS Opposite-Spin Energy  =      -1.5305062723461558 [Eh]
	 SCS Correlation Energy    =      -1.6555924451819848 [Eh]
	 SCS Total Energy          =    -365.8921193184297067 [Eh]
	-----------------------------------------------------------

  Dipole Moment: [D]
     X:    -1.4727      Y:     2.6265      Z:    -1.6130     Total:     3.4160

*** Psi4 exiting successfully. Buy a developer a beer!
