                               Psi4 1.3.2 release

  ==> Input File <==

--------------------------------------------------------------------------
#psi4
#
memory 32 gb

molecule  {
0 1
  O        0.8686370    -1.1285810     0.6753960
  N       -0.4170490     0.5891890    -0.1013730
  C       -1.7041923    -0.0221689     0.2069467
  C       -2.0872990    -1.0630810    -0.8349870
  C       -2.7390930     1.0113430     0.4650240
  C        0.7808810    -0.0406060     0.0960010
  C        1.9924560     0.7166710    -0.4292430
  C        3.2969670     0.0166800    -0.0788280
  H       -1.4931140    -0.5968520     1.1678280
  H       -0.4784976     1.3933049    -0.7198528
  H       -3.0167340    -1.5709650    -0.5578120
  H       -2.2433890    -0.5581650    -1.7943680
  H       -1.3035910    -1.8142070    -0.9546500
  H       -2.4287380     1.7063800     1.2494310
  H       -3.6863690     0.5519340     0.7608270
  H       -2.9190420     1.5806020    -0.4540200
  H        1.8890940     0.8204890    -1.5196510
  H        1.9757950     1.7355060    -0.0222730
  H        3.3123780    -0.9936500    -0.4915720
  H        4.1482470     0.5747890    -0.4771690
  H        3.4100600    -0.0687260     1.0041520
units angstrom
no_reorient  #important for SAPT in psi4, default
symmetry c1  #important for SAPT in psi4, default
}

set PROPERTIES_ORIGIN ["COM"]
properties('MP2/aug-cc-pvtz', properties = ['dipole'])
--------------------------------------------------------------------------

    Molecular point group: c1
  Charge       = 0
  Multiplicity = 1
  Basis Set: AUG-CC-PVTZ
    Blend: AUG-CC-PVTZ
  Basis Set: (AUG-CC-PVTZ AUX)
    Blend: AUG-CC-PVTZ-JKFIT

    Orbital Energies [Eh]
    ---------------------

    Doubly Occupied:

       1A    -20.514026     2A    -15.578545     3A    -11.346471
       4A    -11.265929     5A    -11.240401     6A    -11.223392
       7A    -11.213487     8A    -11.212942     9A     -1.367164
      10A     -1.229453    11A     -1.068546    12A     -1.032198
      13A     -0.943680    14A     -0.888713    15A     -0.803942
      16A     -0.778627    17A     -0.683475    18A     -0.649349
      19A     -0.635722    20A     -0.618159    21A     -0.593868
      22A     -0.579901    23A     -0.551141    24A     -0.545666
      25A     -0.525750    26A     -0.512605    27A     -0.508895
      28A     -0.501814    29A     -0.488757    30A     -0.466712
      31A     -0.417849    32A     -0.385612

  @DF-RHF Final Energy:  -364.24493411726075

   => Energetics <=

    Nuclear Repulsion Energy =            392.5583282372139138
    One-Electron Energy =               -1272.8609335524270136
    Two-Electron Energy =                 516.0576711979523452
    Total Energy =                       -364.2449341172607546
  Basis Set: (AUG-CC-PVTZ AUX)
    Blend: AUG-CC-PVTZ-RI
    Molecular point group: c1

    Geometry (in Angstrom), charge = 0, multiplicity = 1:

       Center              X                  Y                   Z               Mass
    ------------   -----------------  -----------------  -----------------  -----------------
         O            0.871466137555    -1.132117047573     0.678426235138    15.994914619570
         N           -0.414219862445     0.585652952427    -0.098342764862    14.003074004430
         C           -1.701363162445    -0.025704947573     0.209976935138    12.000000000000
         C           -2.084469862445    -1.066617047573    -0.831956764862    12.000000000000
         C           -2.736263862445     1.007806952427     0.468054235138    12.000000000000
         C            0.783710137555    -0.044142047573     0.099031235138    12.000000000000
         C            1.995285137555     0.713134952427    -0.426212764862    12.000000000000
         C            3.299796137555     0.013143952427    -0.075797764862    12.000000000000
         H           -1.490284862445    -0.600388047573     1.170858235138     1.007825032230
         H           -0.475668462445     1.389768852427    -0.716822564862     1.007825032230
         H           -3.013904862445    -1.574501047573    -0.554781764862     1.007825032230
         H           -2.240559862445    -0.561701047573    -1.791337764862     1.007825032230
         H           -1.300761862445    -1.817743047573    -0.951619764862     1.007825032230
         H           -2.425908862445     1.702843952427     1.252461235138     1.007825032230
         H           -3.683539862445     0.548397952427     0.763857235138     1.007825032230
         H           -2.916212862445     1.577065952427    -0.450989764862     1.007825032230
         H            1.891923137555     0.816952952427    -1.516620764862     1.007825032230
         H            1.978624137555     1.731969952427    -0.019242764862     1.007825032230
         H            3.315207137555    -0.997186047573    -0.488541764862     1.007825032230
         H            4.151076137555     0.571252952427    -0.474138764862     1.007825032230
         H            3.412889137555    -0.072262047573     1.007182235138     1.007825032230

  Basis Set: AUG-CC-PVTZ
    Blend: AUG-CC-PVTZ
  Basis Set: (AUG-CC-PVTZ AUX)
    Blend: AUG-CC-PVTZ-JKFIT
	 Reference Energy          =    -364.2449341172607546 [Eh]
	 Singles Energy            =      -0.0000000000000000 [Eh]
	 Same-Spin Energy          =      -0.3762447121873649 [Eh]
	 Opposite-Spin Energy      =      -1.2758654209428761 [Eh]
	 Correlation Energy        =      -1.6521101331302410 [Eh]
	 Total Energy              =    -365.8970442503909908 [Eh]

	 ================> DF-SCS-MP2 Energies <==================
	-----------------------------------------------------------
	 SCS Same-Spin Scale       =       0.3333333333333333 [-]
	 SCS Opposite-Spin Scale   =       1.2000000000000000 [-]
	 SCS Same-Spin Energy      =      -0.1254149040624550 [Eh]
	 SCS Opposite-Spin Energy  =      -1.5310385051314512 [Eh]
	 SCS Correlation Energy    =      -1.6564534091939063 [Eh]
	 SCS Total Energy          =    -365.9013875264546414 [Eh]
	-----------------------------------------------------------

  Dipole Moment: [D]
     X:    -1.3278      Y:     2.7377      Z:    -1.6463     Total:     3.4595

*** Psi4 exiting successfully. Buy a developer a beer!
