                               Psi4 1.4a3.dev225

  ==> Input File <==

--------------------------------------------------------------------------
#psi4
#
memory 32 gb

molecule  {
0 1
  O        0.8665680     1.1680080    -0.7351460
  N       -0.3660760    -0.5086790     0.1929010
  C       -1.6441200     0.0174450    -0.2761400
  C       -2.1412550     1.1442230     0.6252270
  C       -2.6427120    -1.1266550    -0.3840140
  C        0.8063460     0.1556180    -0.0295640
  C        2.0309430    -0.4326950     0.6540710
  C        3.2825740    -0.2523450    -0.1975960
  H       -1.4466230     0.4281070    -1.2709490
  H       -0.3782596    -1.2459918     0.8580364
  H       -3.0785860     1.5617170     0.2436050
  H       -2.3175770     0.7713190     1.6396860
  H       -1.3960540     1.9417130     0.6641920
  H       -2.2693050    -1.9092940    -1.0497770
  H       -3.5969080    -0.7634960    -0.7753550
  H       -2.8341330    -1.5678230     0.6011330
  H        2.1523320     0.0883960     1.6122110
  H        1.8656800    -1.4909910     0.8873090
  H        3.4076760     0.8004350    -0.4533700
  H        4.1701610    -0.5986810     0.3385000
  H        3.2011700    -0.8174180    -1.1296580
units angstrom
no_reorient  #important for SAPT in psi4, default
symmetry c1  #important for SAPT in psi4, default
}

set PROPERTIES_ORIGIN ["COM"]
properties('MP2/aug-cc-pvtz', properties = ['dipole'])
--------------------------------------------------------------------------

    Molecular point group: c1
  Charge       = 0
  Multiplicity = 1
  Basis Set: AUG-CC-PVTZ
    Blend: AUG-CC-PVTZ
  Basis Set: (AUG-CC-PVTZ AUX)
    Blend: AUG-CC-PVTZ-JKFIT

    Orbital Energies [Eh]
    ---------------------

    Doubly Occupied:

       1A    -20.510968     2A    -15.578588     3A    -11.344452
       4A    -11.265973     5A    -11.239952     6A    -11.224620
       7A    -11.215791     8A    -11.212595     9A     -1.366688
      10A     -1.231513    11A     -1.066688    12A     -1.030874
      13A     -0.940346    14A     -0.888093    15A     -0.810435
      16A     -0.784481    17A     -0.682143    18A     -0.659390
      19A     -0.626021    20A     -0.616847    21A     -0.593896
      22A     -0.578622    23A     -0.556018    24A     -0.545585
      25A     -0.526861    26A     -0.513787    27A     -0.509505
      28A     -0.497186    29A     -0.487380    30A     -0.476412
      31A     -0.415208    32A     -0.386986

  @DF-RHF Final Energy:  -364.25000510737567

   => Energetics <=

    Nuclear Repulsion Energy =            392.6588914392066840
    One-Electron Energy =               -1273.0499831649015050
    Two-Electron Energy =                 516.1410866183191501
    Total Energy =                       -364.2500051073757277
  Basis Set: (AUG-CC-PVTZ AUX)
    Blend: AUG-CC-PVTZ-RI
    Molecular point group: c1

    Geometry (in Angstrom), charge = 0, multiplicity = 1:

       Center              X                  Y                   Z               Mass
    ------------   -----------------  -----------------  -----------------  -----------------
         O            0.844885454095     1.143661484673    -0.716283455127    15.994914619570
         N           -0.387758545905    -0.533025515327     0.211763544873    14.003074004430
         C           -1.665802545905    -0.006901515327    -0.257277455127    12.000000000000
         C           -2.162937545905     1.119876484673     0.644089544873    12.000000000000
         C           -2.664394545905    -1.151001515327    -0.365151455127    12.000000000000
         C            0.784663454095     0.131271484673    -0.010701455127    12.000000000000
         C            2.009260454095    -0.457041515327     0.672933544873    12.000000000000
         C            3.260891454095    -0.276691515327    -0.178733455127    12.000000000000
         H           -1.468305545905     0.403760484673    -1.252086455127     1.007825032230
         H           -0.399942145905    -1.270338315327     0.876898944873     1.007825032230
         H           -3.100268545905     1.537370484673     0.262467544873     1.007825032230
         H           -2.339259545905     0.746972484673     1.658548544873     1.007825032230
         H           -1.417736545905     1.917366484673     0.683054544873     1.007825032230
         H           -2.290987545905    -1.933640515327    -1.030914455127     1.007825032230
         H           -3.618590545905    -0.787842515327    -0.756492455127     1.007825032230
         H           -2.855815545905    -1.592169515327     0.619995544873     1.007825032230
         H            2.130649454095     0.064049484673     1.631073544873     1.007825032230
         H            1.843997454095    -1.515337515327     0.906171544873     1.007825032230
         H            3.385993454095     0.776088484673    -0.434507455127     1.007825032230
         H            4.148478454095    -0.623027515327     0.357362544873     1.007825032230
         H            3.179487454095    -0.841764515327    -1.110795455127     1.007825032230

  Basis Set: AUG-CC-PVTZ
    Blend: AUG-CC-PVTZ
  Basis Set: (AUG-CC-PVTZ AUX)
    Blend: AUG-CC-PVTZ-JKFIT
	 Reference Energy          =    -364.2500051073756708 [Eh]
	 Singles Energy            =      -0.0000000000000000 [Eh]
	 Same-Spin Energy          =      -0.3756800330869918 [Eh]
	 Opposite-Spin Energy      =      -1.2748380503869423 [Eh]
	 Correlation Energy        =      -1.6505180834739341 [Eh]
	 Total Energy              =    -365.9005231908495830 [Eh]

	 ================> DF-SCS-MP2 Energies <==================
	-----------------------------------------------------------
	 SCS Same-Spin Scale       =       0.3333333333333333 [-]
	 SCS Opposite-Spin Scale   =       1.2000000000000000 [-]
	 SCS Same-Spin Energy      =      -0.1252266776956639 [Eh]
	 SCS Opposite-Spin Energy  =      -1.5298056604643306 [Eh]
	 SCS Correlation Energy    =      -1.6550323381599945 [Eh]
	 SCS Total Energy          =    -365.9050374455356405 [Eh]
	-----------------------------------------------------------

  Dipole Moment: [D]
     X:    -1.2713      Y:    -2.5919      Z:     1.8919     Total:     3.4515

*** Psi4 exiting successfully. Buy a developer a beer!
