                               Psi4 1.3.2 release

  ==> Input File <==

--------------------------------------------------------------------------
#psi4
#
memory 32 gb

molecule  {
0 1
  O        0.8686370    -1.1285810     0.6753960
  N       -0.4113587     0.5982323    -0.1066924
  C       -1.6800190    -0.0563620     0.2358630
  C       -2.0872990    -1.0630810    -0.8349870
  C       -2.7390930     1.0113430     0.4650240
  C        0.7808810    -0.0406060     0.0960010
  C        1.9844690     0.7264192    -0.4334440
  C        3.2969670     0.0166800    -0.0788280
  H       -1.4931140    -0.5968520     1.1678280
  H       -0.4432210     1.3965910    -0.7180680
  H       -3.0167340    -1.5709650    -0.5578120
  H       -2.2433890    -0.5581650    -1.7943680
  H       -1.3035910    -1.8142070    -0.9546500
  H       -2.4287380     1.7063800     1.2494310
  H       -3.6863690     0.5519340     0.7608270
  H       -2.9190420     1.5806020    -0.4540200
  H        1.8890940     0.8204890    -1.5196510
  H        1.9757950     1.7355060    -0.0222730
  H        3.3123780    -0.9936500    -0.4915720
  H        4.1482470     0.5747890    -0.4771690
  H        3.4100600    -0.0687260     1.0041520
units angstrom
no_reorient  #important for SAPT in psi4, default
symmetry c1  #important for SAPT in psi4, default
}

set PROPERTIES_ORIGIN ["COM"]
properties('MP2/aug-cc-pvtz', properties = ['dipole'])
--------------------------------------------------------------------------

    Molecular point group: c1
  Charge       = 0
  Multiplicity = 1
  Basis Set: AUG-CC-PVTZ
    Blend: AUG-CC-PVTZ
  Basis Set: (AUG-CC-PVTZ AUX)
    Blend: AUG-CC-PVTZ-JKFIT

    Orbital Energies [Eh]
    ---------------------

    Doubly Occupied:

       1A    -20.514239     2A    -15.577565     3A    -11.345039
       4A    -11.265685     5A    -11.238953     6A    -11.223531
       7A    -11.213599     8A    -11.212911     9A     -1.367010
      10A     -1.228116    11A     -1.065739    12A     -1.028522
      13A     -0.939972    14A     -0.887166    15A     -0.807512
      16A     -0.780797    17A     -0.682194    18A     -0.653433
      19A     -0.635958    20A     -0.613589    21A     -0.593813
      22A     -0.578694    23A     -0.548267    24A     -0.545480
      25A     -0.525571    26A     -0.512869    27A     -0.505548
      28A     -0.497564    29A     -0.488739    30A     -0.478151
      31A     -0.417351    32A     -0.386766

  @DF-RHF Final Energy:  -364.24911400322060

   => Energetics <=

    Nuclear Repulsion Energy =            392.3073641728399821
    One-Electron Energy =               -1272.3922716613712964
    Two-Electron Energy =                 515.8357934853107736
    Total Energy =                       -364.2491140032205976
  Basis Set: (AUG-CC-PVTZ AUX)
    Blend: AUG-CC-PVTZ-RI
    Molecular point group: c1

    Geometry (in Angstrom), charge = 0, multiplicity = 1:

       Center              X                  Y                   Z               Mass
    ------------   -----------------  -----------------  -----------------  -----------------
         O            0.868777425988    -1.130697469876     0.676481013848    15.994914619570
         N           -0.411218274012     0.596115830124    -0.105607386152    14.003074004430
         C           -1.679878574012    -0.058478469876     0.236948013848    12.000000000000
         C           -2.087158574012    -1.065197469876    -0.833901986152    12.000000000000
         C           -2.738952574012     1.009226530124     0.466109013848    12.000000000000
         C            0.781021425988    -0.042722469876     0.097086013848    12.000000000000
         C            1.984609425988     0.724302730124    -0.432358986152    12.000000000000
         C            3.297107425988     0.014563530124    -0.077742986152    12.000000000000
         H           -1.492973574012    -0.598968469876     1.168913013848     1.007825032230
         H           -0.443080574012     1.394474530124    -0.716982986152     1.007825032230
         H           -3.016593574012    -1.573081469876    -0.556726986152     1.007825032230
         H           -2.243248574012    -0.560281469876    -1.793282986152     1.007825032230
         H           -1.303450574012    -1.816323469876    -0.953564986152     1.007825032230
         H           -2.428597574012     1.704263530124     1.250516013848     1.007825032230
         H           -3.686228574012     0.549817530124     0.761912013848     1.007825032230
         H           -2.918901574012     1.578485530124    -0.452934986152     1.007825032230
         H            1.889234425988     0.818372530124    -1.518565986152     1.007825032230
         H            1.975935425988     1.733389530124    -0.021187986152     1.007825032230
         H            3.312518425988    -0.995766469876    -0.490486986152     1.007825032230
         H            4.148387425988     0.572672530124    -0.476083986152     1.007825032230
         H            3.410200425988    -0.070842469876     1.005237013848     1.007825032230

  Basis Set: AUG-CC-PVTZ
    Blend: AUG-CC-PVTZ
  Basis Set: (AUG-CC-PVTZ AUX)
    Blend: AUG-CC-PVTZ-JKFIT
	 Reference Energy          =    -364.2491140032205976 [Eh]
	 Singles Energy            =      -0.0000000000000000 [Eh]
	 Same-Spin Energy          =      -0.3756266976547260 [Eh]
	 Opposite-Spin Energy      =      -1.2750614433934528 [Eh]
	 Correlation Energy        =      -1.6506881410481788 [Eh]
	 Total Energy              =    -365.8998021442687900 [Eh]

	 ================> DF-SCS-MP2 Energies <==================
	-----------------------------------------------------------
	 SCS Same-Spin Scale       =       0.3333333333333333 [-]
	 SCS Opposite-Spin Scale   =       1.2000000000000000 [-]
	 SCS Same-Spin Energy      =      -0.1252088992182420 [Eh]
	 SCS Opposite-Spin Energy  =      -1.5300737320721434 [Eh]
	 SCS Correlation Energy    =      -1.6552826312903854 [Eh]
	 SCS Total Energy          =    -365.9043966345109880 [Eh]
	-----------------------------------------------------------

  Dipole Moment: [D]
     X:    -1.3241      Y:     2.7116      Z:    -1.6379     Total:     3.4334

*** Psi4 exiting successfully. Buy a developer a beer!
