                               Psi4 1.3.2 release

  ==> Input File <==

--------------------------------------------------------------------------
#psi4
#
memory 32 gb

molecule  {
0 1
  O        0.8793521    -1.1282930     0.6742136
  N       -0.4170490     0.5891890    -0.1013730
  C       -1.6800190    -0.0563620     0.2358630
  C       -2.0872990    -1.0630810    -0.8349870
  C       -2.7390930     1.0113430     0.4650240
  C        0.7808810    -0.0406060     0.0960010
  C        2.0003744     0.7069879    -0.4247703
  C        3.2969670     0.0166800    -0.0788280
  H       -1.4931140    -0.5968520     1.1678280
  H       -0.4432210     1.3965910    -0.7180680
  H       -3.0167340    -1.5709650    -0.5578120
  H       -2.2433890    -0.5581650    -1.7943680
  H       -1.3035910    -1.8142070    -0.9546500
  H       -2.4287380     1.7063800     1.2494310
  H       -3.6863690     0.5519340     0.7608270
  H       -2.9190420     1.5806020    -0.4540200
  H        1.8890940     0.8204890    -1.5196510
  H        1.9757950     1.7355060    -0.0222730
  H        3.3123780    -0.9936500    -0.4915720
  H        4.1482470     0.5747890    -0.4771690
  H        3.4100600    -0.0687260     1.0041520
units angstrom
no_reorient  #important for SAPT in psi4, default
symmetry c1  #important for SAPT in psi4, default
}

set PROPERTIES_ORIGIN ["COM"]
properties('MP2/aug-cc-pvtz', properties = ['dipole'])
--------------------------------------------------------------------------

    Molecular point group: c1
  Charge       = 0
  Multiplicity = 1
  Basis Set: AUG-CC-PVTZ
    Blend: AUG-CC-PVTZ
  Basis Set: (AUG-CC-PVTZ AUX)
    Blend: AUG-CC-PVTZ-JKFIT

    Orbital Energies [Eh]
    ---------------------

    Doubly Occupied:

       1A    -20.513274     2A    -15.579026     3A    -11.344813
       4A    -11.265473     5A    -11.240437     6A    -11.223795
       7A    -11.212827     8A    -11.212595     9A     -1.366992
      10A     -1.229264    11A     -1.066480    12A     -1.031110
      13A     -0.940212    14A     -0.887685    15A     -0.808078
      16A     -0.778299    17A     -0.682134    18A     -0.653693
      19A     -0.634606    20A     -0.614010    21A     -0.593487
      22A     -0.578528    23A     -0.551265    24A     -0.545686
      25A     -0.525810    26A     -0.512698    27A     -0.510909
      28A     -0.496078    29A     -0.487362    30A     -0.476449
      31A     -0.416689    32A     -0.386201

  @DF-RHF Final Energy:  -364.24891001155663

   => Energetics <=

    Nuclear Repulsion Energy =            392.5158264192002662
    One-Electron Energy =               -1272.7975425402819383
    Two-Electron Energy =                 516.0328061095250405
    Total Energy =                       -364.2489100115566316
  Basis Set: (AUG-CC-PVTZ AUX)
    Blend: AUG-CC-PVTZ-RI
    Molecular point group: c1

    Geometry (in Angstrom), charge = 0, multiplicity = 1:

       Center              X                  Y                   Z               Mass
    ------------   -----------------  -----------------  -----------------  -----------------
         O            0.877037522342    -1.127323423428     0.673911469091    15.994914619570
         N           -0.419363577658     0.590158576572    -0.101675130909    14.003074004430
         C           -1.682333577658    -0.055392423428     0.235560869091    12.000000000000
         C           -2.089613577658    -1.062111423428    -0.835289130909    12.000000000000
         C           -2.741407577658     1.012312576572     0.464721869091    12.000000000000
         C            0.778566422342    -0.039636423428     0.095698869091    12.000000000000
         C            1.998059822342     0.707957476572    -0.425072430909    12.000000000000
         C            3.294652422342     0.017649576572    -0.079130130909    12.000000000000
         H           -1.495428577658    -0.595882423428     1.167525869091     1.007825032230
         H           -0.445535577658     1.397560576572    -0.718370130909     1.007825032230
         H           -3.019048577658    -1.569995423427    -0.558114130909     1.007825032230
         H           -2.245703577658    -0.557195423428    -1.794670130909     1.007825032230
         H           -1.305905577658    -1.813237423427    -0.954952130909     1.007825032230
         H           -2.431052577658     1.707349576572     1.249128869091     1.007825032230
         H           -3.688683577658     0.552903576572     0.760524869091     1.007825032230
         H           -2.921356577658     1.581571576572    -0.454322130909     1.007825032230
         H            1.886779422342     0.821458576572    -1.519953130909     1.007825032230
         H            1.973480422342     1.736475576572    -0.022575130909     1.007825032230
         H            3.310063422342    -0.992680423428    -0.491874130909     1.007825032230
         H            4.145932422342     0.575758576572    -0.477471130909     1.007825032230
         H            3.407745422342    -0.067756423428     1.003849869091     1.007825032230

  Basis Set: AUG-CC-PVTZ
    Blend: AUG-CC-PVTZ
  Basis Set: (AUG-CC-PVTZ AUX)
    Blend: AUG-CC-PVTZ-JKFIT
	 Reference Energy          =    -364.2489100115566316 [Eh]
	 Singles Energy            =      -0.0000000000000000 [Eh]
	 Same-Spin Energy          =      -0.3758269806602460 [Eh]
	 Opposite-Spin Energy      =      -1.2751810265759389 [Eh]
	 Correlation Energy        =      -1.6510080072361850 [Eh]
	 Total Energy              =    -365.8999180187927891 [Eh]

	 ================> DF-SCS-MP2 Energies <==================
	-----------------------------------------------------------
	 SCS Same-Spin Scale       =       0.3333333333333333 [-]
	 SCS Opposite-Spin Scale   =       1.2000000000000000 [-]
	 SCS Same-Spin Energy      =      -0.1252756602200820 [Eh]
	 SCS Opposite-Spin Energy  =      -1.5302172318911267 [Eh]
	 SCS Correlation Energy    =      -1.6554928921112086 [Eh]
	 SCS Total Energy          =    -365.9044029036678580 [Eh]
	-----------------------------------------------------------

  Dipole Moment: [D]
     X:    -1.3249      Y:     2.7214      Z:    -1.6373     Total:     3.4412

*** Psi4 exiting successfully. Buy a developer a beer!
