                               Psi4 1.3.2 release

  ==> Input File <==

--------------------------------------------------------------------------
#psi4
#
memory 32 gb

molecule  {
0 1
  O        0.9326682    -1.1262644     0.6664358
  N       -0.3816961     0.6420473    -0.1342889
  C       -1.6800190    -0.0563620     0.2358630
  C       -2.0872990    -1.0630810    -0.8349870
  C       -2.7390930     1.0113430     0.4650240
  C        0.7808810    -0.0406060     0.0960010
  C        1.9924560     0.7166710    -0.4292430
  C        3.2969670     0.0166800    -0.0788280
  H       -1.4931140    -0.5968520     1.1678280
  H       -0.4432210     1.3965910    -0.7180680
  H       -3.0167340    -1.5709650    -0.5578120
  H       -2.2433890    -0.5581650    -1.7943680
  H       -1.3035910    -1.8142070    -0.9546500
  H       -2.4287380     1.7063800     1.2494310
  H       -3.6863690     0.5519340     0.7608270
  H       -2.9190420     1.5806020    -0.4540200
  H        1.8890940     0.8204890    -1.5196510
  H        1.9757950     1.7355060    -0.0222730
  H        3.3123780    -0.9936500    -0.4915720
  H        4.1482470     0.5747890    -0.4771690
  H        3.4100600    -0.0687260     1.0041520
units angstrom
no_reorient  #important for SAPT in psi4, default
symmetry c1  #important for SAPT in psi4, default
}

set PROPERTIES_ORIGIN ["COM"]
properties('MP2/aug-cc-pvtz', properties = ['dipole'])
--------------------------------------------------------------------------

    Molecular point group: c1
  Charge       = 0
  Multiplicity = 1
  Basis Set: AUG-CC-PVTZ
    Blend: AUG-CC-PVTZ
  Basis Set: (AUG-CC-PVTZ AUX)
    Blend: AUG-CC-PVTZ-JKFIT

    Orbital Energies [Eh]
    ---------------------

    Doubly Occupied:

       1A    -20.516983     2A    -15.577655     3A    -11.345915
       4A    -11.272427     5A    -11.232848     6A    -11.225677
       7A    -11.216530     8A    -11.208766     9A     -1.366020
      10A     -1.230006    11A     -1.065703    12A     -1.028874
      13A     -0.942301    14A     -0.883310    15A     -0.808866
      16A     -0.789843    17A     -0.680403    18A     -0.653238
      19A     -0.632572    20A     -0.614482    21A     -0.597290
      22A     -0.580387    23A     -0.548165    24A     -0.547226
      25A     -0.526495    26A     -0.509000    27A     -0.502089
      28A     -0.495521    29A     -0.489236    30A     -0.478722
      31A     -0.413891    32A     -0.393698

  @DF-RHF Final Energy:  -364.24165668234451

   => Energetics <=

    Nuclear Repulsion Energy =            391.5307102973511633
    One-Electron Energy =               -1270.7964569426433172
    Two-Electron Energy =                 515.0240899629476417
    Total Energy =                       -364.2416566823445692
  Basis Set: (AUG-CC-PVTZ AUX)
    Blend: AUG-CC-PVTZ-RI
    Molecular point group: c1

    Geometry (in Angstrom), charge = 0, multiplicity = 1:

       Center              X                  Y                   Z               Mass
    ------------   -----------------  -----------------  -----------------  -----------------
         O            0.919469017174    -1.133017024806     0.671685389492    15.994914619570
         N           -0.394895282826     0.635294675194    -0.129039310508    14.003074004430
         C           -1.693218182826    -0.063114624806     0.241112589492    12.000000000000
         C           -2.100498182826    -1.069833624806    -0.829737410508    12.000000000000
         C           -2.752292182826     1.004590375194     0.470273589492    12.000000000000
         C            0.767681817174    -0.047358624806     0.101250589492    12.000000000000
         C            1.979256817174     0.709918375194    -0.423993410508    12.000000000000
         C            3.283767817174     0.009927375194    -0.073578410508    12.000000000000
         H           -1.506313182826    -0.603604624806     1.173077589492     1.007825032230
         H           -0.456420182826     1.389838375194    -0.712818410508     1.007825032230
         H           -3.029933182826    -1.577717624806    -0.552562410508     1.007825032230
         H           -2.256588182826    -0.564917624806    -1.789118410508     1.007825032230
         H           -1.316790182826    -1.820959624806    -0.949400410508     1.007825032230
         H           -2.441937182826     1.699627375194     1.254680589492     1.007825032230
         H           -3.699568182826     0.545181375194     0.766076589492     1.007825032230
         H           -2.932241182826     1.573849375194    -0.448770410508     1.007825032230
         H            1.875894817174     0.813736375194    -1.514401410508     1.007825032230
         H            1.962595817174     1.728753375194    -0.017023410508     1.007825032230
         H            3.299178817174    -1.000402624806    -0.486322410508     1.007825032230
         H            4.135047817174     0.568036375194    -0.471919410508     1.007825032230
         H            3.396860817174    -0.075478624806     1.009401589492     1.007825032230

  Basis Set: AUG-CC-PVTZ
    Blend: AUG-CC-PVTZ
  Basis Set: (AUG-CC-PVTZ AUX)
    Blend: AUG-CC-PVTZ-JKFIT
	 Reference Energy          =    -364.2416566823445123 [Eh]
	 Singles Energy            =      -0.0000000000000000 [Eh]
	 Same-Spin Energy          =      -0.3752898291093167 [Eh]
	 Opposite-Spin Energy      =      -1.2750205071971130 [Eh]
	 Correlation Energy        =      -1.6503103363064298 [Eh]
	 Total Energy              =    -365.8919670186509165 [Eh]

	 ================> DF-SCS-MP2 Energies <==================
	-----------------------------------------------------------
	 SCS Same-Spin Scale       =       0.3333333333333333 [-]
	 SCS Opposite-Spin Scale   =       1.2000000000000000 [-]
	 SCS Same-Spin Energy      =      -0.1250966097031056 [Eh]
	 SCS Opposite-Spin Energy  =      -1.5300246086365357 [Eh]
	 SCS Correlation Energy    =      -1.6551212183396413 [Eh]
	 SCS Total Energy          =    -365.8967779006841283 [Eh]
	-----------------------------------------------------------

  Dipole Moment: [D]
     X:    -1.6695      Y:     2.5990      Z:    -1.5841     Total:     3.4715

*** Psi4 exiting successfully. Buy a developer a beer!
