                               Psi4 1.3.2 release

  ==> Input File <==

--------------------------------------------------------------------------
#psi4
#
memory 32 gb

molecule  {
0 1
  O        0.8686370    -1.1285810     0.6753960
  N       -0.4170490     0.5891890    -0.1013730
  C       -1.6800190    -0.0563620     0.2358630
  C       -2.0872990    -1.0630810    -0.8349870
  C       -2.7390930     1.0113430     0.4650240
  C        0.7970998    -0.0590028     0.1062171
  C        1.9924560     0.7166710    -0.4292430
  C        3.2831652    -0.0023841    -0.0665358
  H       -1.4931140    -0.5968520     1.1678280
  H       -0.4432210     1.3965910    -0.7180680
  H       -3.0167340    -1.5709650    -0.5578120
  H       -2.2433890    -0.5581650    -1.7943680
  H       -1.3035910    -1.8142070    -0.9546500
  H       -2.4287380     1.7063800     1.2494310
  H       -3.6863690     0.5519340     0.7608270
  H       -2.9190420     1.5806020    -0.4540200
  H        1.8890940     0.8204890    -1.5196510
  H        1.9757950     1.7355060    -0.0222730
  H        3.3123780    -0.9936500    -0.4915720
  H        4.1482470     0.5747890    -0.4771690
  H        3.4100600    -0.0687260     1.0041520
units angstrom
no_reorient  #important for SAPT in psi4, default
symmetry c1  #important for SAPT in psi4, default
}

set PROPERTIES_ORIGIN ["COM"]
properties('MP2/aug-cc-pvtz', properties = ['dipole'])
--------------------------------------------------------------------------

    Molecular point group: c1
  Charge       = 0
  Multiplicity = 1
  Basis Set: AUG-CC-PVTZ
    Blend: AUG-CC-PVTZ
  Basis Set: (AUG-CC-PVTZ AUX)
    Blend: AUG-CC-PVTZ-JKFIT

    Orbital Energies [Eh]
    ---------------------

    Doubly Occupied:

       1A    -20.519315     2A    -15.573014     3A    -11.345044
       4A    -11.262452     5A    -11.240381     6A    -11.221652
       7A    -11.214255     8A    -11.211075     9A     -1.381734
      10A     -1.222579    11A     -1.064858    12A     -1.027946
      13A     -0.938207    14A     -0.886595    15A     -0.805070
      16A     -0.773195    17A     -0.685320    18A     -0.652199
      19A     -0.637085    20A     -0.612465    21A     -0.599352
      22A     -0.578034    23A     -0.547044    24A     -0.543842
      25A     -0.527964    26A     -0.514983    27A     -0.506153
      28A     -0.498522    29A     -0.489949    30A     -0.478508
      31A     -0.419095    32A     -0.383945

  @DF-RHF Final Energy:  -364.24862847751479

   => Energetics <=

    Nuclear Repulsion Energy =            392.6711065951080286
    One-Electron Energy =               -1273.1158071360271151
    Two-Electron Energy =                 516.1960720634042445
    Total Energy =                       -364.2486284775147851
  Basis Set: (AUG-CC-PVTZ AUX)
    Blend: AUG-CC-PVTZ-RI
    Molecular point group: c1

    Geometry (in Angstrom), charge = 0, multiplicity = 1:

       Center              X                  Y                   Z               Mass
    ------------   -----------------  -----------------  -----------------  -----------------
         O            0.868385015734    -1.124675359353     0.673049210779    15.994914619570
         N           -0.417300984266     0.593094640647    -0.103719789221    14.003074004430
         C           -1.680270984266    -0.052456359353     0.233516210779    12.000000000000
         C           -2.087550984266    -1.059175359353    -0.837333789221    12.000000000000
         C           -2.739344984266     1.015248640647     0.462677210779    12.000000000000
         C            0.796847815734    -0.055097159353     0.103870310779    12.000000000000
         C            1.992204015734     0.720576640647    -0.431589789221    12.000000000000
         C            3.282913215734     0.001521540647    -0.068882589221    12.000000000000
         H           -1.493365984266    -0.592946359353     1.165481210779     1.007825032230
         H           -0.443472984266     1.400496640647    -0.720414789221     1.007825032230
         H           -3.016985984266    -1.567059359353    -0.560158789221     1.007825032230
         H           -2.243640984266    -0.554259359353    -1.796714789221     1.007825032230
         H           -1.303842984266    -1.810301359353    -0.956996789221     1.007825032230
         H           -2.428989984266     1.710285640647     1.247084210779     1.007825032230
         H           -3.686620984266     0.555839640647     0.758480210779     1.007825032230
         H           -2.919293984266     1.584507640647    -0.456366789221     1.007825032230
         H            1.888842015734     0.824394640647    -1.521997789221     1.007825032230
         H            1.975543015734     1.739411640647    -0.024619789221     1.007825032230
         H            3.312126015734    -0.989744359353    -0.493918789221     1.007825032230
         H            4.147995015734     0.578694640647    -0.479515789221     1.007825032230
         H            3.409808015734    -0.064820359353     1.001805210779     1.007825032230

  Basis Set: AUG-CC-PVTZ
    Blend: AUG-CC-PVTZ
  Basis Set: (AUG-CC-PVTZ AUX)
    Blend: AUG-CC-PVTZ-JKFIT
	 Reference Energy          =    -364.2486284775147851 [Eh]
	 Singles Energy            =      -0.0000000000000000 [Eh]
	 Same-Spin Energy          =      -0.3754426323274549 [Eh]
	 Opposite-Spin Energy      =      -1.2745552780974116 [Eh]
	 Correlation Energy        =      -1.6499979104248665 [Eh]
	 Total Energy              =    -365.8986263879396574 [Eh]

	 ================> DF-SCS-MP2 Energies <==================
	-----------------------------------------------------------
	 SCS Same-Spin Scale       =       0.3333333333333333 [-]
	 SCS Opposite-Spin Scale   =       1.2000000000000000 [-]
	 SCS Same-Spin Energy      =      -0.1251475441091516 [Eh]
	 SCS Opposite-Spin Energy  =      -1.5294663337168939 [Eh]
	 SCS Correlation Energy    =      -1.6546138778260455 [Eh]
	 SCS Total Energy          =    -365.9032423553408080 [Eh]
	-----------------------------------------------------------

  Dipole Moment: [D]
     X:    -1.1105      Y:     2.5905      Z:    -1.5758     Total:     3.2291

*** Psi4 exiting successfully. Buy a developer a beer!
