                               Psi4 1.3.2 release

  ==> Input File <==

--------------------------------------------------------------------------
#psi4
#
memory 32 gb

molecule  {
0 1
  O        0.8686370    -1.1285810     0.6753960
  N       -0.4226480     0.5800977    -0.0960386
  C       -1.6800190    -0.0563620     0.2358630
  C       -2.0872990    -1.0630810    -0.8349870
  C       -2.7390930     1.0113430     0.4650240
  C        0.7808810    -0.0406060     0.0960010
  C        2.0003508     0.7068651    -0.4250020
  C        3.2969670     0.0166800    -0.0788280
  H       -1.4931140    -0.5968520     1.1678280
  H       -0.4432210     1.3965910    -0.7180680
  H       -3.0167340    -1.5709650    -0.5578120
  H       -2.2433890    -0.5581650    -1.7943680
  H       -1.3035910    -1.8142070    -0.9546500
  H       -2.4287380     1.7063800     1.2494310
  H       -3.6863690     0.5519340     0.7608270
  H       -2.9190420     1.5806020    -0.4540200
  H        1.8890940     0.8204890    -1.5196510
  H        1.9757950     1.7355060    -0.0222730
  H        3.3123780    -0.9936500    -0.4915720
  H        4.1482470     0.5747890    -0.4771690
  H        3.4100600    -0.0687260     1.0041520
units angstrom
no_reorient  #important for SAPT in psi4, default
symmetry c1  #important for SAPT in psi4, default
}

set PROPERTIES_ORIGIN ["COM"]
properties('MP2/aug-cc-pvtz', properties = ['dipole'])
--------------------------------------------------------------------------

    Molecular point group: c1
  Charge       = 0
  Multiplicity = 1
  Basis Set: AUG-CC-PVTZ
    Blend: AUG-CC-PVTZ
  Basis Set: (AUG-CC-PVTZ AUX)
    Blend: AUG-CC-PVTZ-JKFIT

    Orbital Energies [Eh]
    ---------------------

    Doubly Occupied:

       1A    -20.512706     2A    -15.579108     3A    -11.344767
       4A    -11.264238     5A    -11.241672     6A    -11.223448
       7A    -11.213380     8A    -11.212156     9A     -1.367319
      10A     -1.229280    11A     -1.066705    12A     -1.031106
      13A     -0.939824    14A     -0.888628    15A     -0.808888
      16A     -0.775737    17A     -0.682568    18A     -0.653591
      19A     -0.635106    20A     -0.614043    21A     -0.593117
      22A     -0.577747    23A     -0.551594    24A     -0.545276
      25A     -0.525680    26A     -0.513687    27A     -0.511722
      28A     -0.496296    29A     -0.487035    30A     -0.476132
      31A     -0.417073    32A     -0.384788

  @DF-RHF Final Energy:  -364.24846892655347

   => Energetics <=

    Nuclear Repulsion Energy =            392.6904157876228965
    One-Electron Energy =               -1273.1489385070901790
    Two-Electron Energy =                 516.2100537929138682
    Total Energy =                       -364.2484689265534143
  Basis Set: (AUG-CC-PVTZ AUX)
    Blend: AUG-CC-PVTZ-RI
    Molecular point group: c1

    Geometry (in Angstrom), charge = 0, multiplicity = 1:

       Center              X                  Y                   Z               Mass
    ------------   -----------------  -----------------  -----------------  -----------------
         O            0.868495090824    -1.126452547550     0.674304727383    15.994914619570
         N           -0.422789909176     0.582226152450    -0.097129872617    14.003074004430
         C           -1.680160909176    -0.054233547550     0.234771727383    12.000000000000
         C           -2.087440909176    -1.060952547550    -0.836078272617    12.000000000000
         C           -2.739234909176     1.013471452450     0.463932727383    12.000000000000
         C            0.780739090824    -0.038477547550     0.094909727383    12.000000000000
         C            2.000208890824     0.708993552450    -0.426093272617    12.000000000000
         C            3.296825090824     0.018808452450    -0.079919272617    12.000000000000
         H           -1.493255909176    -0.594723547550     1.166736727383     1.007825032230
         H           -0.443362909176     1.398719452450    -0.719159272617     1.007825032230
         H           -3.016875909176    -1.568836547550    -0.558903272617     1.007825032230
         H           -2.243530909176    -0.556036547550    -1.795459272617     1.007825032230
         H           -1.303732909176    -1.812078547550    -0.955741272617     1.007825032230
         H           -2.428879909176     1.708508452450     1.248339727383     1.007825032230
         H           -3.686510909176     0.554062452450     0.759735727383     1.007825032230
         H           -2.919183909176     1.582730452450    -0.455111272617     1.007825032230
         H            1.888952090824     0.822617452450    -1.520742272617     1.007825032230
         H            1.975653090824     1.737634452450    -0.023364272617     1.007825032230
         H            3.312236090824    -0.991521547550    -0.492663272617     1.007825032230
         H            4.148105090824     0.576917452450    -0.478260272617     1.007825032230
         H            3.409918090824    -0.066597547550     1.003060727383     1.007825032230

  Basis Set: AUG-CC-PVTZ
    Blend: AUG-CC-PVTZ
  Basis Set: (AUG-CC-PVTZ AUX)
    Blend: AUG-CC-PVTZ-JKFIT
	 Reference Energy          =    -364.2484689265534712 [Eh]
	 Singles Energy            =      -0.0000000000000000 [Eh]
	 Same-Spin Energy          =      -0.3759611648958203 [Eh]
	 Opposite-Spin Energy      =      -1.2753248283994083 [Eh]
	 Correlation Energy        =      -1.6512859932952286 [Eh]
	 Total Energy              =    -365.8997549198487036 [Eh]

	 ================> DF-SCS-MP2 Energies <==================
	-----------------------------------------------------------
	 SCS Same-Spin Scale       =       0.3333333333333333 [-]
	 SCS Opposite-Spin Scale   =       1.2000000000000000 [-]
	 SCS Same-Spin Energy      =      -0.1253203882986068 [Eh]
	 SCS Opposite-Spin Energy  =      -1.5303897940792899 [Eh]
	 SCS Correlation Energy    =      -1.6557101823778966 [Eh]
	 SCS Total Energy          =    -365.9041791089313733 [Eh]
	-----------------------------------------------------------

  Dipole Moment: [D]
     X:    -1.2617      Y:     2.7409      Z:    -1.6449     Total:     3.4366

*** Psi4 exiting successfully. Buy a developer a beer!
