                               Psi4 1.3.2 release

  ==> Input File <==

--------------------------------------------------------------------------
#psi4
#
memory 32 gb

molecule  {
0 1
  O        0.8686370    -1.1285810     0.6753960
  N       -0.4492602     0.5339464    -0.0691554
  C       -1.6800190    -0.0563620     0.2358630
  C       -2.0872990    -1.0630810    -0.8349870
  C       -2.7390930     1.0113430     0.4650240
  C        0.7808810    -0.0406060     0.0960010
  C        2.0384197     0.6569968    -0.4032086
  C        3.2969670     0.0166800    -0.0788280
  H       -1.4931140    -0.5968520     1.1678280
  H       -0.4432210     1.3965910    -0.7180680
  H       -3.0167340    -1.5709650    -0.5578120
  H       -2.2433890    -0.5581650    -1.7943680
  H       -1.3035910    -1.8142070    -0.9546500
  H       -2.4287380     1.7063800     1.2494310
  H       -3.6863690     0.5519340     0.7608270
  H       -2.9190420     1.5806020    -0.4540200
  H        1.8890940     0.8204890    -1.5196510
  H        1.9757950     1.7355060    -0.0222730
  H        3.3123780    -0.9936500    -0.4915720
  H        4.1482470     0.5747890    -0.4771690
  H        3.4100600    -0.0687260     1.0041520
units angstrom
no_reorient  #important for SAPT in psi4, default
symmetry c1  #important for SAPT in psi4, default
}

set PROPERTIES_ORIGIN ["COM"]
properties('MP2/aug-cc-pvtz', properties = ['dipole'])
--------------------------------------------------------------------------

    Molecular point group: c1
  Charge       = 0
  Multiplicity = 1
  Basis Set: AUG-CC-PVTZ
    Blend: AUG-CC-PVTZ
  Basis Set: (AUG-CC-PVTZ AUX)
    Blend: AUG-CC-PVTZ-JKFIT

    Orbital Energies [Eh]
    ---------------------

    Doubly Occupied:

       1A    -20.509125     2A    -15.582981     3A    -11.344996
       4A    -11.260766     5A    -11.249387     6A    -11.223335
       7A    -11.212784     8A    -11.210289     9A     -1.368751
      10A     -1.234007    11A     -1.071715    12A     -1.036402
      13A     -0.939558    14A     -0.893137    15A     -0.813357
      16A     -0.764067    17A     -0.683852    18A     -0.653427
      19A     -0.634803    20A     -0.615434    21A     -0.593586
      22A     -0.573556    23A     -0.563460    24A     -0.544614
      25A     -0.532006    26A     -0.522753    27A     -0.509178
      28A     -0.495055    29A     -0.481682    30A     -0.467739
      31A     -0.415435    32A     -0.379701

  @DF-RHF Final Energy:  -364.23230834022735

   => Energetics <=

    Nuclear Repulsion Energy =            393.7157835883315329
    One-Electron Energy =               -1275.1343062761250167
    Two-Electron Energy =                 517.1862143475660787
    Total Energy =                       -364.2323083402274051
  Basis Set: (AUG-CC-PVTZ AUX)
    Blend: AUG-CC-PVTZ-RI
    Molecular point group: c1

    Geometry (in Angstrom), charge = 0, multiplicity = 1:

       Center              X                  Y                   Z               Mass
    ------------   -----------------  -----------------  -----------------  -----------------
         O            0.867763775419    -1.115638622601     0.668761983472    15.994914619570
         N           -0.450133424581     0.546888777399    -0.075789416528    14.003074004430
         C           -1.680892224581    -0.043419622601     0.229228983472    12.000000000000
         C           -2.088172224581    -1.050138622601    -0.841621016528    12.000000000000
         C           -2.739966224581     1.024285377399     0.458389983472    12.000000000000
         C            0.780007775419    -0.027663622601     0.089366983472    12.000000000000
         C            2.037546475419     0.669939177399    -0.409842616528    12.000000000000
         C            3.296093775419     0.029622377399    -0.085462016528    12.000000000000
         H           -1.493987224581    -0.583909622601     1.161193983472     1.007825032230
         H           -0.444094224581     1.409533377399    -0.724702016528     1.007825032230
         H           -3.017607224581    -1.558022622601    -0.564446016528     1.007825032230
         H           -2.244262224581    -0.545222622601    -1.801002016528     1.007825032230
         H           -1.304464224581    -1.801264622601    -0.961284016528     1.007825032230
         H           -2.429611224581     1.719322377399     1.242796983472     1.007825032230
         H           -3.687242224581     0.564876377399     0.754192983472     1.007825032230
         H           -2.919915224581     1.593544377399    -0.460654016528     1.007825032230
         H            1.888220775419     0.833431377399    -1.526285016528     1.007825032230
         H            1.974921775419     1.748448377399    -0.028907016528     1.007825032230
         H            3.311504775419    -0.980707622601    -0.498206016528     1.007825032230
         H            4.147373775419     0.587731377399    -0.483803016528     1.007825032230
         H            3.409186775419    -0.055783622601     0.997517983472     1.007825032230

  Basis Set: AUG-CC-PVTZ
    Blend: AUG-CC-PVTZ
  Basis Set: (AUG-CC-PVTZ AUX)
    Blend: AUG-CC-PVTZ-JKFIT
	 Reference Energy          =    -364.2323083402273483 [Eh]
	 Singles Energy            =      -0.0000000000000000 [Eh]
	 Same-Spin Energy          =      -0.3772524365858312 [Eh]
	 Opposite-Spin Energy      =      -1.2769695681556452 [Eh]
	 Correlation Energy        =      -1.6542220047414764 [Eh]
	 Total Energy              =    -365.8865303449688327 [Eh]

	 ================> DF-SCS-MP2 Energies <==================
	-----------------------------------------------------------
	 SCS Same-Spin Scale       =       0.3333333333333333 [-]
	 SCS Opposite-Spin Scale   =       1.2000000000000000 [-]
	 SCS Same-Spin Energy      =      -0.1257508121952771 [Eh]
	 SCS Opposite-Spin Energy  =      -1.5323634817867742 [Eh]
	 SCS Correlation Energy    =      -1.6581142939820512 [Eh]
	 SCS Total Energy          =    -365.8904226342094148 [Eh]
	-----------------------------------------------------------

  Dipole Moment: [D]
     X:    -1.0999      Y:     2.7979      Z:    -1.6524     Total:     3.4305

*** Psi4 exiting successfully. Buy a developer a beer!
