                               Psi4 1.3.2 release

  ==> Input File <==

--------------------------------------------------------------------------
#psi4
#
memory 32 gb

molecule  {
0 1
  O        0.8686370    -1.1285810     0.6753960
  N       -0.4170490     0.5891890    -0.1013730
  C       -1.7015531    -0.0630492     0.2500090
  C       -2.0872990    -1.0630810    -0.8349870
  C       -2.7390930     1.0113430     0.4650240
  C        0.7808810    -0.0406060     0.0960010
  C        1.9924560     0.7166710    -0.4292430
  C        3.2969670     0.0166800    -0.0788280
  H       -1.4931140    -0.5968520     1.1678280
  H       -0.4432210     1.3965910    -0.7180680
  H       -3.0172969    -1.5607634    -0.5416651
  H       -2.2433890    -0.5581650    -1.7943680
  H       -1.3035910    -1.8142070    -0.9546500
  H       -2.4287380     1.7063800     1.2494310
  H       -3.6863690     0.5519340     0.7608270
  H       -2.9190420     1.5806020    -0.4540200
  H        1.8890940     0.8204890    -1.5196510
  H        1.9757950     1.7355060    -0.0222730
  H        3.3123780    -0.9936500    -0.4915720
  H        4.1482470     0.5747890    -0.4771690
  H        3.4100600    -0.0687260     1.0041520
units angstrom
no_reorient  #important for SAPT in psi4, default
symmetry c1  #important for SAPT in psi4, default
}

set PROPERTIES_ORIGIN ["COM"]
properties('MP2/aug-cc-pvtz', properties = ['dipole'])
--------------------------------------------------------------------------

    Molecular point group: c1
  Charge       = 0
  Multiplicity = 1
  Basis Set: AUG-CC-PVTZ
    Blend: AUG-CC-PVTZ
  Basis Set: (AUG-CC-PVTZ AUX)
    Blend: AUG-CC-PVTZ-JKFIT

    Orbital Energies [Eh]
    ---------------------

    Doubly Occupied:

       1A    -20.512087     2A    -15.576625     3A    -11.343545
       4A    -11.265776     5A    -11.239377     6A    -11.223966
       7A    -11.213483     8A    -11.212852     9A     -1.365393
      10A     -1.223038    11A     -1.066984    12A     -1.030748
      13A     -0.941390    14A     -0.885836    15A     -0.807628
      16A     -0.775815    17A     -0.681335    18A     -0.652357
      19A     -0.634203    20A     -0.615088    21A     -0.592295
      22A     -0.577796    23A     -0.549064    24A     -0.546799
      25A     -0.525519    26A     -0.511913    27A     -0.505438
      28A     -0.498020    29A     -0.492198    30A     -0.479010
      31A     -0.415556    32A     -0.385126

  @DF-RHF Final Energy:  -364.24848248314146

   => Energetics <=

    Nuclear Repulsion Energy =            392.2189103441510269
    One-Electron Energy =               -1272.2422640868530834
    Two-Electron Energy =                 515.7748712595605411
    Total Energy =                       -364.2484824831415153
  Basis Set: (AUG-CC-PVTZ AUX)
    Blend: AUG-CC-PVTZ-RI
    Molecular point group: c1

    Geometry (in Angstrom), charge = 0, multiplicity = 1:

       Center              X                  Y                   Z               Mass
    ------------   -----------------  -----------------  -----------------  -----------------
         O            0.870887024598    -1.127973072392     0.673779658728    15.994914619570
         N           -0.414798975402     0.589796927608    -0.102989341272    14.003074004430
         C           -1.699303075402    -0.062441272392     0.248392658728    12.000000000000
         C           -2.085048975402    -1.062473072392    -0.836603341272    12.000000000000
         C           -2.736842975402     1.011950927608     0.463407658728    12.000000000000
         C            0.783131024598    -0.039998072392     0.094384658728    12.000000000000
         C            1.994706024598     0.717278927608    -0.430859341272    12.000000000000
         C            3.299217024598     0.017287927608    -0.080444341272    12.000000000000
         H           -1.490863975402    -0.596244072392     1.166211658728     1.007825032230
         H           -0.440970975402     1.397198927608    -0.719684341272     1.007825032230
         H           -3.015046875402    -1.560155472392    -0.543281441272     1.007825032230
         H           -2.241138975402    -0.557557072392    -1.795984341272     1.007825032230
         H           -1.301340975402    -1.813599072392    -0.956266341272     1.007825032230
         H           -2.426487975402     1.706987927608     1.247814658728     1.007825032230
         H           -3.684118975402     0.552541927608     0.759210658728     1.007825032230
         H           -2.916791975402     1.581209927608    -0.455636341272     1.007825032230
         H            1.891344024598     0.821096927608    -1.521267341272     1.007825032230
         H            1.978045024598     1.736113927608    -0.023889341272     1.007825032230
         H            3.314628024598    -0.993042072392    -0.493188341272     1.007825032230
         H            4.150497024598     0.575396927608    -0.478785341272     1.007825032230
         H            3.412310024598    -0.068118072392     1.002535658728     1.007825032230

  Basis Set: AUG-CC-PVTZ
    Blend: AUG-CC-PVTZ
  Basis Set: (AUG-CC-PVTZ AUX)
    Blend: AUG-CC-PVTZ-JKFIT
	 Reference Energy          =    -364.2484824831414585 [Eh]
	 Singles Energy            =      -0.0000000000000000 [Eh]
	 Same-Spin Energy          =      -0.3757349194032166 [Eh]
	 Opposite-Spin Energy      =      -1.2752184033564289 [Eh]
	 Correlation Energy        =      -1.6509533227596456 [Eh]
	 Total Energy              =    -365.8994358059010779 [Eh]

	 ================> DF-SCS-MP2 Energies <==================
	-----------------------------------------------------------
	 SCS Same-Spin Scale       =       0.3333333333333333 [-]
	 SCS Opposite-Spin Scale   =       1.2000000000000000 [-]
	 SCS Same-Spin Energy      =      -0.1252449731344055 [Eh]
	 SCS Opposite-Spin Energy  =      -1.5302620840277146 [Eh]
	 SCS Correlation Energy    =      -1.6555070571621200 [Eh]
	 SCS Total Energy          =    -365.9039895403035985 [Eh]
	-----------------------------------------------------------

  Dipole Moment: [D]
     X:    -1.3847      Y:     2.7275      Z:    -1.6317     Total:     3.4668

*** Psi4 exiting successfully. Buy a developer a beer!
