                               Psi4 1.4a3.dev225

  ==> Input File <==

--------------------------------------------------------------------------
#psi4
#
memory 32 gb

molecule  {
0 1
  O        0.8665680     1.1680080    -0.7351460
  N       -0.3660760    -0.5086790     0.1929010
  C       -1.6441200     0.0174450    -0.2761400
  C       -2.1412550     1.1442230     0.6252270
  C       -2.6427120    -1.1266550    -0.3840140
  C        0.8063460     0.1556180    -0.0295640
  C        1.9906838    -0.4133539     0.6315962
  C        3.2825740    -0.2523450    -0.1975960
  H       -1.4466230     0.4281070    -1.2709490
  H       -0.3785050    -1.2608410     0.8714320
  H       -3.0785860     1.5617170     0.2436050
  H       -2.3175770     0.7713190     1.6396860
  H       -1.3960540     1.9417130     0.6641920
  H       -2.2693050    -1.9092940    -1.0497770
  H       -3.5969080    -0.7634960    -0.7753550
  H       -2.8341330    -1.5678230     0.6011330
  H        2.1523320     0.0883960     1.6122110
  H        1.8656800    -1.4909910     0.8873090
  H        3.4076760     0.8004350    -0.4533700
  H        4.1701610    -0.5986810     0.3385000
  H        3.2011700    -0.8174180    -1.1296580
units angstrom
no_reorient  #important for SAPT in psi4, default
symmetry c1  #important for SAPT in psi4, default
}

set PROPERTIES_ORIGIN ["COM"]
properties('MP2/aug-cc-pvtz', properties = ['dipole'])
--------------------------------------------------------------------------

    Molecular point group: c1
  Charge       = 0
  Multiplicity = 1
  Basis Set: AUG-CC-PVTZ
    Blend: AUG-CC-PVTZ
  Basis Set: (AUG-CC-PVTZ AUX)
    Blend: AUG-CC-PVTZ-JKFIT

    Orbital Energies [Eh]
    ---------------------

    Doubly Occupied:

       1A    -20.510406     2A    -15.580089     3A    -11.342775
       4A    -11.265797     5A    -11.240841     6A    -11.224456
       7A    -11.217506     8A    -11.212425     9A     -1.367817
      10A     -1.229694    11A     -1.068933    12A     -1.028924
      13A     -0.940130    14A     -0.893117    15A     -0.808962
      16A     -0.780055    17A     -0.687003    18A     -0.658746
      19A     -0.624992    20A     -0.615369    21A     -0.594685
      22A     -0.576955    23A     -0.557163    24A     -0.545489
      25A     -0.527083    26A     -0.517451    27A     -0.502936
      28A     -0.493548    29A     -0.486262    30A     -0.473128
      31A     -0.419738    32A     -0.386650

  @DF-RHF Final Energy:  -364.24682100122595

   => Energetics <=

    Nuclear Repulsion Energy =            393.2454093469201553
    One-Electron Energy =               -1274.2262127716401210
    Two-Electron Energy =                 516.7339824234940124
    Total Energy =                       -364.2468210012259533
  Basis Set: (AUG-CC-PVTZ AUX)
    Blend: AUG-CC-PVTZ-RI
    Molecular point group: c1

    Geometry (in Angstrom), charge = 0, multiplicity = 1:

       Center              X                  Y                   Z               Mass
    ------------   -----------------  -----------------  -----------------  -----------------
         O            0.849084923436     1.141775052492    -0.714057583576    15.994914619570
         N           -0.383559076564    -0.534911947508     0.213989416424    14.003074004430
         C           -1.661603076564    -0.008787947508    -0.255051583576    12.000000000000
         C           -2.158738076564     1.117990052492     0.646315416424    12.000000000000
         C           -2.660195076564    -1.152887947508    -0.362925583576    12.000000000000
         C            0.788862923436     0.129385052492    -0.008475583576    12.000000000000
         C            1.973200723436    -0.439586847508     0.652684616424    12.000000000000
         C            3.265090923436    -0.278577947508    -0.176507583576    12.000000000000
         H           -1.464106076564     0.401874052492    -1.249860583576     1.007825032230
         H           -0.395988076564    -1.287073947508     0.892520416424     1.007825032230
         H           -3.096069076564     1.535484052492     0.264693416424     1.007825032230
         H           -2.335060076564     0.745086052492     1.660774416424     1.007825032230
         H           -1.413537076564     1.915480052492     0.685280416424     1.007825032230
         H           -2.286788076564    -1.935526947508    -1.028688583576     1.007825032230
         H           -3.614391076564    -0.789728947508    -0.754266583576     1.007825032230
         H           -2.851616076564    -1.594055947508     0.622221416424     1.007825032230
         H            2.134848923436     0.062163052492     1.633299416424     1.007825032230
         H            1.848196923436    -1.517223947508     0.908397416424     1.007825032230
         H            3.390192923436     0.774202052492    -0.432281583576     1.007825032230
         H            4.152677923436    -0.624913947508     0.359588416424     1.007825032230
         H            3.183686923436    -0.843650947508    -1.108569583576     1.007825032230

  Basis Set: AUG-CC-PVTZ
    Blend: AUG-CC-PVTZ
  Basis Set: (AUG-CC-PVTZ AUX)
    Blend: AUG-CC-PVTZ-JKFIT
	 Reference Energy          =    -364.2468210012259533 [Eh]
	 Singles Energy            =      -0.0000000000000000 [Eh]
	 Same-Spin Energy          =      -0.3761087721631228 [Eh]
	 Opposite-Spin Energy      =      -1.2755373241985357 [Eh]
	 Correlation Energy        =      -1.6516460963616586 [Eh]
	 Total Energy              =    -365.8984670975876270 [Eh]

	 ================> DF-SCS-MP2 Energies <==================
	-----------------------------------------------------------
	 SCS Same-Spin Scale       =       0.3333333333333333 [-]
	 SCS Opposite-Spin Scale   =       1.2000000000000000 [-]
	 SCS Same-Spin Energy      =      -0.1253695907210409 [Eh]
	 SCS Opposite-Spin Energy  =      -1.5306447890382429 [Eh]
	 SCS Correlation Energy    =      -1.6560143797592839 [Eh]
	 SCS Total Energy          =    -365.9028353809852092 [Eh]
	-----------------------------------------------------------

  Dipole Moment: [D]
     X:    -1.2210      Y:    -2.6161      Z:     1.9231     Total:     3.4689

*** Psi4 exiting successfully. Buy a developer a beer!
