                               Psi4 1.4a3.dev225

  ==> Input File <==

--------------------------------------------------------------------------
#psi4
#
memory 32 gb

molecule  {
0 1
  O        0.8665680     1.1680080    -0.7351460
  N       -0.3660760    -0.5086790     0.1929010
  C       -1.6879030     0.0354689    -0.2922083
  C       -2.1412550     1.1442230     0.6252270
  C       -2.6427120    -1.1266550    -0.3840140
  C        0.8063460     0.1556180    -0.0295640
  C        2.0309430    -0.4326950     0.6540710
  C        3.2825740    -0.2523450    -0.1975960
  H       -1.4466230     0.4281070    -1.2709490
  H       -0.3785050    -1.2608410     0.8714320
  H       -3.0785860     1.5617170     0.2436050
  H       -2.3175770     0.7713190     1.6396860
  H       -1.3960540     1.9417130     0.6641920
  H       -2.2693050    -1.9092940    -1.0497770
  H       -3.5969080    -0.7634960    -0.7753550
  H       -2.8341330    -1.5678230     0.6011330
  H        2.1523320     0.0883960     1.6122110
  H        1.8656800    -1.4909910     0.8873090
  H        3.4076760     0.8004350    -0.4533700
  H        4.1701610    -0.5986810     0.3385000
  H        3.2011700    -0.8174180    -1.1296580
units angstrom
no_reorient  #important for SAPT in psi4, default
symmetry c1  #important for SAPT in psi4, default
}

set PROPERTIES_ORIGIN ["COM"]
properties('MP2/aug-cc-pvtz', properties = ['dipole'])
--------------------------------------------------------------------------

    Molecular point group: c1
  Charge       = 0
  Multiplicity = 1
  Basis Set: AUG-CC-PVTZ
    Blend: AUG-CC-PVTZ
  Basis Set: (AUG-CC-PVTZ AUX)
    Blend: AUG-CC-PVTZ-JKFIT

    Orbital Energies [Eh]
    ---------------------

    Doubly Occupied:

       1A    -20.508329     2A    -15.577233     3A    -11.341861
       4A    -11.268395     5A    -11.238126     6A    -11.225534
       7A    -11.214471     8A    -11.214070     9A     -1.363133
      10A     -1.218682    11A     -1.068539    12A     -1.032177
      13A     -0.944534    14A     -0.884081    15A     -0.807805
      16A     -0.775727    17A     -0.679903    18A     -0.655341
      19A     -0.623651    20A     -0.620035    21A     -0.591865
      22A     -0.577978    23A     -0.555595    24A     -0.547271
      25A     -0.524660    26A     -0.510307    27A     -0.507438
      28A     -0.497421    29A     -0.492774    30A     -0.478924
      31A     -0.411916    32A     -0.386699

  @DF-RHF Final Energy:  -364.24727723359314

   => Energetics <=

    Nuclear Repulsion Energy =            392.0088010607497040
    One-Electron Energy =               -1271.8232079638994492
    Two-Electron Energy =                 515.5671296695567207
    Total Energy =                       -364.2472772335930813
  Basis Set: (AUG-CC-PVTZ AUX)
    Blend: AUG-CC-PVTZ-RI
    Molecular point group: c1

    Geometry (in Angstrom), charge = 0, multiplicity = 1:

       Center              X                  Y                   Z               Mass
    ------------   -----------------  -----------------  -----------------  -----------------
         O            0.849452305756     1.141912380375    -0.714725508780    15.994914619570
         N           -0.383191694244    -0.534774619625     0.213321491220    14.003074004430
         C           -1.705018694244     0.009373280375    -0.271787808780    12.000000000000
         C           -2.158370694244     1.118127380375     0.645647491220    12.000000000000
         C           -2.659827694244    -1.152750619625    -0.363593508780    12.000000000000
         C            0.789230305756     0.129522380375    -0.009143508780    12.000000000000
         C            2.013827305756    -0.458790619625     0.674491491220    12.000000000000
         C            3.265458305756    -0.278440619625    -0.177175508780    12.000000000000
         H           -1.463738694244     0.402011380375    -1.250528508780     1.007825032230
         H           -0.395620694244    -1.286936619625     0.891852491220     1.007825032230
         H           -3.095701694244     1.535621380375     0.264025491220     1.007825032230
         H           -2.334692694244     0.745223380375     1.660106491220     1.007825032230
         H           -1.413169694244     1.915617380375     0.684612491220     1.007825032230
         H           -2.286420694244    -1.935389619625    -1.029356508780     1.007825032230
         H           -3.614023694244    -0.789591619625    -0.754934508780     1.007825032230
         H           -2.851248694244    -1.593918619625     0.621553491220     1.007825032230
         H            2.135216305756     0.062300380375     1.632631491220     1.007825032230
         H            1.848564305756    -1.517086619625     0.907729491220     1.007825032230
         H            3.390560305756     0.774339380375    -0.432949508780     1.007825032230
         H            4.153045305756    -0.624776619625     0.358920491220     1.007825032230
         H            3.184054305756    -0.843513619625    -1.109237508780     1.007825032230

  Basis Set: AUG-CC-PVTZ
    Blend: AUG-CC-PVTZ
  Basis Set: (AUG-CC-PVTZ AUX)
    Blend: AUG-CC-PVTZ-JKFIT
	 Reference Energy          =    -364.2472772335931381 [Eh]
	 Singles Energy            =      -0.0000000000000000 [Eh]
	 Same-Spin Energy          =      -0.3758403609798903 [Eh]
	 Opposite-Spin Energy      =      -1.2754210102537278 [Eh]
	 Correlation Energy        =      -1.6512613712336179 [Eh]
	 Total Energy              =    -365.8985386048267401 [Eh]

	 ================> DF-SCS-MP2 Energies <==================
	-----------------------------------------------------------
	 SCS Same-Spin Scale       =       0.3333333333333333 [-]
	 SCS Opposite-Spin Scale   =       1.2000000000000000 [-]
	 SCS Same-Spin Energy      =      -0.1252801203266301 [Eh]
	 SCS Opposite-Spin Energy  =      -1.5305052123044733 [Eh]
	 SCS Correlation Energy    =      -1.6557853326311034 [Eh]
	 SCS Total Energy          =    -365.9030625662242642 [Eh]
	-----------------------------------------------------------

  Dipole Moment: [D]
     X:    -1.4506      Y:    -2.5781      Z:     1.8933     Total:     3.5122

*** Psi4 exiting successfully. Buy a developer a beer!
