                               Psi4 1.3.2 release

  ==> Input File <==

--------------------------------------------------------------------------
#psi4
#
memory 32 gb

molecule  {
0 1
  O        0.8686370    -1.1285810     0.6753960
  N       -0.4170490     0.5891890    -0.1013730
  C       -1.6800190    -0.0563620     0.2358630
  C       -2.0872990    -1.0630810    -0.8349870
  C       -2.7390930     1.0113430     0.4650240
  C        0.6057081     0.0514887     0.0671391
  C        1.9924560     0.7166710    -0.4292430
  C        3.2969670     0.0166800    -0.0788280
  H       -1.4931140    -0.5968520     1.1678280
  H       -0.4432210     1.3965910    -0.7180680
  H       -3.0167340    -1.5709650    -0.5578120
  H       -2.2433890    -0.5581650    -1.7943680
  H       -1.3035910    -1.8142070    -0.9546500
  H       -2.4287380     1.7063800     1.2494310
  H       -3.6863690     0.5519340     0.7608270
  H       -2.9190420     1.5806020    -0.4540200
  H        1.8890940     0.8204890    -1.5196510
  H        1.9757950     1.7355060    -0.0222730
  H        3.3123780    -0.9936500    -0.4915720
  H        4.1482470     0.5747890    -0.4771690
  H        3.4100600    -0.0687260     1.0041520
units angstrom
no_reorient  #important for SAPT in psi4, default
symmetry c1  #important for SAPT in psi4, default
}

set PROPERTIES_ORIGIN ["COM"]
properties('MP2/aug-cc-pvtz', properties = ['dipole'])
--------------------------------------------------------------------------

    Molecular point group: c1
  Charge       = 0
  Multiplicity = 1
  Basis Set: AUG-CC-PVTZ
    Blend: AUG-CC-PVTZ
  Basis Set: (AUG-CC-PVTZ AUX)
    Blend: AUG-CC-PVTZ-JKFIT

    Orbital Energies [Eh]
    ---------------------

    Doubly Occupied:

       1A    -20.473974     2A    -15.610407     3A    -11.328082
       4A    -11.282703     5A    -11.238571     6A    -11.237284
       7A    -11.224952     8A    -11.205155     9A     -1.371041
      10A     -1.227551    11A     -1.087259    12A     -1.021054
      13A     -0.953757    14A     -0.889003    15A     -0.834627
      16A     -0.823060    17A     -0.684032    18A     -0.654921
      19A     -0.639360    20A     -0.618458    21A     -0.593963
      22A     -0.563196    23A     -0.559462    24A     -0.549066
      25A     -0.537877    26A     -0.510668    27A     -0.500718
      28A     -0.496417    29A     -0.475608    30A     -0.470108
      31A     -0.381066    32A     -0.376041

  @DF-RHF Final Energy:  -364.18095787888399

   => Energetics <=

    Nuclear Repulsion Energy =            393.5752245271381753
    One-Electron Energy =               -1274.6734787054158460
    Two-Electron Energy =                 516.9172962993936835
    Total Energy =                       -364.1809578788839872
  Basis Set: (AUG-CC-PVTZ AUX)
    Blend: AUG-CC-PVTZ-RI
    Molecular point group: c1

    Geometry (in Angstrom), charge = 0, multiplicity = 1:

       Center              X                  Y                   Z               Mass
    ------------   -----------------  -----------------  -----------------  -----------------
         O            0.886900081716    -1.138182492823     0.678404935640    15.994914619570
         N           -0.398785918284     0.579587507177    -0.098364064360    14.003074004430
         C           -1.661755918284    -0.065963492823     0.238871935640    12.000000000000
         C           -2.069035918284    -1.072682492823    -0.831978064360    12.000000000000
         C           -2.720829918284     1.001741507177     0.468032935640    12.000000000000
         C            0.623971181716     0.041887207177     0.070148035640    12.000000000000
         C            2.010719081716     0.707069507177    -0.426234064360    12.000000000000
         C            3.315230081716     0.007078507177    -0.075819064360    12.000000000000
         H           -1.474850918284    -0.606453492823     1.170836935640     1.007825032230
         H           -0.424957918284     1.386989507177    -0.715059064360     1.007825032230
         H           -2.998470918284    -1.580566492823    -0.554803064360     1.007825032230
         H           -2.225125918284    -0.567766492823    -1.791359064360     1.007825032230
         H           -1.285327918284    -1.823808492823    -0.951641064360     1.007825032230
         H           -2.410474918284     1.696778507177     1.252439935640     1.007825032230
         H           -3.668105918284     0.542332507177     0.763835935640     1.007825032230
         H           -2.900778918284     1.571000507177    -0.451011064360     1.007825032230
         H            1.907357081716     0.810887507177    -1.516642064360     1.007825032230
         H            1.994058081716     1.725904507177    -0.019264064360     1.007825032230
         H            3.330641081716    -1.003251492823    -0.488563064360     1.007825032230
         H            4.166510081716     0.565187507177    -0.474160064360     1.007825032230
         H            3.428323081716    -0.078327492823     1.007160935640     1.007825032230

  Basis Set: AUG-CC-PVTZ
    Blend: AUG-CC-PVTZ
  Basis Set: (AUG-CC-PVTZ AUX)
    Blend: AUG-CC-PVTZ-JKFIT
	 Reference Energy          =    -364.1809578788839872 [Eh]
	 Singles Energy            =      -0.0000000000000000 [Eh]
	 Same-Spin Energy          =      -0.3772614729556524 [Eh]
	 Opposite-Spin Energy      =      -1.2778905772046083 [Eh]
	 Correlation Energy        =      -1.6551520501602606 [Eh]
	 Total Energy              =    -365.8361099290442553 [Eh]

	 ================> DF-SCS-MP2 Energies <==================
	-----------------------------------------------------------
	 SCS Same-Spin Scale       =       0.3333333333333333 [-]
	 SCS Opposite-Spin Scale   =       1.2000000000000000 [-]
	 SCS Same-Spin Energy      =      -0.1257538243185508 [Eh]
	 SCS Opposite-Spin Energy  =      -1.5334686926455299 [Eh]
	 SCS Correlation Energy    =      -1.6592225169640806 [Eh]
	 SCS Total Energy          =    -365.8401803958480514 [Eh]
	-----------------------------------------------------------

  Dipole Moment: [D]
     X:    -2.8048      Y:     3.4746      Z:    -1.9690     Total:     4.8802

*** Psi4 exiting successfully. Buy a developer a beer!
