                               Psi4 1.3.2 release

  ==> Input File <==

--------------------------------------------------------------------------
#psi4
#
memory 32 gb

molecule  {
0 1
  O        0.8579370    -1.1286772     0.6767356
  N       -0.4226244     0.5802075    -0.0958320
  C       -1.6800190    -0.0563620     0.2358630
  C       -2.0872990    -1.0630810    -0.8349870
  C       -2.7390930     1.0113430     0.4650240
  C        0.7808810    -0.0406060     0.0960010
  C        1.9924560     0.7166710    -0.4292430
  C        3.2969670     0.0166800    -0.0788280
  H       -1.4931140    -0.5968520     1.1678280
  H       -0.4432210     1.3965910    -0.7180680
  H       -3.0167340    -1.5709650    -0.5578120
  H       -2.2433890    -0.5581650    -1.7943680
  H       -1.3035910    -1.8142070    -0.9546500
  H       -2.4287380     1.7063800     1.2494310
  H       -3.6863690     0.5519340     0.7608270
  H       -2.9190420     1.5806020    -0.4540200
  H        1.8890940     0.8204890    -1.5196510
  H        1.9757950     1.7355060    -0.0222730
  H        3.3123780    -0.9936500    -0.4915720
  H        4.1482470     0.5747890    -0.4771690
  H        3.4100600    -0.0687260     1.0041520
units angstrom
no_reorient  #important for SAPT in psi4, default
symmetry c1  #important for SAPT in psi4, default
}

set PROPERTIES_ORIGIN ["COM"]
properties('MP2/aug-cc-pvtz', properties = ['dipole'])
--------------------------------------------------------------------------

    Molecular point group: c1
  Charge       = 0
  Multiplicity = 1
  Basis Set: AUG-CC-PVTZ
    Blend: AUG-CC-PVTZ
  Basis Set: (AUG-CC-PVTZ AUX)
    Blend: AUG-CC-PVTZ-JKFIT

    Orbital Energies [Eh]
    ---------------------

    Doubly Occupied:

       1A    -20.512895     2A    -15.578418     3A    -11.344836
       4A    -11.263724     5A    -11.241515     6A    -11.223135
       7A    -11.214279     8A    -11.211871     9A     -1.367495
      10A     -1.228638    11A     -1.066371    12A     -1.029848
      13A     -0.939509    14A     -0.888807    15A     -0.809020
      16A     -0.775627    17A     -0.682808    18A     -0.653420
      19A     -0.635976    20A     -0.613860    21A     -0.593036
      22A     -0.577491    23A     -0.550173    24A     -0.544979
      25A     -0.525467    26A     -0.513292    27A     -0.510554
      28A     -0.497161    29A     -0.487677    30A     -0.476773
      31A     -0.417597    32A     -0.384369

  @DF-RHF Final Energy:  -364.24869111938040

   => Energetics <=

    Nuclear Repulsion Energy =            392.6727933096158836
    One-Electron Energy =               -1273.1217253878148767
    Two-Electron Energy =                 516.2002409588186538
    Total Energy =                       -364.2486911193803962
  Basis Set: (AUG-CC-PVTZ AUX)
    Blend: AUG-CC-PVTZ-RI
    Molecular point group: c1

    Geometry (in Angstrom), charge = 0, multiplicity = 1:

       Center              X                  Y                   Z               Mass
    ------------   -----------------  -----------------  -----------------  -----------------
         O            0.860102244374    -1.127571075257     0.675875189618    15.994914619570
         N           -0.420459155626     0.581313624743    -0.096692410382    14.003074004430
         C           -1.677853755626    -0.055255875257     0.235002589618    12.000000000000
         C           -2.085133755626    -1.061974875257    -0.835847410382    12.000000000000
         C           -2.736927755626     1.012449124743     0.464163589618    12.000000000000
         C            0.783046244374    -0.039499875257     0.095140589618    12.000000000000
         C            1.994621244374     0.717777124743    -0.430103410382    12.000000000000
         C            3.299132244374     0.017786124743    -0.079688410382    12.000000000000
         H           -1.490948755626    -0.595745875257     1.166967589618     1.007825032230
         H           -0.441055755626     1.397697124743    -0.718928410382     1.007825032230
         H           -3.014568755626    -1.569858875257    -0.558672410382     1.007825032230
         H           -2.241223755626    -0.557058875257    -1.795228410382     1.007825032230
         H           -1.301425755626    -1.813100875257    -0.955510410382     1.007825032230
         H           -2.426572755626     1.707486124743     1.248570589618     1.007825032230
         H           -3.684203755626     0.553040124743     0.759966589618     1.007825032230
         H           -2.916876755626     1.581708124743    -0.454880410382     1.007825032230
         H            1.891259244374     0.821595124743    -1.520511410382     1.007825032230
         H            1.977960244374     1.736612124743    -0.023133410382     1.007825032230
         H            3.314543244374    -0.992543875257    -0.492432410382     1.007825032230
         H            4.150412244374     0.575895124743    -0.478029410382     1.007825032230
         H            3.412225244374    -0.067619875257     1.003291589618     1.007825032230

  Basis Set: AUG-CC-PVTZ
    Blend: AUG-CC-PVTZ
  Basis Set: (AUG-CC-PVTZ AUX)
    Blend: AUG-CC-PVTZ-JKFIT
	 Reference Energy          =    -364.2486911193803962 [Eh]
	 Singles Energy            =      -0.0000000000000000 [Eh]
	 Same-Spin Energy          =      -0.3759180134236673 [Eh]
	 Opposite-Spin Energy      =      -1.2753148046864153 [Eh]
	 Correlation Energy        =      -1.6512328181100826 [Eh]
	 Total Energy              =    -365.8999239374904846 [Eh]

	 ================> DF-SCS-MP2 Energies <==================
	-----------------------------------------------------------
	 SCS Same-Spin Scale       =       0.3333333333333333 [-]
	 SCS Opposite-Spin Scale   =       1.2000000000000000 [-]
	 SCS Same-Spin Energy      =      -0.1253060044745558 [Eh]
	 SCS Opposite-Spin Energy  =      -1.5303777656236983 [Eh]
	 SCS Correlation Energy    =      -1.6556837700982541 [Eh]
	 SCS Total Energy          =    -365.9043748894786745 [Eh]
	-----------------------------------------------------------

  Dipole Moment: [D]
     X:    -1.2299      Y:     2.7452      Z:    -1.6495     Total:     3.4307

*** Psi4 exiting successfully. Buy a developer a beer!
