                               Psi4 1.3.2 release

  ==> Input File <==

--------------------------------------------------------------------------
#psi4
#
memory 32 gb

molecule  {
0 1
  O        0.8686370    -1.1285810     0.6753960
  N       -0.4170490     0.5891890    -0.1013730
  C       -1.7045406    -0.0147418     0.2198595
  C       -2.0872990    -1.0630810    -0.8349870
  C       -2.7390930     1.0113430     0.4650240
  C        0.8030612    -0.0020200     0.0787314
  C        1.9924560     0.7166710    -0.4292430
  C        3.2969670     0.0166800    -0.0788280
  H       -1.4931140    -0.5968520     1.1678280
  H       -0.4432210     1.3965910    -0.7180680
  H       -3.0167340    -1.5709650    -0.5578120
  H       -2.2433890    -0.5581650    -1.7943680
  H       -1.3035910    -1.8142070    -0.9546500
  H       -2.4287380     1.7063800     1.2494310
  H       -3.6863690     0.5519340     0.7608270
  H       -2.9190420     1.5806020    -0.4540200
  H        1.8890940     0.8204890    -1.5196510
  H        1.9757950     1.7355060    -0.0222730
  H        3.3123780    -0.9936500    -0.4915720
  H        4.1482470     0.5747890    -0.4771690
  H        3.4100600    -0.0687260     1.0041520
units angstrom
no_reorient  #important for SAPT in psi4, default
symmetry c1  #important for SAPT in psi4, default
}

set PROPERTIES_ORIGIN ["COM"]
properties('MP2/aug-cc-pvtz', properties = ['dipole'])
--------------------------------------------------------------------------

    Molecular point group: c1
  Charge       = 0
  Multiplicity = 1
  Basis Set: AUG-CC-PVTZ
    Blend: AUG-CC-PVTZ
  Basis Set: (AUG-CC-PVTZ AUX)
    Blend: AUG-CC-PVTZ-JKFIT

    Orbital Energies [Eh]
    ---------------------

    Doubly Occupied:

       1A    -20.507714     2A    -15.581557     3A    -11.348625
       4A    -11.267593     5A    -11.242885     6A    -11.223563
       7A    -11.215691     8A    -11.212834     9A     -1.344510
      10A     -1.224691    11A     -1.074716    12A     -1.036385
      13A     -0.942404    14A     -0.896231    15A     -0.807747
      16A     -0.774217    17A     -0.684760    18A     -0.650276
      19A     -0.638837    20A     -0.618562    21A     -0.586852
      22A     -0.575021    23A     -0.552668    24A     -0.545316
      25A     -0.523456    26A     -0.512536    27A     -0.510736
      28A     -0.500977    29A     -0.487705    30A     -0.463476
      31A     -0.417373    32A     -0.381347

  @DF-RHF Final Energy:  -364.23825091533024

   => Energetics <=

    Nuclear Repulsion Energy =            392.1981427641298410
    One-Electron Energy =               -1272.1702685349264357
    Two-Electron Energy =                 515.7338748554662970
    Total Energy =                       -364.2382509153302408
  Basis Set: (AUG-CC-PVTZ AUX)
    Blend: AUG-CC-PVTZ-RI
    Molecular point group: c1

    Geometry (in Angstrom), charge = 0, multiplicity = 1:

       Center              X                  Y                   Z               Mass
    ------------   -----------------  -----------------  -----------------  -----------------
         O            0.868881114274    -1.136943028406     0.678864836001    15.994914619570
         N           -0.416804885726     0.580826971594    -0.097904163999    14.003074004430
         C           -1.704296485726    -0.023103828406     0.223328336001    12.000000000000
         C           -2.087054885726    -1.071443028406    -0.831518163999    12.000000000000
         C           -2.738848885726     1.002980971594     0.468492836001    12.000000000000
         C            0.803305314274    -0.010382028406     0.082200236001    12.000000000000
         C            1.992700114274     0.708308971594    -0.425774163999    12.000000000000
         C            3.297211114274     0.008317971594    -0.075359163999    12.000000000000
         H           -1.492869885726    -0.605214028406     1.171296836001     1.007825032230
         H           -0.442976885726     1.388228971594    -0.714599163999     1.007825032230
         H           -3.016489885726    -1.579327028406    -0.554343163999     1.007825032230
         H           -2.243144885726    -0.566527028406    -1.790899163999     1.007825032230
         H           -1.303346885726    -1.822569028406    -0.951181163999     1.007825032230
         H           -2.428493885726     1.698017971594     1.252899836001     1.007825032230
         H           -3.686124885726     0.543571971594     0.764295836001     1.007825032230
         H           -2.918797885726     1.572239971594    -0.450551163999     1.007825032230
         H            1.889338114274     0.812126971594    -1.516182163999     1.007825032230
         H            1.976039114274     1.727143971594    -0.018804163999     1.007825032230
         H            3.312622114274    -1.002012028406    -0.488103163999     1.007825032230
         H            4.148491114273     0.566426971594    -0.473700163999     1.007825032230
         H            3.410304114274    -0.077088028406     1.007620836001     1.007825032230

  Basis Set: AUG-CC-PVTZ
    Blend: AUG-CC-PVTZ
  Basis Set: (AUG-CC-PVTZ AUX)
    Blend: AUG-CC-PVTZ-JKFIT
	 Reference Energy          =    -364.2382509153302408 [Eh]
	 Singles Energy            =      -0.0000000000000000 [Eh]
	 Same-Spin Energy          =      -0.3772884876062522 [Eh]
	 Opposite-Spin Energy      =      -1.2778729725171241 [Eh]
	 Correlation Energy        =      -1.6551614601233764 [Eh]
	 Total Energy              =    -365.8934123754536358 [Eh]

	 ================> DF-SCS-MP2 Energies <==================
	-----------------------------------------------------------
	 SCS Same-Spin Scale       =       0.3333333333333333 [-]
	 SCS Opposite-Spin Scale   =       1.2000000000000000 [-]
	 SCS Same-Spin Energy      =      -0.1257628292020841 [Eh]
	 SCS Opposite-Spin Energy  =      -1.5334475670205487 [Eh]
	 SCS Correlation Energy    =      -1.6592103962226328 [Eh]
	 SCS Total Energy          =    -365.8974613115528882 [Eh]
	-----------------------------------------------------------

  Dipole Moment: [D]
     X:    -1.2577      Y:     2.9367      Z:    -1.7259     Total:     3.6311

*** Psi4 exiting successfully. Buy a developer a beer!
