                               Psi4 1.3.2 release

  ==> Input File <==

--------------------------------------------------------------------------
#psi4
#
memory 32 gb

molecule  {
0 1
  O        0.8686370    -1.1285810     0.6753960
  N       -0.4170490     0.5891890    -0.1013730
  C       -1.6800190    -0.0563620     0.2358630
  C       -2.0872990    -1.0630810    -0.8349870
  C       -2.7390930     1.0113430     0.4650240
  C        0.7808810    -0.0406060     0.0960010
  C        2.1516375     0.8161650    -0.4982516
  C        3.2969670     0.0166800    -0.0788280
  H       -1.4931140    -0.5968520     1.1678280
  H       -0.4432210     1.3965910    -0.7180680
  H       -3.0167340    -1.5709650    -0.5578120
  H       -2.2433890    -0.5581650    -1.7943680
  H       -1.3035910    -1.8142070    -0.9546500
  H       -2.4287380     1.7063800     1.2494310
  H       -3.6863690     0.5519340     0.7608270
  H       -2.9190420     1.5806020    -0.4540200
  H        1.8890940     0.8204890    -1.5196510
  H        1.9757950     1.7355060    -0.0222730
  H        3.3123780    -0.9936500    -0.4915720
  H        4.1482470     0.5747890    -0.4771690
  H        3.4100600    -0.0687260     1.0041520
units angstrom
no_reorient  #important for SAPT in psi4, default
symmetry c1  #important for SAPT in psi4, default
}

set PROPERTIES_ORIGIN ["COM"]
properties('MP2/aug-cc-pvtz', properties = ['dipole'])
--------------------------------------------------------------------------

    Molecular point group: c1
  Charge       = 0
  Multiplicity = 1
  Basis Set: AUG-CC-PVTZ
    Blend: AUG-CC-PVTZ
  Basis Set: (AUG-CC-PVTZ AUX)
    Blend: AUG-CC-PVTZ-JKFIT

    Orbital Energies [Eh]
    ---------------------

    Doubly Occupied:

       1A    -20.513729     2A    -15.579212     3A    -11.345093
       4A    -11.264731     5A    -11.242471     6A    -11.223379
       7A    -11.212399     8A    -11.210991     9A     -1.362076
      10A     -1.226435    11A     -1.062056    12A     -1.036972
      13A     -0.939745    14A     -0.873854    15A     -0.811693
      16A     -0.778797    17A     -0.663538    18A     -0.653039
      19A     -0.644090    20A     -0.614155    21A     -0.590425
      22A     -0.580097    23A     -0.555881    24A     -0.545391
      25A     -0.537174    26A     -0.523090    27A     -0.504525
      28A     -0.495039    29A     -0.491133    30A     -0.479043
      31A     -0.389303    32A     -0.381882

  @DF-RHF Final Energy:  -364.21957144227980

   => Energetics <=

    Nuclear Repulsion Energy =            389.8791988894099063
    One-Electron Energy =               -1267.5346674187837834
    Two-Electron Energy =                 513.4358970870939629
    Total Energy =                       -364.2195714422798574
  Basis Set: (AUG-CC-PVTZ AUX)
    Blend: AUG-CC-PVTZ-RI
    Molecular point group: c1

    Geometry (in Angstrom), charge = 0, multiplicity = 1:

       Center              X                  Y                   Z               Mass
    ------------   -----------------  -----------------  -----------------  -----------------
         O            0.852041152366    -1.138953924801     0.682590527273    15.994914619570
         N           -0.433644847634     0.578816075199    -0.094178472727    14.003074004430
         C           -1.696614847634    -0.066734924801     0.243057527273    12.000000000000
         C           -2.103894847634    -1.073453924801    -0.827792472727    12.000000000000
         C           -2.755688847634     1.000970075199     0.472218527273    12.000000000000
         C            0.764285152366    -0.050978924801     0.103195527273    12.000000000000
         C            2.135041652366     0.805792075199    -0.491057072727    12.000000000000
         C            3.280371152366     0.006307075199    -0.071633472727    12.000000000000
         H           -1.509709847634    -0.607224924801     1.175022527273     1.007825032230
         H           -0.459816847634     1.386218075199    -0.710873472727     1.007825032230
         H           -3.033329847634    -1.581337924801    -0.550617472727     1.007825032230
         H           -2.259984847634    -0.568537924801    -1.787173472727     1.007825032230
         H           -1.320186847634    -1.824579924801    -0.947455472727     1.007825032230
         H           -2.445333847634     1.696007075199     1.256625527273     1.007825032230
         H           -3.702964847634     0.541561075199     0.768021527273     1.007825032230
         H           -2.935637847634     1.570229075199    -0.446825472727     1.007825032230
         H            1.872498152366     0.810116075199    -1.512456472727     1.007825032230
         H            1.959199152366     1.725133075199    -0.015078472727     1.007825032230
         H            3.295782152366    -1.004022924801    -0.484377472727     1.007825032230
         H            4.131651152366     0.564416075199    -0.469974472727     1.007825032230
         H            3.393464152366    -0.079098924801     1.011346527273     1.007825032230

  Basis Set: AUG-CC-PVTZ
    Blend: AUG-CC-PVTZ
  Basis Set: (AUG-CC-PVTZ AUX)
    Blend: AUG-CC-PVTZ-JKFIT
	 Reference Energy          =    -364.2195714422798005 [Eh]
	 Singles Energy            =      -0.0000000000000000 [Eh]
	 Same-Spin Energy          =      -0.3769507552414207 [Eh]
	 Opposite-Spin Energy      =      -1.2777223959880719 [Eh]
	 Correlation Energy        =      -1.6546731512294925 [Eh]
	 Total Energy              =    -365.8742445935092746 [Eh]

	 ================> DF-SCS-MP2 Energies <==================
	-----------------------------------------------------------
	 SCS Same-Spin Scale       =       0.3333333333333333 [-]
	 SCS Opposite-Spin Scale   =       1.2000000000000000 [-]
	 SCS Same-Spin Energy      =      -0.1256502517471402 [Eh]
	 SCS Opposite-Spin Energy  =      -1.5332668751856862 [Eh]
	 SCS Correlation Energy    =      -1.6589171269328264 [Eh]
	 SCS Total Energy          =    -365.8784885692126068 [Eh]
	-----------------------------------------------------------

  Dipole Moment: [D]
     X:    -1.4601      Y:     2.6095      Z:    -1.5651     Total:     3.3750

*** Psi4 exiting successfully. Buy a developer a beer!
