                               Psi4 1.3.2 release

  ==> Input File <==

--------------------------------------------------------------------------
#psi4
#
memory 32 gb

molecule  {
0 1
  O        0.8043653    -1.1279156     0.6827682
  N       -0.4491184     0.5346045    -0.0679161
  C       -1.6800190    -0.0563620     0.2358630
  C       -2.0872990    -1.0630810    -0.8349870
  C       -2.7390930     1.0113430     0.4650240
  C        0.7808810    -0.0406060     0.0960010
  C        1.9924560     0.7166710    -0.4292430
  C        3.2969670     0.0166800    -0.0788280
  H       -1.4931140    -0.5968520     1.1678280
  H       -0.4432210     1.3965910    -0.7180680
  H       -3.0167340    -1.5709650    -0.5578120
  H       -2.2433890    -0.5581650    -1.7943680
  H       -1.3035910    -1.8142070    -0.9546500
  H       -2.4287380     1.7063800     1.2494310
  H       -3.6863690     0.5519340     0.7608270
  H       -2.9190420     1.5806020    -0.4540200
  H        1.8890940     0.8204890    -1.5196510
  H        1.9757950     1.7355060    -0.0222730
  H        3.3123780    -0.9936500    -0.4915720
  H        4.1482470     0.5747890    -0.4771690
  H        3.4100600    -0.0687260     1.0041520
units angstrom
no_reorient  #important for SAPT in psi4, default
symmetry c1  #important for SAPT in psi4, default
}

set PROPERTIES_ORIGIN ["COM"]
properties('MP2/aug-cc-pvtz', properties = ['dipole'])
--------------------------------------------------------------------------

    Molecular point group: c1
  Charge       = 0
  Multiplicity = 1
  Basis Set: AUG-CC-PVTZ
    Blend: AUG-CC-PVTZ
  Basis Set: (AUG-CC-PVTZ AUX)
    Blend: AUG-CC-PVTZ-JKFIT

    Orbital Energies [Eh]
    ---------------------

    Doubly Occupied:

       1A    -20.510151     2A    -15.578730     3A    -11.345231
       4A    -11.257704     5A    -11.247610     6A    -11.221450
       7A    -11.218196     8A    -11.208607     9A     -1.370055
      10A     -1.229586    11A     -1.067933    12A     -1.029303
      13A     -0.937667    14A     -0.893948    15A     -0.814964
      16A     -0.762437    17A     -0.685540    18A     -0.652375
      19A     -0.638369    20A     -0.614659    21A     -0.592936
      22A     -0.571669    23A     -0.551609    24A     -0.542828
      25A     -0.525399    26A     -0.516784    27A     -0.515414
      28A     -0.498913    29A     -0.486156    30A     -0.473525
      31A     -0.418421    32A     -0.376987

  @DF-RHF Final Energy:  -364.23864459970719

   => Energetics <=

    Nuclear Repulsion Energy =            393.6145981931096571
    One-Electron Energy =               -1274.9961656799239336
    Two-Electron Energy =                 517.1429228871070336
    Total Energy =                       -364.2386445997071860
  Basis Set: (AUG-CC-PVTZ AUX)
    Blend: AUG-CC-PVTZ-RI
    Molecular point group: c1

    Geometry (in Angstrom), charge = 0, multiplicity = 1:

       Center              X                  Y                   Z               Mass
    ------------   -----------------  -----------------  -----------------  -----------------
         O            0.817198444120    -1.121367233614     0.677673206243    15.994914619570
         N           -0.436285255880     0.541152866386    -0.073011093757    14.003074004430
         C           -1.667185855880    -0.049813633614     0.230768006243    12.000000000000
         C           -2.074465855880    -1.056532633614    -0.840081993757    12.000000000000
         C           -2.726259855880     1.017891366386     0.459929006243    12.000000000000
         C            0.793714144120    -0.034057633614     0.090906006243    12.000000000000
         C            2.005289144120     0.723219366386    -0.434337993757    12.000000000000
         C            3.309800144120     0.023228366386    -0.083922993757    12.000000000000
         H           -1.480280855880    -0.590303633614     1.162733006243     1.007825032230
         H           -0.430387855880     1.403139366386    -0.723162993757     1.007825032230
         H           -3.003900855880    -1.564416633614    -0.562906993757     1.007825032230
         H           -2.230555855880    -0.551616633614    -1.799462993757     1.007825032230
         H           -1.290757855880    -1.807658633614    -0.959744993757     1.007825032230
         H           -2.415904855880     1.712928366386     1.244336006243     1.007825032230
         H           -3.673535855880     0.558482366386     0.755732006243     1.007825032230
         H           -2.906208855880     1.587150366386    -0.459114993757     1.007825032230
         H            1.901927144120     0.827037366386    -1.524745993757     1.007825032230
         H            1.988628144120     1.742054366386    -0.027367993757     1.007825032230
         H            3.325211144120    -0.987101633614    -0.496666993757     1.007825032230
         H            4.161080144120     0.581337366386    -0.482263993757     1.007825032230
         H            3.422893144120    -0.062177633614     0.999057006243     1.007825032230

  Basis Set: AUG-CC-PVTZ
    Blend: AUG-CC-PVTZ
  Basis Set: (AUG-CC-PVTZ AUX)
    Blend: AUG-CC-PVTZ-JKFIT
	 Reference Energy          =    -364.2386445997071860 [Eh]
	 Singles Energy            =      -0.0000000000000000 [Eh]
	 Same-Spin Energy          =      -0.3768372743756067 [Eh]
	 Opposite-Spin Energy      =      -1.2766018190311141 [Eh]
	 Correlation Energy        =      -1.6534390934067207 [Eh]
	 Total Energy              =    -365.8920836931139320 [Eh]

	 ================> DF-SCS-MP2 Energies <==================
	-----------------------------------------------------------
	 SCS Same-Spin Scale       =       0.3333333333333333 [-]
	 SCS Opposite-Spin Scale   =       1.2000000000000000 [-]
	 SCS Same-Spin Energy      =      -0.1256124247918689 [Eh]
	 SCS Opposite-Spin Energy  =      -1.5319221828373368 [Eh]
	 SCS Correlation Energy    =      -1.6575346076292057 [Eh]
	 SCS Total Energy          =    -365.8961792073363881 [Eh]
	-----------------------------------------------------------

  Dipole Moment: [D]
     X:    -0.9141      Y:     2.8241      Z:    -1.6799     Total:     3.4108

*** Psi4 exiting successfully. Buy a developer a beer!
