                               Psi4 1.3.2 release

  ==> Input File <==

--------------------------------------------------------------------------
#psi4
#
memory 32 gb

molecule  {
0 1
  O        0.8686370    -1.1285810     0.6753960
  N       -0.4153164     0.5615054    -0.1440378
  C       -1.6800190    -0.0563620     0.2358630
  C       -2.0431091    -1.0508023    -0.8620140
  C       -2.7390930     1.0113430     0.4650240
  C        0.7808810    -0.0406060     0.0960010
  C        1.9924560     0.7166710    -0.4292430
  C        3.2969670     0.0166800    -0.0788280
  H       -1.4931140    -0.5968520     1.1678280
  H       -0.4432210     1.3965910    -0.7180680
  H       -3.0167340    -1.5709650    -0.5578120
  H       -2.2433890    -0.5581650    -1.7943680
  H       -1.3035910    -1.8142070    -0.9546500
  H       -2.4287380     1.7063800     1.2494310
  H       -3.6863690     0.5519340     0.7608270
  H       -2.9190420     1.5806020    -0.4540200
  H        1.8890940     0.8204890    -1.5196510
  H        1.9757950     1.7355060    -0.0222730
  H        3.3123780    -0.9936500    -0.4915720
  H        4.1482470     0.5747890    -0.4771690
  H        3.4100600    -0.0687260     1.0041520
units angstrom
no_reorient  #important for SAPT in psi4, default
symmetry c1  #important for SAPT in psi4, default
}

set PROPERTIES_ORIGIN ["COM"]
properties('MP2/aug-cc-pvtz', properties = ['dipole'])
--------------------------------------------------------------------------

    Molecular point group: c1
  Charge       = 0
  Multiplicity = 1
  Basis Set: AUG-CC-PVTZ
    Blend: AUG-CC-PVTZ
  Basis Set: (AUG-CC-PVTZ AUX)
    Blend: AUG-CC-PVTZ-JKFIT

    Orbital Energies [Eh]
    ---------------------

    Doubly Occupied:

       1A    -20.511201     2A    -15.577230     3A    -11.343294
       4A    -11.265884     5A    -11.239590     6A    -11.225722
       7A    -11.212957     8A    -11.212082     9A     -1.366440
      10A     -1.230015    11A     -1.066367    12A     -1.029458
      13A     -0.941480    14A     -0.887211    15A     -0.808597
      16A     -0.780653    17A     -0.682222    18A     -0.654770
      19A     -0.635259    20A     -0.615778    21A     -0.591809
      22A     -0.581444    23A     -0.550030    24A     -0.546840
      25A     -0.520530    26A     -0.512049    27A     -0.503097
      28A     -0.499829    29A     -0.492212    30A     -0.478433
      31A     -0.415546    32A     -0.383132

  @DF-RHF Final Energy:  -364.24583576779497

   => Energetics <=

    Nuclear Repulsion Energy =            392.9992973098568427
    One-Electron Energy =               -1273.7679438924499209
    Two-Electron Energy =                 516.5228108147981629
    Total Energy =                       -364.2458357677949152
  Basis Set: (AUG-CC-PVTZ AUX)
    Blend: AUG-CC-PVTZ-RI
    Molecular point group: c1

    Geometry (in Angstrom), charge = 0, multiplicity = 1:

       Center              X                  Y                   Z               Mass
    ------------   -----------------  -----------------  -----------------  -----------------
         O            0.863819091914    -1.126493084985     0.683404249119    15.994914619570
         N           -0.420134308086     0.563593315015    -0.136029550881    14.003074004430
         C           -1.684836908086    -0.054274084985     0.243871249119    12.000000000000
         C           -2.047927008086    -1.048714384985    -0.854005750881    12.000000000000
         C           -2.743910908086     1.013430915015     0.473032249119    12.000000000000
         C            0.776063091914    -0.038518084985     0.104009249119    12.000000000000
         C            1.987638091914     0.718758915015    -0.421234750881    12.000000000000
         C            3.292149091914     0.018767915015    -0.070819750881    12.000000000000
         H           -1.497931908086    -0.594764084985     1.175836249119     1.007825032230
         H           -0.448038908086     1.398678915015    -0.710059750881     1.007825032230
         H           -3.021551908086    -1.568877084985    -0.549803750881     1.007825032230
         H           -2.248206908086    -0.556077084985    -1.786359750881     1.007825032230
         H           -1.308408908086    -1.812119084985    -0.946641750881     1.007825032230
         H           -2.433555908086     1.708467915015     1.257439249119     1.007825032230
         H           -3.691186908086     0.554021915015     0.768835249119     1.007825032230
         H           -2.923859908086     1.582689915015    -0.446011750881     1.007825032230
         H            1.884276091914     0.822576915015    -1.511642750881     1.007825032230
         H            1.970977091914     1.737593915015    -0.014264750881     1.007825032230
         H            3.307560091914    -0.991562084985    -0.483563750881     1.007825032230
         H            4.143429091914     0.576876915015    -0.469160750881     1.007825032230
         H            3.405242091914    -0.066638084985     1.012160249119     1.007825032230

  Basis Set: AUG-CC-PVTZ
    Blend: AUG-CC-PVTZ
  Basis Set: (AUG-CC-PVTZ AUX)
    Blend: AUG-CC-PVTZ-JKFIT
	 Reference Energy          =    -364.2458357677949721 [Eh]
	 Singles Energy            =      -0.0000000000000000 [Eh]
	 Same-Spin Energy          =      -0.3758735460145579 [Eh]
	 Opposite-Spin Energy      =      -1.2752715026423158 [Eh]
	 Correlation Energy        =      -1.6511450486568737 [Eh]
	 Total Energy              =    -365.8969808164518440 [Eh]

	 ================> DF-SCS-MP2 Energies <==================
	-----------------------------------------------------------
	 SCS Same-Spin Scale       =       0.3333333333333333 [-]
	 SCS Opposite-Spin Scale   =       1.2000000000000000 [-]
	 SCS Same-Spin Energy      =      -0.1252911820048526 [Eh]
	 SCS Opposite-Spin Energy  =      -1.5303258031707789 [Eh]
	 SCS Correlation Energy    =      -1.6556169851756315 [Eh]
	 SCS Total Energy          =    -365.9014527529706129 [Eh]
	-----------------------------------------------------------

  Dipole Moment: [D]
     X:    -1.3590      Y:     2.8591      Z:    -1.5828     Total:     3.5392

*** Psi4 exiting successfully. Buy a developer a beer!
