                               Psi4 1.3.2 release

  ==> Input File <==

--------------------------------------------------------------------------
#psi4
#
memory 32 gb

molecule  {
0 1
  O        0.8686370    -1.1285810     0.6753960
  N       -0.4170490     0.5891890    -0.1013730
  C       -1.6800190    -0.0563620     0.2358630
  C       -2.0872990    -1.0630810    -0.8349870
  C       -2.7390930     1.0113430     0.4650240
  C        0.7536762    -0.0447637     0.0212075
  C        1.9924560     0.7166710    -0.4292430
  C        3.2969670     0.0166800    -0.0788280
  H       -1.4931140    -0.5968520     1.1678280
  H       -0.4432210     1.3965910    -0.7180680
  H       -3.0167340    -1.5709650    -0.5578120
  H       -2.2433890    -0.5581650    -1.7943680
  H       -1.3035910    -1.8142070    -0.9546500
  H       -2.4287380     1.7063800     1.2494310
  H       -3.6863690     0.5519340     0.7608270
  H       -2.9190420     1.5806020    -0.4540200
  H        1.8391734     0.7919727    -1.5161126
  H        1.9757950     1.7355060    -0.0222730
  H        3.3123780    -0.9936500    -0.4915720
  H        4.1482470     0.5747890    -0.4771690
  H        3.4100600    -0.0687260     1.0041520
units angstrom
no_reorient  #important for SAPT in psi4, default
symmetry c1  #important for SAPT in psi4, default
}

set PROPERTIES_ORIGIN ["COM"]
properties('MP2/aug-cc-pvtz', properties = ['dipole'])
--------------------------------------------------------------------------

    Molecular point group: c1
  Charge       = 0
  Multiplicity = 1
  Basis Set: AUG-CC-PVTZ
    Blend: AUG-CC-PVTZ
  Basis Set: (AUG-CC-PVTZ AUX)
    Blend: AUG-CC-PVTZ-JKFIT

    Orbital Energies [Eh]
    ---------------------

    Doubly Occupied:

       1A    -20.505020     2A    -15.585580     3A    -11.343732
       4A    -11.268168     5A    -11.241118     6A    -11.226092
       7A    -11.214914     8A    -11.213282     9A     -1.348418
      10A     -1.233929    11A     -1.069078    12A     -1.031729
      13A     -0.942513    14A     -0.890731    15A     -0.812800
      16A     -0.783789    17A     -0.676261    18A     -0.656207
      19A     -0.636683    20A     -0.616986    21A     -0.584588
      22A     -0.575985    23A     -0.552364    24A     -0.547753
      25A     -0.524966    26A     -0.513095    27A     -0.506562
      28A     -0.497958    29A     -0.488837    30A     -0.472590
      31A     -0.410732    32A     -0.386983

  @DF-RHF Final Energy:  -364.24120434996280

   => Energetics <=

    Nuclear Repulsion Energy =            392.5621528310925328
    One-Electron Energy =               -1272.8878258424642809
    Two-Electron Energy =                 516.0844686614088914
    Total Energy =                       -364.2412043499627998
  Basis Set: (AUG-CC-PVTZ AUX)
    Blend: AUG-CC-PVTZ-RI
    Molecular point group: c1

    Geometry (in Angstrom), charge = 0, multiplicity = 1:

       Center              X                  Y                   Z               Mass
    ------------   -----------------  -----------------  -----------------  -----------------
         O            0.871910418327    -1.127897773606     0.683162663463    15.994914619570
         N           -0.413775581673     0.589872226394    -0.093606336537    14.003074004430
         C           -1.676745581673    -0.055678773606     0.243629663463    12.000000000000
         C           -2.084025581673    -1.062397773606    -0.827220336537    12.000000000000
         C           -2.735819581673     1.012026226394     0.472790663463    12.000000000000
         C            0.756949618327    -0.044080473606     0.028974163463    12.000000000000
         C            1.995729418327     0.717354226394    -0.421476336537    12.000000000000
         C            3.300240418327     0.017363226394    -0.071061336537    12.000000000000
         H           -1.489840581673    -0.596168773606     1.175594663463     1.007825032230
         H           -0.439947581673     1.397274226394    -0.710301336537     1.007825032230
         H           -3.013460581673    -1.570281773606    -0.550045336537     1.007825032230
         H           -2.240115581673    -0.557481773606    -1.786601336537     1.007825032230
         H           -1.300317581673    -1.813523773606    -0.946883336537     1.007825032230
         H           -2.425464581673     1.707063226394     1.257197663463     1.007825032230
         H           -3.683095581673     0.552617226394     0.768593663463     1.007825032230
         H           -2.915768581673     1.581285226394    -0.446253336537     1.007825032230
         H            1.842446818327     0.792655926394    -1.508345936537     1.007825032230
         H            1.979068418327     1.736189226394    -0.014506336537     1.007825032230
         H            3.315651418327    -0.992966773606    -0.483805336537     1.007825032230
         H            4.151520418327     0.575472226394    -0.469402336537     1.007825032230
         H            3.413333418327    -0.068042773606     1.011918663463     1.007825032230

  Basis Set: AUG-CC-PVTZ
    Blend: AUG-CC-PVTZ
  Basis Set: (AUG-CC-PVTZ AUX)
    Blend: AUG-CC-PVTZ-JKFIT
	 Reference Energy          =    -364.2412043499627998 [Eh]
	 Singles Energy            =      -0.0000000000000000 [Eh]
	 Same-Spin Energy          =      -0.3766171691288604 [Eh]
	 Opposite-Spin Energy      =      -1.2768201363007607 [Eh]
	 Correlation Energy        =      -1.6534373054296212 [Eh]
	 Total Energy              =    -365.8946416553924337 [Eh]

	 ================> DF-SCS-MP2 Energies <==================
	-----------------------------------------------------------
	 SCS Same-Spin Scale       =       0.3333333333333333 [-]
	 SCS Opposite-Spin Scale   =       1.2000000000000000 [-]
	 SCS Same-Spin Energy      =      -0.1255390563762868 [Eh]
	 SCS Opposite-Spin Energy  =      -1.5321841635609128 [Eh]
	 SCS Correlation Energy    =      -1.6577232199371996 [Eh]
	 SCS Total Energy          =    -365.8989275699000245 [Eh]
	-----------------------------------------------------------

  Dipole Moment: [D]
     X:    -1.5461      Y:     2.8783      Z:    -1.7385     Total:     3.7010

*** Psi4 exiting successfully. Buy a developer a beer!
