                               Psi4 1.3.2 release

  ==> Input File <==

--------------------------------------------------------------------------
#psi4
#
memory 32 gb

molecule  {
0 1
  O        0.8686370    -1.1285810     0.6753960
  N       -0.4170490     0.5891890    -0.1013730
  C       -1.5933913    -0.0120834     0.2127318
  C       -2.0872990    -1.0630810    -0.8349870
  C       -2.7390930     1.0113430     0.4650240
  C        0.7808810    -0.0406060     0.0960010
  C        1.9924560     0.7166710    -0.4292430
  C        3.2969670     0.0166800    -0.0788280
  H       -1.4931140    -0.5968520     1.1678280
  H       -0.4432210     1.3965910    -0.7180680
  H       -3.0167340    -1.5709650    -0.5578120
  H       -2.2433890    -0.5581650    -1.7943680
  H       -1.3035910    -1.8142070    -0.9546500
  H       -2.4287380     1.7063800     1.2494310
  H       -3.6863690     0.5519340     0.7608270
  H       -2.9190420     1.5806020    -0.4540200
  H        1.8890940     0.8204890    -1.5196510
  H        1.9757950     1.7355060    -0.0222730
  H        3.3123780    -0.9936500    -0.4915720
  H        4.1482470     0.5747890    -0.4771690
  H        3.4100600    -0.0687260     1.0041520
units angstrom
no_reorient  #important for SAPT in psi4, default
symmetry c1  #important for SAPT in psi4, default
}

set PROPERTIES_ORIGIN ["COM"]
properties('MP2/aug-cc-pvtz', properties = ['dipole'])
--------------------------------------------------------------------------

    Molecular point group: c1
  Charge       = 0
  Multiplicity = 1
  Basis Set: AUG-CC-PVTZ
    Blend: AUG-CC-PVTZ
  Basis Set: (AUG-CC-PVTZ AUX)
    Blend: AUG-CC-PVTZ-JKFIT

    Orbital Energies [Eh]
    ---------------------

    Doubly Occupied:

       1A    -20.518714     2A    -15.583177     3A    -11.349673
       4A    -11.262496     5A    -11.243576     6A    -11.222392
       7A    -11.215836     8A    -11.209661     9A     -1.374698
      10A     -1.253932    11A     -1.064921    12A     -1.023531
      13A     -0.931840    14A     -0.897044    15A     -0.814301
      16A     -0.788588    17A     -0.686145    18A     -0.660460
      19A     -0.640627    20A     -0.609302    21A     -0.597680
      22A     -0.577805    23A     -0.555493    24A     -0.540111
      25A     -0.526481    26A     -0.521057    27A     -0.515282
      28A     -0.495664    29A     -0.477639    30A     -0.464628
      31A     -0.423185    32A     -0.380303

  @DF-RHF Final Energy:  -364.23823143443053

   => Energetics <=

    Nuclear Repulsion Energy =            393.6195711843633376
    One-Electron Energy =               -1274.8631173623566610
    Two-Electron Energy =                 517.0053147435627352
    Total Energy =                       -364.2382314344305314
  Basis Set: (AUG-CC-PVTZ AUX)
    Blend: AUG-CC-PVTZ-RI
    Molecular point group: c1

    Geometry (in Angstrom), charge = 0, multiplicity = 1:

       Center              X                  Y                   Z               Mass
    ------------   -----------------  -----------------  -----------------  -----------------
         O            0.859605424852    -1.133197309283     0.677807467605    15.994914619570
         N           -0.426080575148     0.584572690717    -0.098961532395    14.003074004430
         C           -1.602422875148    -0.016699709283     0.215143267605    12.000000000000
         C           -2.096330575148    -1.067697309283    -0.832575532395    12.000000000000
         C           -2.748124575148     1.006726690717     0.467435467605    12.000000000000
         C            0.771849424852    -0.045222309283     0.098412467605    12.000000000000
         C            1.983424424852     0.712054690717    -0.426831532395    12.000000000000
         C            3.287935424852     0.012063690717    -0.076416532395    12.000000000000
         H           -1.502145575148    -0.601468309283     1.170239467605     1.007825032230
         H           -0.452252575148     1.391974690717    -0.715656532395     1.007825032230
         H           -3.025765575148    -1.575581309283    -0.555400532395     1.007825032230
         H           -2.252420575148    -0.562781309283    -1.791956532395     1.007825032230
         H           -1.312622575148    -1.818823309283    -0.952238532395     1.007825032230
         H           -2.437769575148     1.701763690717     1.251842467605     1.007825032230
         H           -3.695400575148     0.547317690717     0.763238467605     1.007825032230
         H           -2.928073575148     1.575985690717    -0.451608532395     1.007825032230
         H            1.880062424852     0.815872690717    -1.517239532395     1.007825032230
         H            1.966763424852     1.730889690717    -0.019861532395     1.007825032230
         H            3.303346424852    -0.998266309283    -0.489160532395     1.007825032230
         H            4.139215424852     0.570172690717    -0.474757532395     1.007825032230
         H            3.401028424852    -0.073342309283     1.006563467605     1.007825032230

  Basis Set: AUG-CC-PVTZ
    Blend: AUG-CC-PVTZ
  Basis Set: (AUG-CC-PVTZ AUX)
    Blend: AUG-CC-PVTZ-JKFIT
	 Reference Energy          =    -364.2382314344305314 [Eh]
	 Singles Energy            =      -0.0000000000000000 [Eh]
	 Same-Spin Energy          =      -0.3764640611526650 [Eh]
	 Opposite-Spin Energy      =      -1.2758447821101897 [Eh]
	 Correlation Energy        =      -1.6523088432628548 [Eh]
	 Total Energy              =    -365.8905402776933897 [Eh]

	 ================> DF-SCS-MP2 Energies <==================
	-----------------------------------------------------------
	 SCS Same-Spin Scale       =       0.3333333333333333 [-]
	 SCS Opposite-Spin Scale   =       1.2000000000000000 [-]
	 SCS Same-Spin Energy      =      -0.1254880203842216 [Eh]
	 SCS Opposite-Spin Energy  =      -1.5310137385322276 [Eh]
	 SCS Correlation Energy    =      -1.6565017589164492 [Eh]
	 SCS Total Energy          =    -365.8947331933470082 [Eh]
	-----------------------------------------------------------

  Dipole Moment: [D]
     X:    -0.9465      Y:     2.7940      Z:    -1.6279     Total:     3.3693

*** Psi4 exiting successfully. Buy a developer a beer!
