                               Psi4 1.4a3.dev225

  ==> Input File <==

--------------------------------------------------------------------------
#psi4
#
memory 32 gb

molecule  {
0 1
  O        0.8665680     1.1680080    -0.7351460
  N       -0.3660760    -0.5086790     0.1929010
  C       -1.6441200     0.0174450    -0.2761400
  C       -2.1412550     1.1442230     0.6252270
  C       -2.6427120    -1.1266550    -0.3840140
  C        0.8235145     0.1653457    -0.0328217
  C        2.0309430    -0.4326950     0.6540710
  C        3.2825740    -0.2523450    -0.1975960
  H       -1.4466230     0.4281070    -1.2709490
  H       -0.3785050    -1.2608410     0.8714320
  H       -3.0785860     1.5617170     0.2436050
  H       -2.3175770     0.7713190     1.6396860
  H       -1.3960540     1.9417130     0.6641920
  H       -2.2693050    -1.9092940    -1.0497770
  H       -3.5969080    -0.7634960    -0.7753550
  H       -2.8341330    -1.5678230     0.6011330
  H        2.1523320     0.0883960     1.6122110
  H        1.8656800    -1.4909910     0.8873090
  H        3.4076760     0.8004350    -0.4533700
  H        4.1701610    -0.5986810     0.3385000
  H        3.2011700    -0.8174180    -1.1296580
units angstrom
no_reorient  #important for SAPT in psi4, default
symmetry c1  #important for SAPT in psi4, default
}

set PROPERTIES_ORIGIN ["COM"]
properties('MP2/aug-cc-pvtz', properties = ['dipole'])
--------------------------------------------------------------------------

    Molecular point group: c1
  Charge       = 0
  Multiplicity = 1
  Basis Set: AUG-CC-PVTZ
    Blend: AUG-CC-PVTZ
  Basis Set: (AUG-CC-PVTZ AUX)
    Blend: AUG-CC-PVTZ-JKFIT

    Orbital Energies [Eh]
    ---------------------

    Doubly Occupied:

       1A    -20.514665     2A    -15.576870     3A    -11.345535
       4A    -11.264218     5A    -11.240309     6A    -11.223208
       7A    -11.216693     8A    -11.211334     9A     -1.373380
      10A     -1.223949    11A     -1.066570    12A     -1.029464
      13A     -0.938890    14A     -0.888690    15A     -0.807585
      16A     -0.775922    17A     -0.684366    18A     -0.657375
      19A     -0.625866    20A     -0.615821    21A     -0.597371
      22A     -0.577029    23A     -0.555715    24A     -0.544235
      25A     -0.526883    26A     -0.515849    27A     -0.508988
      28A     -0.497077    29A     -0.486880    30A     -0.477095
      31A     -0.417498    32A     -0.384955

  @DF-RHF Final Energy:  -364.24941029001394

   => Energetics <=

    Nuclear Repulsion Energy =            392.4751632471154608
    One-Electron Energy =               -1272.7085714431846100
    Two-Electron Energy =                 515.9839979060551514
    Total Energy =                       -364.2494102900139978
  Basis Set: (AUG-CC-PVTZ AUX)
    Blend: AUG-CC-PVTZ-RI
    Molecular point group: c1

    Geometry (in Angstrom), charge = 0, multiplicity = 1:

       Center              X                  Y                   Z               Mass
    ------------   -----------------  -----------------  -----------------  -----------------
         O            0.843097659212     1.142777320838    -0.716061108971    15.994914619570
         N           -0.389546340788    -0.533909679162     0.211985891029    14.003074004430
         C           -1.667590340788    -0.007785679162    -0.257055108971    12.000000000000
         C           -2.164725340788     1.118992320838     0.644311891029    12.000000000000
         C           -2.666182340788    -1.151885679162    -0.364929108971    12.000000000000
         C            0.800044159212     0.140115020838    -0.013736808971    12.000000000000
         C            2.007472659212    -0.457925679162     0.673155891029    12.000000000000
         C            3.259103659212    -0.277575679162    -0.178511108971    12.000000000000
         H           -1.470093340788     0.402876320838    -1.251864108971     1.007825032230
         H           -0.401975340788    -1.286071679162     0.890516891029     1.007825032230
         H           -3.102056340788     1.536486320838     0.262689891029     1.007825032230
         H           -2.341047340788     0.746088320838     1.658770891029     1.007825032230
         H           -1.419524340788     1.916482320838     0.683276891029     1.007825032230
         H           -2.292775340788    -1.934524679162    -1.030692108971     1.007825032230
         H           -3.620378340788    -0.788726679162    -0.756270108971     1.007825032230
         H           -2.857603340788    -1.593053679162     0.620217891029     1.007825032230
         H            2.128861659212     0.063165320838     1.631295891029     1.007825032230
         H            1.842209659212    -1.516221679162     0.906393891029     1.007825032230
         H            3.384205659212     0.775204320838    -0.434285108971     1.007825032230
         H            4.146690659212    -0.623911679162     0.357584891029     1.007825032230
         H            3.177699659212    -0.842648679162    -1.110573108971     1.007825032230

  Basis Set: AUG-CC-PVTZ
    Blend: AUG-CC-PVTZ
  Basis Set: (AUG-CC-PVTZ AUX)
    Blend: AUG-CC-PVTZ-JKFIT
	 Reference Energy          =    -364.2494102900139410 [Eh]
	 Singles Energy            =      -0.0000000000000000 [Eh]
	 Same-Spin Energy          =      -0.3757611362397649 [Eh]
	 Opposite-Spin Energy      =      -1.2750503337448056 [Eh]
	 Correlation Energy        =      -1.6508114699845704 [Eh]
	 Total Energy              =    -365.9002217599984874 [Eh]

	 ================> DF-SCS-MP2 Energies <==================
	-----------------------------------------------------------
	 SCS Same-Spin Scale       =       0.3333333333333333 [-]
	 SCS Opposite-Spin Scale   =       1.2000000000000000 [-]
	 SCS Same-Spin Energy      =      -0.1252537120799216 [Eh]
	 SCS Opposite-Spin Energy  =      -1.5300604004937666 [Eh]
	 SCS Correlation Energy    =      -1.6553141125736881 [Eh]
	 SCS Total Energy          =    -365.9047244025876466 [Eh]
	-----------------------------------------------------------

  Dipole Moment: [D]
     X:    -1.1121      Y:    -2.5244      Z:     1.8683     Total:     3.3316

*** Psi4 exiting successfully. Buy a developer a beer!
