                               Psi4 1.3.2 release

  ==> Input File <==

--------------------------------------------------------------------------
#psi4
#
memory 32 gb

molecule  {
0 1
  O        0.8686370    -1.1285810     0.6753960
  N       -0.4170490     0.5891890    -0.1013730
  C       -1.6403613    -0.1173021     0.2590918
  C       -2.0872990    -1.0630810    -0.8349870
  C       -2.7390930     1.0113430     0.4650240
  C        0.7448831    -0.0970318     0.1214481
  C        1.9924560     0.7166710    -0.4292430
  C        3.2969670     0.0166800    -0.0788280
  H       -1.4931140    -0.5968520     1.1678280
  H       -0.4432210     1.3965910    -0.7180680
  H       -3.0167340    -1.5709650    -0.5578120
  H       -2.2433890    -0.5581650    -1.7943680
  H       -1.3035910    -1.8142070    -0.9546500
  H       -2.4287380     1.7063800     1.2494310
  H       -3.6863690     0.5519340     0.7608270
  H       -2.9190420     1.5806020    -0.4540200
  H        1.8890940     0.8204890    -1.5196510
  H        1.9757950     1.7355060    -0.0222730
  H        3.3123780    -0.9936500    -0.4915720
  H        4.1482470     0.5747890    -0.4771690
  H        3.4100600    -0.0687260     1.0041520
units angstrom
no_reorient  #important for SAPT in psi4, default
symmetry c1  #important for SAPT in psi4, default
}

set PROPERTIES_ORIGIN ["COM"]
properties('MP2/aug-cc-pvtz', properties = ['dipole'])
--------------------------------------------------------------------------

    Molecular point group: c1
  Charge       = 0
  Multiplicity = 1
  Basis Set: AUG-CC-PVTZ
    Blend: AUG-CC-PVTZ
  Basis Set: (AUG-CC-PVTZ AUX)
    Blend: AUG-CC-PVTZ-JKFIT

    Orbital Energies [Eh]
    ---------------------

    Doubly Occupied:

       1A    -20.522457     2A    -15.575054     3A    -11.340221
       4A    -11.262778     5A    -11.234570     6A    -11.223289
       7A    -11.213249     8A    -11.209964     9A     -1.406525
      10A     -1.233454    11A     -1.055077    12A     -1.021527
      13A     -0.935668    14A     -0.875793    15A     -0.813087
      16A     -0.781910    17A     -0.682672    18A     -0.662126
      19A     -0.633091    20A     -0.608902    21A     -0.605683
      22A     -0.582137    23A     -0.546363    24A     -0.543770
      25A     -0.532993    26A     -0.516971    27A     -0.507386
      28A     -0.504387    29A     -0.488406    30A     -0.473987
      31A     -0.408714    32A     -0.389563

  @DF-RHF Final Energy:  -364.24003162448275

   => Energetics <=

    Nuclear Repulsion Energy =            393.0481197086563157
    One-Electron Energy =               -1273.7927477025134522
    Two-Electron Energy =                 516.5045963693744397
    Total Energy =                       -364.2400316244827536
  Basis Set: (AUG-CC-PVTZ AUX)
    Blend: AUG-CC-PVTZ-RI
    Molecular point group: c1

    Geometry (in Angstrom), charge = 0, multiplicity = 1:

       Center              X                  Y                   Z               Mass
    ------------   -----------------  -----------------  -----------------  -----------------
         O            0.868255444604    -1.116344669672     0.670321044140    15.994914619570
         N           -0.417430555396     0.601425330328    -0.106447955860    14.003074004430
         C           -1.640742855396    -0.105065769672     0.254016844140    12.000000000000
         C           -2.087680555396    -1.050844669672    -0.840061955860    12.000000000000
         C           -2.739474555396     1.023579330328     0.459949044140    12.000000000000
         C            0.744501544604    -0.084795469672     0.116373144140    12.000000000000
         C            1.992074444604     0.728907330328    -0.434317955860    12.000000000000
         C            3.296585444604     0.028916330328    -0.083902955860    12.000000000000
         H           -1.493495555396    -0.584615669672     1.162753044140     1.007825032230
         H           -0.443602555396     1.408827330328    -0.723142955860     1.007825032230
         H           -3.017115555396    -1.558728669672    -0.562886955860     1.007825032230
         H           -2.243770555396    -0.545928669672    -1.799442955860     1.007825032230
         H           -1.303972555396    -1.801970669672    -0.959724955860     1.007825032230
         H           -2.429119555396     1.718616330328     1.244356044140     1.007825032230
         H           -3.686750555396     0.564170330328     0.755752044140     1.007825032230
         H           -2.919423555396     1.592838330328    -0.459094955860     1.007825032230
         H            1.888712444604     0.832725330328    -1.524725955860     1.007825032230
         H            1.975413444604     1.747742330328    -0.027347955860     1.007825032230
         H            3.311996444604    -0.981413669672    -0.496646955860     1.007825032230
         H            4.147865444604     0.587025330328    -0.482243955860     1.007825032230
         H            3.409678444604    -0.056489669672     0.999077044140     1.007825032230

  Basis Set: AUG-CC-PVTZ
    Blend: AUG-CC-PVTZ
  Basis Set: (AUG-CC-PVTZ AUX)
    Blend: AUG-CC-PVTZ-JKFIT
	 Reference Energy          =    -364.2400316244827536 [Eh]
	 Singles Energy            =      -0.0000000000000000 [Eh]
	 Same-Spin Energy          =      -0.3743687988176694 [Eh]
	 Opposite-Spin Energy      =      -1.2728128224974355 [Eh]
	 Correlation Energy        =      -1.6471816213151049 [Eh]
	 Total Energy              =    -365.8872132457978523 [Eh]

	 ================> DF-SCS-MP2 Energies <==================
	-----------------------------------------------------------
	 SCS Same-Spin Scale       =       0.3333333333333333 [-]
	 SCS Opposite-Spin Scale   =       1.2000000000000000 [-]
	 SCS Same-Spin Energy      =      -0.1247895996058898 [Eh]
	 SCS Opposite-Spin Energy  =      -1.5273753869969227 [Eh]
	 SCS Correlation Energy    =      -1.6521649866028125 [Eh]
	 SCS Total Energy          =    -365.8921966110855806 [Eh]
	-----------------------------------------------------------

  Dipole Moment: [D]
     X:    -1.3875      Y:     2.3838      Z:    -1.5023     Total:     3.1408

*** Psi4 exiting successfully. Buy a developer a beer!
