                               Psi4 1.3.2 release

  ==> Input File <==

--------------------------------------------------------------------------
#psi4
#
memory 32 gb

molecule  {
0 1
  O        0.8686370    -1.1285810     0.6753960
  N       -0.4170490     0.5891890    -0.1013730
  C       -1.7666467    -0.1006406     0.2589942
  C       -2.0872990    -1.0630810    -0.8349870
  C       -2.7390930     1.0113430     0.4650240
  C        0.7808810    -0.0406060     0.0960010
  C        1.9924560     0.7166710    -0.4292430
  C        3.2969670     0.0166800    -0.0788280
  H       -1.4931140    -0.5968520     1.1678280
  H       -0.4432210     1.3965910    -0.7180680
  H       -3.0167340    -1.5709650    -0.5578120
  H       -2.2433890    -0.5581650    -1.7943680
  H       -1.3035910    -1.8142070    -0.9546500
  H       -2.4287380     1.7063800     1.2494310
  H       -3.6863690     0.5519340     0.7608270
  H       -2.9190420     1.5806020    -0.4540200
  H        1.8890940     0.8204890    -1.5196510
  H        1.9757950     1.7355060    -0.0222730
  H        3.3123780    -0.9936500    -0.4915720
  H        4.1482470     0.5747890    -0.4771690
  H        3.4100600    -0.0687260     1.0041520
units angstrom
no_reorient  #important for SAPT in psi4, default
symmetry c1  #important for SAPT in psi4, default
}

set PROPERTIES_ORIGIN ["COM"]
properties('MP2/aug-cc-pvtz', properties = ['dipole'])
--------------------------------------------------------------------------

    Molecular point group: c1
  Charge       = 0
  Multiplicity = 1
  Basis Set: AUG-CC-PVTZ
    Blend: AUG-CC-PVTZ
  Basis Set: (AUG-CC-PVTZ AUX)
    Blend: AUG-CC-PVTZ-JKFIT

    Orbital Energies [Eh]
    ---------------------

    Doubly Occupied:

       1A    -20.508292     2A    -15.571008     3A    -11.339619
       4A    -11.270545     5A    -11.236687     6A    -11.225813
       7A    -11.215847     8A    -11.210931     9A     -1.360680
      10A     -1.208400    11A     -1.071260    12A     -1.032270
      13A     -0.948711    14A     -0.880384    15A     -0.805628
      16A     -0.768140    17A     -0.678642    18A     -0.647215
      19A     -0.631094    20A     -0.622068    21A     -0.590303
      22A     -0.578467    23A     -0.551731    24A     -0.543769
      25A     -0.524577    26A     -0.510049    27A     -0.507226
      28A     -0.497433    29A     -0.491709    30A     -0.480643
      31A     -0.410572    32A     -0.384451

  @DF-RHF Final Energy:  -364.24060157266541

   => Energetics <=

    Nuclear Repulsion Energy =            391.4544410150065232
    One-Electron Energy =               -1270.7817577813036678
    Two-Electron Energy =                 515.0867151936317896
    Total Energy =                       -364.2406015726653550
  Basis Set: (AUG-CC-PVTZ AUX)
    Blend: AUG-CC-PVTZ-RI
    Molecular point group: c1

    Geometry (in Angstrom), charge = 0, multiplicity = 1:

       Center              X                  Y                   Z               Mass
    ------------   -----------------  -----------------  -----------------  -----------------
         O            0.877668587018    -1.123964563495     0.672984268828    15.994914619570
         N           -0.408017412982     0.593805436505    -0.103784731172    14.003074004430
         C           -1.757615112982    -0.096024163495     0.256582468828    12.000000000000
         C           -2.078267412982    -1.058464563495    -0.837398731172    12.000000000000
         C           -2.730061412982     1.015959436505     0.462612268828    12.000000000000
         C            0.789912587018    -0.035989563495     0.093589268828    12.000000000000
         C            2.001487587018     0.721287436505    -0.431654731172    12.000000000000
         C            3.305998587018     0.021296436505    -0.081239731172    12.000000000000
         H           -1.484082412982    -0.592235563495     1.165416268828     1.007825032230
         H           -0.434189412982     1.401207436505    -0.720479731172     1.007825032230
         H           -3.007702412982    -1.566348563495    -0.560223731172     1.007825032230
         H           -2.234357412982    -0.553548563495    -1.796779731172     1.007825032230
         H           -1.294559412982    -1.809590563495    -0.957061731172     1.007825032230
         H           -2.419706412982     1.710996436505     1.247019268828     1.007825032230
         H           -3.677337412982     0.556550436505     0.758415268828     1.007825032230
         H           -2.910010412982     1.585218436505    -0.456431731172     1.007825032230
         H            1.898125587018     0.825105436505    -1.522062731172     1.007825032230
         H            1.984826587018     1.740122436505    -0.024684731172     1.007825032230
         H            3.321409587018    -0.989033563495    -0.493983731172     1.007825032230
         H            4.157278587018     0.579405436505    -0.479580731172     1.007825032230
         H            3.419091587018    -0.064109563495     1.001740268828     1.007825032230

  Basis Set: AUG-CC-PVTZ
    Blend: AUG-CC-PVTZ
  Basis Set: (AUG-CC-PVTZ AUX)
    Blend: AUG-CC-PVTZ-JKFIT
	 Reference Energy          =    -364.2406015726654118 [Eh]
	 Singles Energy            =      -0.0000000000000000 [Eh]
	 Same-Spin Energy          =      -0.3759622108346711 [Eh]
	 Opposite-Spin Energy      =      -1.2758646743189779 [Eh]
	 Correlation Energy        =      -1.6518268851536488 [Eh]
	 Total Energy              =    -365.8924284578190509 [Eh]

	 ================> DF-SCS-MP2 Energies <==================
	-----------------------------------------------------------
	 SCS Same-Spin Scale       =       0.3333333333333333 [-]
	 SCS Opposite-Spin Scale   =       1.2000000000000000 [-]
	 SCS Same-Spin Energy      =      -0.1253207369448903 [Eh]
	 SCS Opposite-Spin Energy  =      -1.5310376091827733 [Eh]
	 SCS Correlation Energy    =      -1.6563583461276636 [Eh]
	 SCS Total Energy          =    -365.8969599187930726 [Eh]
	-----------------------------------------------------------

  Dipole Moment: [D]
     X:    -1.6476      Y:     2.6625      Z:    -1.6475     Total:     3.5380

*** Psi4 exiting successfully. Buy a developer a beer!
