                               Psi4 1.4a3.dev225

  ==> Input File <==

--------------------------------------------------------------------------
#psi4
#
memory 32 gb

molecule  {
0 1
  O        0.8665680     1.1680080    -0.7351460
  N       -0.3660760    -0.5086790     0.1929010
  C       -1.6441200     0.0174450    -0.2761400
  C       -2.1477697     1.1589890     0.6370390
  C       -2.6427120    -1.1266550    -0.3840140
  C        0.8063460     0.1556180    -0.0295640
  C        2.0309430    -0.4326950     0.6540710
  C        3.2825740    -0.2523450    -0.1975960
  H       -1.4466230     0.4281070    -1.2709490
  H       -0.3785050    -1.2608410     0.8714320
  H       -3.0785860     1.5617170     0.2436050
  H       -2.3175770     0.7713190     1.6396860
  H       -1.3960540     1.9417130     0.6641920
  H       -2.2693050    -1.9092940    -1.0497770
  H       -3.5969080    -0.7634960    -0.7753550
  H       -2.8341330    -1.5678230     0.6011330
  H        2.1523320     0.0883960     1.6122110
  H        1.8656800    -1.4909910     0.8873090
  H        3.4076760     0.8004350    -0.4533700
  H        4.1701610    -0.5986810     0.3385000
  H        3.2011700    -0.8174180    -1.1296580
units angstrom
no_reorient  #important for SAPT in psi4, default
symmetry c1  #important for SAPT in psi4, default
}

set PROPERTIES_ORIGIN ["COM"]
properties('MP2/aug-cc-pvtz', properties = ['dipole'])
--------------------------------------------------------------------------

    Molecular point group: c1
  Charge       = 0
  Multiplicity = 1
  Basis Set: AUG-CC-PVTZ
    Blend: AUG-CC-PVTZ
  Basis Set: (AUG-CC-PVTZ AUX)
    Blend: AUG-CC-PVTZ-JKFIT

    Orbital Energies [Eh]
    ---------------------

    Doubly Occupied:

       1A    -20.510929     2A    -15.580635     3A    -11.344392
       4A    -11.266796     5A    -11.239856     6A    -11.224590
       7A    -11.215711     8A    -11.211746     9A     -1.366446
      10A     -1.228788    11A     -1.065326    12A     -1.029473
      13A     -0.940174    14A     -0.887964    15A     -0.810105
      16A     -0.780502    17A     -0.681612    18A     -0.658116
      19A     -0.625282    20A     -0.615341    21A     -0.593430
      22A     -0.578407    23A     -0.556212    24A     -0.546521
      25A     -0.528513    26A     -0.513789    27A     -0.508890
      28A     -0.496858    29A     -0.488540    30A     -0.475642
      31A     -0.415139    32A     -0.385535

  @DF-RHF Final Energy:  -364.24937171370806

   => Energetics <=

    Nuclear Repulsion Energy =            392.2150829285902773
    One-Electron Energy =               -1272.1863871404311794
    Two-Electron Energy =                 515.7219324981327873
    Total Energy =                       -364.2493717137081148
  Basis Set: (AUG-CC-PVTZ AUX)
    Blend: AUG-CC-PVTZ-RI
    Molecular point group: c1

    Geometry (in Angstrom), charge = 0, multiplicity = 1:

       Center              X                  Y                   Z               Mass
    ------------   -----------------  -----------------  -----------------  -----------------
         O            0.845566808700     1.142252040645    -0.717632237114    15.994914619570
         N           -0.387077191300    -0.534434959355     0.210414762886    14.003074004430
         C           -1.665121191300    -0.008310959355    -0.258626237114    12.000000000000
         C           -2.168770891300     1.133233040645     0.654552762886    12.000000000000
         C           -2.663713191300    -1.152410959355    -0.366500237114    12.000000000000
         C            0.785344808700     0.129862040645    -0.012050237114    12.000000000000
         C            2.009941808700    -0.458450959355     0.671584762886    12.000000000000
         C            3.261572808700    -0.278100959355    -0.180082237114    12.000000000000
         H           -1.467624191300     0.402351040645    -1.253435237114     1.007825032230
         H           -0.399506191300    -1.286596959355     0.888945762886     1.007825032230
         H           -3.099587191300     1.535961040645     0.261118762886     1.007825032230
         H           -2.338578191300     0.745563040645     1.657199762886     1.007825032230
         H           -1.417055191300     1.915957040645     0.681705762886     1.007825032230
         H           -2.290306191300    -1.935049959355    -1.032263237114     1.007825032230
         H           -3.617909191300    -0.789251959355    -0.757841237114     1.007825032230
         H           -2.855134191300    -1.593578959355     0.618646762886     1.007825032230
         H            2.131330808700     0.062640040645     1.629724762886     1.007825032230
         H            1.844678808700    -1.516746959355     0.904822762886     1.007825032230
         H            3.386674808700     0.774679040645    -0.435856237114     1.007825032230
         H            4.149159808700    -0.624436959355     0.356013762886     1.007825032230
         H            3.180168808700    -0.843173959355    -1.112144237114     1.007825032230

  Basis Set: AUG-CC-PVTZ
    Blend: AUG-CC-PVTZ
  Basis Set: (AUG-CC-PVTZ AUX)
    Blend: AUG-CC-PVTZ-JKFIT
	 Reference Energy          =    -364.2493717137080580 [Eh]
	 Singles Energy            =      -0.0000000000000000 [Eh]
	 Same-Spin Energy          =      -0.3757345580114425 [Eh]
	 Opposite-Spin Energy      =      -1.2751373323218069 [Eh]
	 Correlation Energy        =      -1.6508718903332493 [Eh]
	 Total Energy              =    -365.9002436040412931 [Eh]

	 ================> DF-SCS-MP2 Energies <==================
	-----------------------------------------------------------
	 SCS Same-Spin Scale       =       0.3333333333333333 [-]
	 SCS Opposite-Spin Scale   =       1.2000000000000000 [-]
	 SCS Same-Spin Energy      =      -0.1252448526704808 [Eh]
	 SCS Opposite-Spin Energy  =      -1.5301647987861682 [Eh]
	 SCS Correlation Energy    =      -1.6554096514566490 [Eh]
	 SCS Total Energy          =    -365.9047813651646948 [Eh]
	-----------------------------------------------------------

  Dipole Moment: [D]
     X:    -1.2732      Y:    -2.6108      Z:     1.8967     Total:     3.4691

*** Psi4 exiting successfully. Buy a developer a beer!
