                               Psi4 1.3.2 release

  ==> Input File <==

--------------------------------------------------------------------------
#psi4
#
memory 32 gb

molecule  {
0 1
  O        0.8686370    -1.1285810     0.6753960
  N       -0.4065968     0.5791695    -0.0804487
  C       -1.6800190    -0.0563620     0.2358630
  C       -2.0872990    -1.0630810    -0.8349870
  C       -2.7390930     1.0113430     0.4650240
  C        0.7808810    -0.0406060     0.0960010
  C        1.9924560     0.7166710    -0.4292430
  C        3.2969670     0.0166800    -0.0788280
  H       -1.4750765    -0.5906226     1.1676279
  H       -0.4432210     1.3965910    -0.7180680
  H       -3.0167340    -1.5709650    -0.5578120
  H       -2.2433890    -0.5581650    -1.7943680
  H       -1.3035910    -1.8142070    -0.9546500
  H       -2.4287380     1.7063800     1.2494310
  H       -3.6863690     0.5519340     0.7608270
  H       -2.9190420     1.5806020    -0.4540200
  H        1.8890940     0.8204890    -1.5196510
  H        1.9757950     1.7355060    -0.0222730
  H        3.3123780    -0.9936500    -0.4915720
  H        4.1482470     0.5747890    -0.4771690
  H        3.4100600    -0.0687260     1.0041520
units angstrom
no_reorient  #important for SAPT in psi4, default
symmetry c1  #important for SAPT in psi4, default
}

set PROPERTIES_ORIGIN ["COM"]
properties('MP2/aug-cc-pvtz', properties = ['dipole'])
--------------------------------------------------------------------------

    Molecular point group: c1
  Charge       = 0
  Multiplicity = 1
  Basis Set: AUG-CC-PVTZ
    Blend: AUG-CC-PVTZ
  Basis Set: (AUG-CC-PVTZ AUX)
    Blend: AUG-CC-PVTZ-JKFIT

    Orbital Energies [Eh]
    ---------------------

    Doubly Occupied:

       1A    -20.510274     2A    -15.580377     3A    -11.342189
       4A    -11.265519     5A    -11.239933     6A    -11.224471
       7A    -11.213519     8A    -11.213090     9A     -1.367214
      10A     -1.229401    11A     -1.066894    12A     -1.030328
      13A     -0.940591    14A     -0.888155    15A     -0.809704
      16A     -0.776151    17A     -0.682184    18A     -0.651340
      19A     -0.635723    20A     -0.615230    21A     -0.591432
      22A     -0.577902    23A     -0.550722    24A     -0.546002
      25A     -0.526200    26A     -0.512015    27A     -0.508703
      28A     -0.496898    29A     -0.488155    30A     -0.477607
      31A     -0.416225    32A     -0.385942

  @DF-RHF Final Energy:  -364.24819353728071

   => Energetics <=

    Nuclear Repulsion Energy =            392.7645768187571207
    One-Electron Energy =               -1273.3053660091773054
    Two-Electron Energy =                 516.2925956531394149
    Total Energy =                       -364.2481935372807129
  Basis Set: (AUG-CC-PVTZ AUX)
    Blend: AUG-CC-PVTZ-RI
    Molecular point group: c1

    Geometry (in Angstrom), charge = 0, multiplicity = 1:

       Center              X                  Y                   Z               Mass
    ------------   -----------------  -----------------  -----------------  -----------------
         O            0.867207449176    -1.127416505566     0.672851962195    15.994914619570
         N           -0.408026350824     0.580333994434    -0.082992737805    14.003074004430
         C           -1.681448550824    -0.055197505566     0.233318962195    12.000000000000
         C           -2.088728550824    -1.061916505566    -0.837531037805    12.000000000000
         C           -2.740522550824     1.012507494434     0.462479962195    12.000000000000
         C            0.779451449176    -0.039441505566     0.093456962195    12.000000000000
         C            1.991026449176     0.717835494434    -0.431787037805    12.000000000000
         C            3.295537449176     0.017844494434    -0.081372037805    12.000000000000
         H           -1.476506050824    -0.589458105566     1.165083862195     1.007825032230
         H           -0.444650550824     1.397755494434    -0.720612037805     1.007825032230
         H           -3.018163550824    -1.569800505566    -0.560356037805     1.007825032230
         H           -2.244818550824    -0.557000505566    -1.796912037805     1.007825032230
         H           -1.305020550824    -1.813042505566    -0.957194037805     1.007825032230
         H           -2.430167550824     1.707544494434     1.246886962195     1.007825032230
         H           -3.687798550824     0.553098494434     0.758282962195     1.007825032230
         H           -2.920471550824     1.581766494434    -0.456564037805     1.007825032230
         H            1.887664449176     0.821653494434    -1.522195037805     1.007825032230
         H            1.974365449176     1.736670494434    -0.024817037805     1.007825032230
         H            3.310948449176    -0.992485505566    -0.494116037805     1.007825032230
         H            4.146817449176     0.575953494434    -0.479713037805     1.007825032230
         H            3.408630449176    -0.067561505566     1.001607962195     1.007825032230

  Basis Set: AUG-CC-PVTZ
    Blend: AUG-CC-PVTZ
  Basis Set: (AUG-CC-PVTZ AUX)
    Blend: AUG-CC-PVTZ-JKFIT
	 Reference Energy          =    -364.2481935372807129 [Eh]
	 Singles Energy            =      -0.0000000000000000 [Eh]
	 Same-Spin Energy          =      -0.3758929786012239 [Eh]
	 Opposite-Spin Energy      =      -1.2752689623290330 [Eh]
	 Correlation Energy        =      -1.6511619409302569 [Eh]
	 Total Energy              =    -365.8993554782109641 [Eh]

	 ================> DF-SCS-MP2 Energies <==================
	-----------------------------------------------------------
	 SCS Same-Spin Scale       =       0.3333333333333333 [-]
	 SCS Opposite-Spin Scale   =       1.2000000000000000 [-]
	 SCS Same-Spin Energy      =      -0.1252976595337413 [Eh]
	 SCS Opposite-Spin Energy  =      -1.5303227547948395 [Eh]
	 SCS Correlation Energy    =      -1.6556204143285809 [Eh]
	 SCS Total Energy          =    -365.9038139516092656 [Eh]
	-----------------------------------------------------------

  Dipole Moment: [D]
     X:    -1.3731      Y:     2.7592      Z:    -1.6813     Total:     3.5108

*** Psi4 exiting successfully. Buy a developer a beer!
