                               Psi4 1.3.2 release

  ==> Input File <==

--------------------------------------------------------------------------
#psi4
#
memory 32 gb

molecule  {
0 1
  O        0.8686370    -1.1285810     0.6753960
  N       -0.4159902     0.5754434    -0.1227600
  C       -1.6800190    -0.0563620     0.2358630
  C       -2.0652627    -1.0570941    -0.8486657
  C       -2.7390930     1.0113430     0.4650240
  C        0.7808810    -0.0406060     0.0960010
  C        1.9924560     0.7166710    -0.4292430
  C        3.2969670     0.0166800    -0.0788280
  H       -1.4931140    -0.5968520     1.1678280
  H       -0.4432210     1.3965910    -0.7180680
  H       -3.0167340    -1.5709650    -0.5578120
  H       -2.2433890    -0.5581650    -1.7943680
  H       -1.3035910    -1.8142070    -0.9546500
  H       -2.4287380     1.7063800     1.2494310
  H       -3.6863690     0.5519340     0.7608270
  H       -2.9190420     1.5806020    -0.4540200
  H        1.8890940     0.8204890    -1.5196510
  H        1.9757950     1.7355060    -0.0222730
  H        3.3123780    -0.9936500    -0.4915720
  H        4.1482470     0.5747890    -0.4771690
  H        3.4100600    -0.0687260     1.0041520
units angstrom
no_reorient  #important for SAPT in psi4, default
symmetry c1  #important for SAPT in psi4, default
}

set PROPERTIES_ORIGIN ["COM"]
properties('MP2/aug-cc-pvtz', properties = ['dipole'])
--------------------------------------------------------------------------

    Molecular point group: c1
  Charge       = 0
  Multiplicity = 1
  Basis Set: AUG-CC-PVTZ
    Blend: AUG-CC-PVTZ
  Basis Set: (AUG-CC-PVTZ AUX)
    Blend: AUG-CC-PVTZ-JKFIT

    Orbital Energies [Eh]
    ---------------------

    Doubly Occupied:

       1A    -20.512213     2A    -15.577703     3A    -11.344013
       4A    -11.265398     5A    -11.239887     6A    -11.224614
       7A    -11.213188     8A    -11.212175     9A     -1.366725
      10A     -1.229348    11A     -1.066248    12A     -1.029627
      13A     -0.940626    14A     -0.887523    15A     -0.808344
      16A     -0.779601    17A     -0.682248    18A     -0.654154
      19A     -0.635335    20A     -0.614605    21A     -0.592407
      22A     -0.579685    23A     -0.549168    24A     -0.546737
      25A     -0.522789    26A     -0.512315    27A     -0.506885
      28A     -0.498314    29A     -0.490220    30A     -0.478125
      31A     -0.416299    32A     -0.384489

  @DF-RHF Final Energy:  -364.24846642489717

   => Energetics <=

    Nuclear Repulsion Energy =            392.7516049247690262
    One-Electron Energy =               -1273.2781278082886729
    Two-Electron Energy =                 516.2780564586224727
    Total Energy =                       -364.2484664248971740
  Basis Set: (AUG-CC-PVTZ AUX)
    Blend: AUG-CC-PVTZ-RI
    Molecular point group: c1

    Geometry (in Angstrom), charge = 0, multiplicity = 1:

       Center              X                  Y                   Z               Mass
    ------------   -----------------  -----------------  -----------------  -----------------
         O            0.866210744001    -1.127532820370     0.679423924651    15.994914619570
         N           -0.418416455999     0.576491579630    -0.118732075349    14.003074004430
         C           -1.682445255999    -0.055313820370     0.239890924651    12.000000000000
         C           -2.067688955999    -1.056045920370    -0.844637775349    12.000000000000
         C           -2.741519255999     1.012391179630     0.469051924651    12.000000000000
         C            0.778454744001    -0.039557820370     0.100028924651    12.000000000000
         C            1.990029744001     0.717719179630    -0.425215075349    12.000000000000
         C            3.294540744001     0.017728179630    -0.074800075349    12.000000000000
         H           -1.495540255999    -0.595803820370     1.171855924651     1.007825032230
         H           -0.445647255999     1.397639179630    -0.714040075349     1.007825032230
         H           -3.019160255999    -1.569916820370    -0.553784075349     1.007825032230
         H           -2.245815255999    -0.557116820370    -1.790340075349     1.007825032230
         H           -1.306017255999    -1.813158820370    -0.950622075349     1.007825032230
         H           -2.431164255999     1.707428179630     1.253458924651     1.007825032230
         H           -3.688795255999     0.552982179630     0.764854924651     1.007825032230
         H           -2.921468255999     1.581650179630    -0.449992075349     1.007825032230
         H            1.886667744001     0.821537179630    -1.515623075349     1.007825032230
         H            1.973368744001     1.736554179630    -0.018245075349     1.007825032230
         H            3.309951744001    -0.992601820370    -0.487544075349     1.007825032230
         H            4.145820744001     0.575837179630    -0.473141075349     1.007825032230
         H            3.407633744001    -0.067677820370     1.008179924651     1.007825032230

  Basis Set: AUG-CC-PVTZ
    Blend: AUG-CC-PVTZ
  Basis Set: (AUG-CC-PVTZ AUX)
    Blend: AUG-CC-PVTZ-JKFIT
	 Reference Energy          =    -364.2484664248971740 [Eh]
	 Singles Energy            =      -0.0000000000000000 [Eh]
	 Same-Spin Energy          =      -0.3758026615590215 [Eh]
	 Opposite-Spin Energy      =      -1.2751480081449946 [Eh]
	 Correlation Energy        =      -1.6509506697040162 [Eh]
	 Total Energy              =    -365.8994170946011764 [Eh]

	 ================> DF-SCS-MP2 Energies <==================
	-----------------------------------------------------------
	 SCS Same-Spin Scale       =       0.3333333333333333 [-]
	 SCS Opposite-Spin Scale   =       1.2000000000000000 [-]
	 SCS Same-Spin Energy      =      -0.1252675538530071 [Eh]
	 SCS Opposite-Spin Energy  =      -1.5301776097739934 [Eh]
	 SCS Correlation Energy    =      -1.6554451636270007 [Eh]
	 SCS Total Energy          =    -365.9039115885241813 [Eh]
	-----------------------------------------------------------

  Dipole Moment: [D]
     X:    -1.3317      Y:     2.7927      Z:    -1.6134     Total:     3.4894

*** Psi4 exiting successfully. Buy a developer a beer!
