                               Psi4 1.3.2 release

  ==> Input File <==

--------------------------------------------------------------------------
#psi4
#
memory 32 gb

molecule  {
0 1
  O        0.8686370    -1.1285810     0.6753960
  N       -0.3937449     0.6250675    -0.1225562
  C       -1.6800190    -0.0563620     0.2358630
  C       -2.0872990    -1.0630810    -0.8349870
  C       -2.7390930     1.0113430     0.4650240
  C        0.7808810    -0.0406060     0.0960010
  C        1.9599604     0.7553105    -0.4458037
  C        3.2969670     0.0166800    -0.0788280
  H       -1.4931140    -0.5968520     1.1678280
  H       -0.4432210     1.3965910    -0.7180680
  H       -3.0167340    -1.5709650    -0.5578120
  H       -2.2433890    -0.5581650    -1.7943680
  H       -1.3035910    -1.8142070    -0.9546500
  H       -2.4287380     1.7063800     1.2494310
  H       -3.6863690     0.5519340     0.7608270
  H       -2.9190420     1.5806020    -0.4540200
  H        1.8890940     0.8204890    -1.5196510
  H        1.9757950     1.7355060    -0.0222730
  H        3.3123780    -0.9936500    -0.4915720
  H        4.1482470     0.5747890    -0.4771690
  H        3.4100600    -0.0687260     1.0041520
units angstrom
no_reorient  #important for SAPT in psi4, default
symmetry c1  #important for SAPT in psi4, default
}

set PROPERTIES_ORIGIN ["COM"]
properties('MP2/aug-cc-pvtz', properties = ['dipole'])
--------------------------------------------------------------------------

    Molecular point group: c1
  Charge       = 0
  Multiplicity = 1
  Basis Set: AUG-CC-PVTZ
    Blend: AUG-CC-PVTZ
  Basis Set: (AUG-CC-PVTZ AUX)
    Blend: AUG-CC-PVTZ-JKFIT

    Orbital Energies [Eh]
    ---------------------

    Doubly Occupied:

       1A    -20.516639     2A    -15.575273     3A    -11.345826
       4A    -11.267874     5A    -11.235322     6A    -11.223692
       7A    -11.214047     8A    -11.213877     9A     -1.366810
      10A     -1.227176    11A     -1.064996    12A     -1.024515
      13A     -0.940230    14A     -0.885395    15A     -0.806314
      16A     -0.788245    17A     -0.681787    18A     -0.652995
      19A     -0.637971    20A     -0.613048    21A     -0.595580
      22A     -0.579367    23A     -0.546049    24A     -0.543848
      25A     -0.525643    26A     -0.513256    27A     -0.500813
      28A     -0.494822    29A     -0.488567    30A     -0.479928
      31A     -0.417191    32A     -0.389673

  @DF-RHF Final Energy:  -364.24396440746023

   => Energetics <=

    Nuclear Repulsion Energy =            391.7628474133356917
    One-Electron Energy =               -1271.3000858323730426
    Two-Electron Energy =                 515.2932740115770684
    Total Energy =                       -364.2439644074602256
  Basis Set: (AUG-CC-PVTZ AUX)
    Blend: AUG-CC-PVTZ-RI
    Molecular point group: c1

    Geometry (in Angstrom), charge = 0, multiplicity = 1:

       Center              X                  Y                   Z               Mass
    ------------   -----------------  -----------------  -----------------  -----------------
         O            0.869189728099    -1.136974382877     0.679699600171    15.994914619570
         N           -0.393192171901     0.616674117123    -0.118252599829    14.003074004430
         C           -1.679466271901    -0.064755382877     0.240166600171    12.000000000000
         C           -2.086746271901    -1.071474382877    -0.830683399829    12.000000000000
         C           -2.738540271901     1.002949617123     0.469327600171    12.000000000000
         C            0.781433728099    -0.048999382877     0.100304600171    12.000000000000
         C            1.960513128099     0.746917117123    -0.441500099829    12.000000000000
         C            3.297519728099     0.008286617123    -0.074524399829    12.000000000000
         H           -1.492561271901    -0.605245382877     1.172131600171     1.007825032230
         H           -0.442668271901     1.388197617123    -0.713764399829     1.007825032230
         H           -3.016181271901    -1.579358382877    -0.553508399829     1.007825032230
         H           -2.242836271901    -0.566558382877    -1.790064399829     1.007825032230
         H           -1.303038271901    -1.822600382877    -0.950346399829     1.007825032230
         H           -2.428185271901     1.697986617123     1.253734600171     1.007825032230
         H           -3.685816271901     0.543540617123     0.765130600171     1.007825032230
         H           -2.918489271901     1.572208617123    -0.449716399829     1.007825032230
         H            1.889646728099     0.812095617123    -1.515347399829     1.007825032230
         H            1.976347728099     1.727112617123    -0.017969399829     1.007825032230
         H            3.312930728099    -1.002043382877    -0.487268399829     1.007825032230
         H            4.148799728099     0.566395617123    -0.472865399829     1.007825032230
         H            3.410612728099    -0.077119382877     1.008455600171     1.007825032230

  Basis Set: AUG-CC-PVTZ
    Blend: AUG-CC-PVTZ
  Basis Set: (AUG-CC-PVTZ AUX)
    Blend: AUG-CC-PVTZ-JKFIT
	 Reference Energy          =    -364.2439644074602256 [Eh]
	 Singles Energy            =      -0.0000000000000000 [Eh]
	 Same-Spin Energy          =      -0.3753244049794862 [Eh]
	 Opposite-Spin Energy      =      -1.2751012413180676 [Eh]
	 Correlation Energy        =      -1.6504256462975537 [Eh]
	 Total Energy              =    -365.8943900537577747 [Eh]

	 ================> DF-SCS-MP2 Energies <==================
	-----------------------------------------------------------
	 SCS Same-Spin Scale       =       0.3333333333333333 [-]
	 SCS Opposite-Spin Scale   =       1.2000000000000000 [-]
	 SCS Same-Spin Energy      =      -0.1251081349931621 [Eh]
	 SCS Opposite-Spin Energy  =      -1.5301214895816810 [Eh]
	 SCS Correlation Energy    =      -1.6552296245748430 [Eh]
	 SCS Total Energy          =    -365.8991940320350409 [Eh]
	-----------------------------------------------------------

  Dipole Moment: [D]
     X:    -1.4146      Y:     2.6622      Z:    -1.6241     Total:     3.4244

*** Psi4 exiting successfully. Buy a developer a beer!
