                               Psi4 1.3.2 release

  ==> Input File <==

--------------------------------------------------------------------------
#psi4
#
memory 32 gb

molecule  {
0 1
  O        0.8686370    -1.1285810     0.6753960
  N       -0.4170490     0.5891890    -0.1013730
  C       -1.6737341    -0.0647890     0.2430292
  C       -2.0872990    -1.0630810    -0.8349870
  C       -2.7390930     1.0113430     0.4650240
  C        0.7808810    -0.0406060     0.0960010
  C        1.9924560     0.7166710    -0.4292430
  C        3.2969670     0.0166800    -0.0788280
  H       -1.4931140    -0.5968520     1.1678280
  H       -0.4343952     1.3972589    -0.7175043
  H       -3.0167340    -1.5709650    -0.5578120
  H       -2.2433890    -0.5581650    -1.7943680
  H       -1.3035910    -1.8142070    -0.9546500
  H       -2.4287380     1.7063800     1.2494310
  H       -3.6863690     0.5519340     0.7608270
  H       -2.9190420     1.5806020    -0.4540200
  H        1.8890940     0.8204890    -1.5196510
  H        1.9757950     1.7355060    -0.0222730
  H        3.3123780    -0.9936500    -0.4915720
  H        4.1482470     0.5747890    -0.4771690
  H        3.4100600    -0.0687260     1.0041520
units angstrom
no_reorient  #important for SAPT in psi4, default
symmetry c1  #important for SAPT in psi4, default
}

set PROPERTIES_ORIGIN ["COM"]
properties('MP2/aug-cc-pvtz', properties = ['dipole'])
--------------------------------------------------------------------------

    Molecular point group: c1
  Charge       = 0
  Multiplicity = 1
  Basis Set: AUG-CC-PVTZ
    Blend: AUG-CC-PVTZ
  Basis Set: (AUG-CC-PVTZ AUX)
    Blend: AUG-CC-PVTZ-JKFIT

    Orbital Energies [Eh]
    ---------------------

    Doubly Occupied:

       1A    -20.513344     2A    -15.578328     3A    -11.344499
       4A    -11.264833     5A    -11.240268     6A    -11.223521
       7A    -11.213504     8A    -11.212503     9A     -1.367169
      10A     -1.228503    11A     -1.065670    12A     -1.029249
      13A     -0.938933    14A     -0.887701    15A     -0.809562
      16A     -0.777905    17A     -0.682120    18A     -0.654839
      19A     -0.635482    20A     -0.612665    21A     -0.593318
      22A     -0.578008    23A     -0.549505    24A     -0.545303
      25A     -0.525574    26A     -0.512748    27A     -0.509560
      28A     -0.497126    29A     -0.486549    30A     -0.479053
      31A     -0.417098    32A     -0.385695

  @DF-RHF Final Energy:  -364.24919643475295

   => Energetics <=

    Nuclear Repulsion Energy =            392.4826946838670665
    One-Electron Energy =               -1272.7435148536228553
    Two-Electron Energy =                 516.0116237350028996
    Total Energy =                       -364.2491964347528892
  Basis Set: (AUG-CC-PVTZ AUX)
    Blend: AUG-CC-PVTZ-RI
    Molecular point group: c1

    Geometry (in Angstrom), charge = 0, multiplicity = 1:

       Center              X                  Y                   Z               Mass
    ------------   -----------------  -----------------  -----------------  -----------------
         O            0.867904478814    -1.127708207256     0.674643802830    15.994914619570
         N           -0.417781521186     0.590061792744    -0.102125197170    14.003074004430
         C           -1.674466621186    -0.063916207256     0.242277002830    12.000000000000
         C           -2.088031521186    -1.062208207256    -0.835739197170    12.000000000000
         C           -2.739825521186     1.012215792744     0.464271802830    12.000000000000
         C            0.780148478814    -0.039733207256     0.095248802830    12.000000000000
         C            1.991723478814     0.717543792744    -0.429995197170    12.000000000000
         C            3.296234478814     0.017552792744    -0.079580197170    12.000000000000
         H           -1.493846521186    -0.595979207256     1.167075802830     1.007825032230
         H           -0.435127721186     1.398131692744    -0.718256497170     1.007825032230
         H           -3.017466521186    -1.570092207256    -0.558564197170     1.007825032230
         H           -2.244121521186    -0.557292207256    -1.795120197170     1.007825032230
         H           -1.304323521186    -1.813334207256    -0.955402197170     1.007825032230
         H           -2.429470521186     1.707252792744     1.248678802830     1.007825032230
         H           -3.687101521186     0.552806792744     0.760074802830     1.007825032230
         H           -2.919774521186     1.581474792744    -0.454772197170     1.007825032230
         H            1.888361478814     0.821361792744    -1.520403197170     1.007825032230
         H            1.975062478814     1.736378792744    -0.023025197170     1.007825032230
         H            3.311645478814    -0.992777207256    -0.492324197170     1.007825032230
         H            4.147514478814     0.575661792744    -0.477921197170     1.007825032230
         H            3.409327478814    -0.067853207256     1.003399802830     1.007825032230

  Basis Set: AUG-CC-PVTZ
    Blend: AUG-CC-PVTZ
  Basis Set: (AUG-CC-PVTZ AUX)
    Blend: AUG-CC-PVTZ-JKFIT
	 Reference Energy          =    -364.2491964347529461 [Eh]
	 Singles Energy            =      -0.0000000000000000 [Eh]
	 Same-Spin Energy          =      -0.3756966721630665 [Eh]
	 Opposite-Spin Energy      =      -1.2750621705470897 [Eh]
	 Correlation Energy        =      -1.6507588427101560 [Eh]
	 Total Energy              =    -365.8999552774631070 [Eh]

	 ================> DF-SCS-MP2 Energies <==================
	-----------------------------------------------------------
	 SCS Same-Spin Scale       =       0.3333333333333333 [-]
	 SCS Opposite-Spin Scale   =       1.2000000000000000 [-]
	 SCS Same-Spin Energy      =      -0.1252322240543555 [Eh]
	 SCS Opposite-Spin Energy  =      -1.5300746046565077 [Eh]
	 SCS Correlation Energy    =      -1.6553068287108632 [Eh]
	 SCS Total Energy          =    -365.9045032634638233 [Eh]
	-----------------------------------------------------------

  Dipole Moment: [D]
     X:    -1.2833      Y:     2.7238      Z:    -1.6408     Total:     3.4291

*** Psi4 exiting successfully. Buy a developer a beer!
