                               Psi4 1.3.2 release

  ==> Input File <==

--------------------------------------------------------------------------
#psi4
#
memory 32 gb

molecule  {
0 1
  O        0.8686370    -1.1285810     0.6753960
  N       -0.4170490     0.5891890    -0.1013730
  C       -1.6800190    -0.0563620     0.2358630
  C       -2.0872990    -1.0630810    -0.8349870
  C       -2.7390930     1.0113430     0.4650240
  C        0.7879824    -0.1286474     0.1428869
  C        1.9924560     0.7166710    -0.4292430
  C        3.2969670     0.0166800    -0.0788280
  H       -1.4931140    -0.5968520     1.1678280
  H       -0.4432210     1.3965910    -0.7180680
  H       -3.0167340    -1.5709650    -0.5578120
  H       -2.2433890    -0.5581650    -1.7943680
  H       -1.3035910    -1.8142070    -0.9546500
  H       -2.4287380     1.7063800     1.2494310
  H       -3.6863690     0.5519340     0.7608270
  H       -2.9190420     1.5806020    -0.4540200
  H        1.8890940     0.8204890    -1.5196510
  H        1.9757950     1.7355060    -0.0222730
  H        3.3123780    -0.9936500    -0.4915720
  H        4.1482470     0.5747890    -0.4771690
  H        3.4100600    -0.0687260     1.0041520
units angstrom
no_reorient  #important for SAPT in psi4, default
symmetry c1  #important for SAPT in psi4, default
}

set PROPERTIES_ORIGIN ["COM"]
properties('MP2/aug-cc-pvtz', properties = ['dipole'])
--------------------------------------------------------------------------

    Molecular point group: c1
  Charge       = 0
  Multiplicity = 1
  Basis Set: AUG-CC-PVTZ
    Blend: AUG-CC-PVTZ
  Basis Set: (AUG-CC-PVTZ AUX)
    Blend: AUG-CC-PVTZ-JKFIT

    Orbital Energies [Eh]
    ---------------------

    Doubly Occupied:

       1A    -20.533925     2A    -15.563161     3A    -11.342026
       4A    -11.258410     5A    -11.235934     6A    -11.218958
       7A    -11.212092     8A    -11.209867     9A     -1.440494
      10A     -1.215672    11A     -1.054925    12A     -1.021502
      13A     -0.936429    14A     -0.875349    15A     -0.799169
      16A     -0.770504    17A     -0.693823    18A     -0.656673
      19A     -0.636892    20A     -0.616006    21A     -0.609496
      22A     -0.579884    23A     -0.550043    24A     -0.541503
      25A     -0.536079    26A     -0.522908    27A     -0.507567
      28A     -0.494793    29A     -0.493172    30A     -0.480274
      31A     -0.410433    32A     -0.381992

  @DF-RHF Final Energy:  -364.23806574823089

   => Energetics <=

    Nuclear Repulsion Energy =            393.0380308298102250
    One-Electron Energy =               -1273.7522801272114066
    Two-Electron Energy =                 516.4761835491704005
    Total Energy =                       -364.2380657482308379
  Basis Set: (AUG-CC-PVTZ AUX)
    Blend: AUG-CC-PVTZ-RI
    Molecular point group: c1

    Geometry (in Angstrom), charge = 0, multiplicity = 1:

       Center              X                  Y                   Z               Mass
    ------------   -----------------  -----------------  -----------------  -----------------
         O            0.867896632245    -1.119401966582     0.670507664934    15.994914619570
         N           -0.417789367755     0.598368033418    -0.106261335066    14.003074004430
         C           -1.680759367755    -0.047182966582     0.230974664934    12.000000000000
         C           -2.088039367755    -1.053901966582    -0.839875335066    12.000000000000
         C           -2.739833367755     1.020522033418     0.460135664934    12.000000000000
         C            0.787242032245    -0.119468366582     0.137998564934    12.000000000000
         C            1.991715632245     0.725850033418    -0.434131335066    12.000000000000
         C            3.296226632245     0.025859033418    -0.083716335066    12.000000000000
         H           -1.493854367755    -0.587672966582     1.162939664934     1.007825032230
         H           -0.443961367755     1.405770033418    -0.722956335066     1.007825032230
         H           -3.017474367755    -1.561785966582    -0.562700335066     1.007825032230
         H           -2.244129367755    -0.548985966582    -1.799256335066     1.007825032230
         H           -1.304331367755    -1.805027966582    -0.959538335066     1.007825032230
         H           -2.429478367755     1.715559033418     1.244542664934     1.007825032230
         H           -3.687109367755     0.561113033418     0.755938664934     1.007825032230
         H           -2.919782367755     1.589781033418    -0.458908335066     1.007825032230
         H            1.888353632245     0.829668033418    -1.524539335066     1.007825032230
         H            1.975054632245     1.744685033418    -0.027161335066     1.007825032230
         H            3.311637632245    -0.984470966582    -0.496460335066     1.007825032230
         H            4.147506632245     0.583968033418    -0.482057335066     1.007825032230
         H            3.409319632245    -0.059546966582     0.999263664934     1.007825032230

  Basis Set: AUG-CC-PVTZ
    Blend: AUG-CC-PVTZ
  Basis Set: (AUG-CC-PVTZ AUX)
    Blend: AUG-CC-PVTZ-JKFIT
	 Reference Energy          =    -364.2380657482308948 [Eh]
	 Singles Energy            =      -0.0000000000000000 [Eh]
	 Same-Spin Energy          =      -0.3738595248005941 [Eh]
	 Opposite-Spin Energy      =      -1.2715613242100445 [Eh]
	 Correlation Energy        =      -1.6454208490106386 [Eh]
	 Total Energy              =    -365.8834865972415287 [Eh]

	 ================> DF-SCS-MP2 Energies <==================
	-----------------------------------------------------------
	 SCS Same-Spin Scale       =       0.3333333333333333 [-]
	 SCS Opposite-Spin Scale   =       1.2000000000000000 [-]
	 SCS Same-Spin Energy      =      -0.1246198416001980 [Eh]
	 SCS Opposite-Spin Energy  =      -1.5258735890520534 [Eh]
	 SCS Correlation Energy    =      -1.6504934306522514 [Eh]
	 SCS Total Energy          =    -365.8885591788831562 [Eh]
	-----------------------------------------------------------

  Dipole Moment: [D]
     X:    -0.9589      Y:     2.1686      Z:    -1.3568     Total:     2.7318

*** Psi4 exiting successfully. Buy a developer a beer!
