                               Psi4 1.3.2 release

  ==> Input File <==

--------------------------------------------------------------------------
#psi4
#
memory 32 gb

molecule  {
0 1
  O        0.8686370    -1.1285810     0.6753960
  N       -0.4170490     0.5891890    -0.1013730
  C       -1.6800190    -0.0563620     0.2358630
  C       -2.0872990    -1.0630810    -0.8349870
  C       -2.7390930     1.0113430     0.4650240
  C        0.7906912    -0.0387581     0.1206223
  C        1.9924560     0.7166710    -0.4292430
  C        3.2969670     0.0166800    -0.0788280
  H       -1.4931140    -0.5968520     1.1678280
  H       -0.4432210     1.3965910    -0.7180680
  H       -3.0167340    -1.5709650    -0.5578120
  H       -2.2433890    -0.5581650    -1.7943680
  H       -1.3035910    -1.8142070    -0.9546500
  H       -2.4287380     1.7063800     1.2494310
  H       -3.6863690     0.5519340     0.7608270
  H       -2.9190420     1.5806020    -0.4540200
  H        1.9058039     0.8299350    -1.5201665
  H        1.9757950     1.7355060    -0.0222730
  H        3.3123780    -0.9936500    -0.4915720
  H        4.1482470     0.5747890    -0.4771690
  H        3.4100600    -0.0687260     1.0041520
units angstrom
no_reorient  #important for SAPT in psi4, default
symmetry c1  #important for SAPT in psi4, default
}

set PROPERTIES_ORIGIN ["COM"]
properties('MP2/aug-cc-pvtz', properties = ['dipole'])
--------------------------------------------------------------------------

    Molecular point group: c1
  Charge       = 0
  Multiplicity = 1
  Basis Set: AUG-CC-PVTZ
    Blend: AUG-CC-PVTZ
  Basis Set: (AUG-CC-PVTZ AUX)
    Blend: AUG-CC-PVTZ-JKFIT

    Orbital Energies [Eh]
    ---------------------

    Doubly Occupied:

       1A    -20.516460     2A    -15.575877     3A    -11.345632
       4A    -11.263844     5A    -11.240225     6A    -11.222566
       7A    -11.213631     8A    -11.211714     9A     -1.373903
      10A     -1.225781    11A     -1.065377    12A     -1.029025
      13A     -0.938984    14A     -0.887045    15A     -0.806628
      16A     -0.776239    17A     -0.684617    18A     -0.652818
      19A     -0.634952    20A     -0.612795    21A     -0.597048
      22A     -0.577928    23A     -0.549038    24A     -0.544578
      25A     -0.526139    26A     -0.514288    27A     -0.508671
      28A     -0.496229    29A     -0.488104    30A     -0.477993
      31A     -0.418933    32A     -0.384675

  @DF-RHF Final Energy:  -364.24921256786985

   => Energetics <=

    Nuclear Repulsion Energy =            392.4438299968463753
    One-Electron Energy =               -1272.6626074844234608
    Two-Electron Energy =                 515.9695649197072953
    Total Energy =                       -364.2492125678697903
  Basis Set: (AUG-CC-PVTZ AUX)
    Blend: AUG-CC-PVTZ-RI
    Molecular point group: c1

    Geometry (in Angstrom), charge = 0, multiplicity = 1:

       Center              X                  Y                   Z               Mass
    ------------   -----------------  -----------------  -----------------  -----------------
         O            0.867467906110    -1.128856303843     0.672833428608    15.994914619570
         N           -0.418218093890     0.588913696157    -0.103935571392    14.003074004430
         C           -1.681188093890    -0.056637303843     0.233300428608    12.000000000000
         C           -2.088468093890    -1.063356303843    -0.837549571392    12.000000000000
         C           -2.740262093890     1.011067696157     0.462461428608    12.000000000000
         C            0.789522106110    -0.039033403843     0.118059728608    12.000000000000
         C            1.991286906110     0.716395696157    -0.431805571392    12.000000000000
         C            3.295797906110     0.016404696157    -0.081390571392    12.000000000000
         H           -1.494283093890    -0.597127303843     1.165265428608     1.007825032230
         H           -0.444390093890     1.396315696157    -0.720630571392     1.007825032230
         H           -3.017903093890    -1.571240303843    -0.560374571392     1.007825032230
         H           -2.244558093890    -0.558440303843    -1.796930571392     1.007825032230
         H           -1.304760093890    -1.814482303843    -0.957212571392     1.007825032230
         H           -2.429907093890     1.706104696157     1.246868428608     1.007825032230
         H           -3.687538093890     0.551658696157     0.758264428608     1.007825032230
         H           -2.920211093890     1.580326696157    -0.456582571392     1.007825032230
         H            1.904634806110     0.829659696157    -1.522729071392     1.007825032230
         H            1.974625906110     1.735230696157    -0.024835571392     1.007825032230
         H            3.311208906110    -0.993925303843    -0.494134571392     1.007825032230
         H            4.147077906110     0.574513696157    -0.479731571392     1.007825032230
         H            3.408890906110    -0.069001303843     1.001589428608     1.007825032230

  Basis Set: AUG-CC-PVTZ
    Blend: AUG-CC-PVTZ
  Basis Set: (AUG-CC-PVTZ AUX)
    Blend: AUG-CC-PVTZ-JKFIT
	 Reference Energy          =    -364.2492125678698471 [Eh]
	 Singles Energy            =      -0.0000000000000000 [Eh]
	 Same-Spin Energy          =      -0.3756166452798138 [Eh]
	 Opposite-Spin Energy      =      -1.2748825546806961 [Eh]
	 Correlation Energy        =      -1.6504991999605099 [Eh]
	 Total Energy              =    -365.8997117678303539 [Eh]

	 ================> DF-SCS-MP2 Energies <==================
	-----------------------------------------------------------
	 SCS Same-Spin Scale       =       0.3333333333333333 [-]
	 SCS Opposite-Spin Scale   =       1.2000000000000000 [-]
	 SCS Same-Spin Energy      =      -0.1252055484266046 [Eh]
	 SCS Opposite-Spin Energy  =      -1.5298590656168354 [Eh]
	 SCS Correlation Energy    =      -1.6550646140434400 [Eh]
	 SCS Total Energy          =    -365.9042771819133009 [Eh]
	-----------------------------------------------------------

  Dipole Moment: [D]
     X:    -1.2016      Y:     2.6745      Z:    -1.6049     Total:     3.3425

*** Psi4 exiting successfully. Buy a developer a beer!
