                               Psi4 1.3.2 release

  ==> Input File <==

--------------------------------------------------------------------------
#psi4
#
memory 32 gb

molecule  {
0 1
  O        0.8686370    -1.1285810     0.6753960
  N       -0.4170490     0.5891890    -0.1013730
  C       -1.6800190    -0.0563620     0.2358630
  C       -2.0605947    -0.9970731    -0.7647742
  C       -2.7390930     1.0113430     0.4650240
  C        0.7808810    -0.0406060     0.0960010
  C        1.9924560     0.7166710    -0.4292430
  C        3.2969670     0.0166800    -0.0788280
  H       -1.4931140    -0.5968520     1.1678280
  H       -0.4432210     1.3965910    -0.7180680
  H       -3.0167340    -1.5709650    -0.5578120
  H       -2.2433890    -0.5581650    -1.7943680
  H       -1.3035910    -1.8142070    -0.9546500
  H       -2.4287380     1.7063800     1.2494310
  H       -3.6863690     0.5519340     0.7608270
  H       -2.9190420     1.5806020    -0.4540200
  H        1.8890940     0.8204890    -1.5196510
  H        1.9757950     1.7355060    -0.0222730
  H        3.3123780    -0.9936500    -0.4915720
  H        4.1482470     0.5747890    -0.4771690
  H        3.4100600    -0.0687260     1.0041520
units angstrom
no_reorient  #important for SAPT in psi4, default
symmetry c1  #important for SAPT in psi4, default
}

set PROPERTIES_ORIGIN ["COM"]
properties('MP2/aug-cc-pvtz', properties = ['dipole'])
--------------------------------------------------------------------------

    Molecular point group: c1
  Charge       = 0
  Multiplicity = 1
  Basis Set: AUG-CC-PVTZ
    Blend: AUG-CC-PVTZ
  Basis Set: (AUG-CC-PVTZ AUX)
    Blend: AUG-CC-PVTZ-JKFIT

    Orbital Energies [Eh]
    ---------------------

    Doubly Occupied:

       1A    -20.513469     2A    -15.578077     3A    -11.345042
       4A    -11.260415     5A    -11.240303     6A    -11.223704
       7A    -11.218256     8A    -11.213497     9A     -1.367411
      10A     -1.232087    11A     -1.074452    12A     -1.034497
      13A     -0.941145    14A     -0.887365    15A     -0.806164
      16A     -0.779095    17A     -0.683764    18A     -0.657182
      19A     -0.638512    20A     -0.621881    21A     -0.594157
      22A     -0.579419    23A     -0.549587    24A     -0.541348
      25A     -0.520685    26A     -0.512891    27A     -0.511803
      28A     -0.492522    29A     -0.487169    30A     -0.467334
      31A     -0.416779    32A     -0.390119

  @DF-RHF Final Energy:  -364.23742657597728

   => Energetics <=

    Nuclear Repulsion Energy =            394.1711409677766369
    One-Electron Energy =               -1276.0568647690436137
    Two-Electron Energy =                 517.6482972252896388
    Total Energy =                       -364.2374265759773380
  Basis Set: (AUG-CC-PVTZ AUX)
    Blend: AUG-CC-PVTZ-RI
    Molecular point group: c1

    Geometry (in Angstrom), charge = 0, multiplicity = 1:

       Center              X                  Y                   Z               Mass
    ------------   -----------------  -----------------  -----------------  -----------------
         O            0.865852884335    -1.135462750185     0.668075662367    15.994914619570
         N           -0.419833115665     0.582307249815    -0.108693337633    14.003074004430
         C           -1.682803115665    -0.063243750185     0.228542662367    12.000000000000
         C           -2.063378815665    -1.003954850185    -0.772094537633    12.000000000000
         C           -2.741877115665     1.004461249815     0.457703662367    12.000000000000
         C            0.778096884335    -0.047487750185     0.088680662367    12.000000000000
         C            1.989671884335     0.709789249815    -0.436563337633    12.000000000000
         C            3.294182884335     0.009798249815    -0.086148337633    12.000000000000
         H           -1.495898115665    -0.603733750185     1.160507662367     1.007825032230
         H           -0.446005115665     1.389709249815    -0.725388337633     1.007825032230
         H           -3.019518115665    -1.577846750185    -0.565132337633     1.007825032230
         H           -2.246173115665    -0.565046750185    -1.801688337633     1.007825032230
         H           -1.306375115665    -1.821088750185    -0.961970337633     1.007825032230
         H           -2.431522115665     1.699498249815     1.242110662367     1.007825032230
         H           -3.689153115665     0.545052249815     0.753506662367     1.007825032230
         H           -2.921826115665     1.573720249815    -0.461340337633     1.007825032230
         H            1.886309884335     0.813607249815    -1.526971337633     1.007825032230
         H            1.973010884335     1.728624249815    -0.029593337633     1.007825032230
         H            3.309593884335    -1.000531750185    -0.498892337633     1.007825032230
         H            4.145462884335     0.567907249815    -0.484489337633     1.007825032230
         H            3.407275884335    -0.075607750185     0.996831662367     1.007825032230

  Basis Set: AUG-CC-PVTZ
    Blend: AUG-CC-PVTZ
  Basis Set: (AUG-CC-PVTZ AUX)
    Blend: AUG-CC-PVTZ-JKFIT
	 Reference Energy          =    -364.2374265759772811 [Eh]
	 Singles Energy            =      -0.0000000000000000 [Eh]
	 Same-Spin Energy          =      -0.3768251434542474 [Eh]
	 Opposite-Spin Energy      =      -1.2763763528388610 [Eh]
	 Correlation Energy        =      -1.6532014962931083 [Eh]
	 Total Energy              =    -365.8906280722703741 [Eh]

	 ================> DF-SCS-MP2 Energies <==================
	-----------------------------------------------------------
	 SCS Same-Spin Scale       =       0.3333333333333333 [-]
	 SCS Opposite-Spin Scale   =       1.2000000000000000 [-]
	 SCS Same-Spin Energy      =      -0.1256083811514158 [Eh]
	 SCS Opposite-Spin Energy  =      -1.5316516234066331 [Eh]
	 SCS Correlation Energy    =      -1.6572600045580488 [Eh]
	 SCS Total Energy          =    -365.8946865805353355 [Eh]
	-----------------------------------------------------------

  Dipole Moment: [D]
     X:    -1.2981      Y:     2.6908      Z:    -1.6515     Total:     3.4136

*** Psi4 exiting successfully. Buy a developer a beer!
