                               Psi4 1.4a3.dev225

  ==> Input File <==

--------------------------------------------------------------------------
#psi4
#
memory 32 gb

molecule  {
0 1
  O        0.8665680     1.1680080    -0.7351460
  N       -0.3660760    -0.5086790     0.1929010
  C       -1.6441200     0.0174450    -0.2761400
  C       -2.1575419     1.1811379     0.6547571
  C       -2.6427120    -1.1266550    -0.3840140
  C        0.8063460     0.1556180    -0.0295640
  C        2.0309430    -0.4326950     0.6540710
  C        3.2825740    -0.2523450    -0.1975960
  H       -1.4466230     0.4281070    -1.2709490
  H       -0.3785050    -1.2608410     0.8714320
  H       -3.0785860     1.5617170     0.2436050
  H       -2.3175770     0.7713190     1.6396860
  H       -1.3960540     1.9417130     0.6641920
  H       -2.2693050    -1.9092940    -1.0497770
  H       -3.5969080    -0.7634960    -0.7753550
  H       -2.8341330    -1.5678230     0.6011330
  H        2.1523320     0.0883960     1.6122110
  H        1.8656800    -1.4909910     0.8873090
  H        3.4076760     0.8004350    -0.4533700
  H        4.1701610    -0.5986810     0.3385000
  H        3.2011700    -0.8174180    -1.1296580
units angstrom
no_reorient  #important for SAPT in psi4, default
symmetry c1  #important for SAPT in psi4, default
}

set PROPERTIES_ORIGIN ["COM"]
properties('MP2/aug-cc-pvtz', properties = ['dipole'])
--------------------------------------------------------------------------

    Molecular point group: c1
  Charge       = 0
  Multiplicity = 1
  Basis Set: AUG-CC-PVTZ
    Blend: AUG-CC-PVTZ
  Basis Set: (AUG-CC-PVTZ AUX)
    Blend: AUG-CC-PVTZ-JKFIT

    Orbital Energies [Eh]
    ---------------------

    Doubly Occupied:

       1A    -20.510970     2A    -15.580819     3A    -11.344377
       4A    -11.267925     5A    -11.239874     6A    -11.224624
       7A    -11.215722     8A    -11.210761     9A     -1.366422
      10A     -1.228145    11A     -1.063858    12A     -1.028080
      13A     -0.940146    14A     -0.888111    15A     -0.810477
      16A     -0.780368    17A     -0.681395    18A     -0.657414
      19A     -0.624822    20A     -0.613405    21A     -0.593525
      22A     -0.578905    23A     -0.556931    24A     -0.548116
      25A     -0.531256    26A     -0.514092    27A     -0.508172
      28A     -0.496317    29A     -0.490678    30A     -0.473404
      31A     -0.415205    32A     -0.383589

  @DF-RHF Final Energy:  -364.24781310320662

   => Energetics <=

    Nuclear Repulsion Energy =            391.7378927061185436
    One-Electron Energy =               -1271.2356078212155808
    Two-Electron Energy =                 515.2499020118902990
    Total Energy =                       -364.2478131032066813
  Basis Set: (AUG-CC-PVTZ AUX)
    Blend: AUG-CC-PVTZ-RI
    Molecular point group: c1

    Geometry (in Angstrom), charge = 0, multiplicity = 1:

       Center              X                  Y                   Z               Mass
    ------------   -----------------  -----------------  -----------------  -----------------
         O            0.846585633125     1.139942853327    -0.719479480626    15.994914619570
         N           -0.386058366875    -0.536744146673     0.208567519374    14.003074004430
         C           -1.664102366875    -0.010620146673    -0.260473480626    12.000000000000
         C           -2.177524266875     1.153072753327     0.670423619374    12.000000000000
         C           -2.662694366875    -1.154720146673    -0.368347480626    12.000000000000
         C            0.786363633125     0.127552853327    -0.013897480626    12.000000000000
         C            2.010960633125    -0.460760146673     0.669737519374    12.000000000000
         C            3.262591633125    -0.280410146673    -0.181929480626    12.000000000000
         H           -1.466605366875     0.400041853327    -1.255282480626     1.007825032230
         H           -0.398487366875    -1.288906146673     0.887098519374     1.007825032230
         H           -3.098568366875     1.533651853327     0.259271519374     1.007825032230
         H           -2.337559366875     0.743253853327     1.655352519374     1.007825032230
         H           -1.416036366875     1.913647853327     0.679858519374     1.007825032230
         H           -2.289287366875    -1.937359146673    -1.034110480626     1.007825032230
         H           -3.616890366875    -0.791561146673    -0.759688480626     1.007825032230
         H           -2.854115366875    -1.595888146673     0.616799519374     1.007825032230
         H            2.132349633125     0.060330853327     1.627877519374     1.007825032230
         H            1.845697633125    -1.519056146673     0.902975519374     1.007825032230
         H            3.387693633125     0.772369853327    -0.437703480626     1.007825032230
         H            4.150178633125    -0.626746146673     0.354166519374     1.007825032230
         H            3.181187633125    -0.845483146673    -1.113991480626     1.007825032230

  Basis Set: AUG-CC-PVTZ
    Blend: AUG-CC-PVTZ
  Basis Set: (AUG-CC-PVTZ AUX)
    Blend: AUG-CC-PVTZ-JKFIT
	 Reference Energy          =    -364.2478131032066244 [Eh]
	 Singles Energy            =      -0.0000000000000000 [Eh]
	 Same-Spin Energy          =      -0.3756277418671611 [Eh]
	 Opposite-Spin Energy      =      -1.2751282486453546 [Eh]
	 Correlation Energy        =      -1.6507559905125158 [Eh]
	 Total Energy              =    -365.8985690937191180 [Eh]

	 ================> DF-SCS-MP2 Energies <==================
	-----------------------------------------------------------
	 SCS Same-Spin Scale       =       0.3333333333333333 [-]
	 SCS Opposite-Spin Scale   =       1.2000000000000000 [-]
	 SCS Same-Spin Energy      =      -0.1252092472890537 [Eh]
	 SCS Opposite-Spin Energy  =      -1.5301538983744254 [Eh]
	 SCS Correlation Energy    =      -1.6553631456634790 [Eh]
	 SCS Total Energy          =    -365.9031762488701247 [Eh]
	-----------------------------------------------------------

  Dipole Moment: [D]
     X:    -1.2675      Y:    -2.6264      Z:     1.8908     Total:     3.4756

*** Psi4 exiting successfully. Buy a developer a beer!
