                               Psi4 1.3.2 release

  ==> Input File <==

--------------------------------------------------------------------------
#psi4
#
memory 32 gb

molecule  {
0 1
  O        0.8900161    -1.1281400     0.6725846
  N       -0.4056249     0.6070075    -0.1124096
  C       -1.6800190    -0.0563620     0.2358630
  C       -2.0872990    -1.0630810    -0.8349870
  C       -2.7390930     1.0113430     0.4650240
  C        0.7808810    -0.0406060     0.0960010
  C        1.9924560     0.7166710    -0.4292430
  C        3.2969670     0.0166800    -0.0788280
  H       -1.4931140    -0.5968520     1.1678280
  H       -0.4432210     1.3965910    -0.7180680
  H       -3.0167340    -1.5709650    -0.5578120
  H       -2.2433890    -0.5581650    -1.7943680
  H       -1.3035910    -1.8142070    -0.9546500
  H       -2.4287380     1.7063800     1.2494310
  H       -3.6863690     0.5519340     0.7608270
  H       -2.9190420     1.5806020    -0.4540200
  H        1.8890940     0.8204890    -1.5196510
  H        1.9757950     1.7355060    -0.0222730
  H        3.3123780    -0.9936500    -0.4915720
  H        4.1482470     0.5747890    -0.4771690
  H        3.4100600    -0.0687260     1.0041520
units angstrom
no_reorient  #important for SAPT in psi4, default
symmetry c1  #important for SAPT in psi4, default
}

set PROPERTIES_ORIGIN ["COM"]
properties('MP2/aug-cc-pvtz', properties = ['dipole'])
--------------------------------------------------------------------------

    Molecular point group: c1
  Charge       = 0
  Multiplicity = 1
  Basis Set: AUG-CC-PVTZ
    Blend: AUG-CC-PVTZ
  Basis Set: (AUG-CC-PVTZ AUX)
    Blend: AUG-CC-PVTZ-JKFIT

    Orbital Energies [Eh]
    ---------------------

    Doubly Occupied:

       1A    -20.514621     2A    -15.578145     3A    -11.345076
       4A    -11.267444     5A    -11.237814     6A    -11.224202
       7A    -11.213862     8A    -11.211918     9A     -1.366595
      10A     -1.228852    11A     -1.065864    12A     -1.029673
      13A     -0.940682    14A     -0.886122    15A     -0.807022
      16A     -0.783205    17A     -0.681598    18A     -0.653612
      19A     -0.634490    20A     -0.613835    21A     -0.594466
      22A     -0.579419    23A     -0.549178    24A     -0.546180
      25A     -0.525876    26A     -0.511473    27A     -0.506863
      28A     -0.496312    29A     -0.488521    30A     -0.477953
      31A     -0.416360    32A     -0.388531

  @DF-RHF Final Energy:  -364.24871546602731

   => Energetics <=

    Nuclear Repulsion Energy =            392.1578015473486403
    One-Electron Energy =               -1272.0815094346271508
    Two-Electron Energy =                 515.6749924212512042
    Total Energy =                       -364.2487154660273063
  Basis Set: (AUG-CC-PVTZ AUX)
    Blend: AUG-CC-PVTZ-RI
    Molecular point group: c1

    Geometry (in Angstrom), charge = 0, multiplicity = 1:

       Center              X                  Y                   Z               Mass
    ------------   -----------------  -----------------  -----------------  -----------------
         O            0.885655283659    -1.130369025606     0.674317873301    15.994914619570
         N           -0.409985716341     0.604778474394    -0.110676326699    14.003074004430
         C           -1.684379816341    -0.058591025606     0.237596273301    12.000000000000
         C           -2.091659816341    -1.065310025606    -0.833253726699    12.000000000000
         C           -2.743453816341     1.009113974394     0.466757273301    12.000000000000
         C            0.776520183659    -0.042835025606     0.097734273301    12.000000000000
         C            1.988095183659     0.714441974394    -0.427509726699    12.000000000000
         C            3.292606183659     0.014450974394    -0.077094726699    12.000000000000
         H           -1.497474816341    -0.599081025606     1.169561273301     1.007825032230
         H           -0.447581816341     1.394361974394    -0.716334726699     1.007825032230
         H           -3.021094816341    -1.573194025606    -0.556078726699     1.007825032230
         H           -2.247749816341    -0.560394025606    -1.792634726699     1.007825032230
         H           -1.307951816341    -1.816436025606    -0.952916726699     1.007825032230
         H           -2.433098816341     1.704150974394     1.251164273301     1.007825032230
         H           -3.690729816341     0.549704974394     0.762560273301     1.007825032230
         H           -2.923402816341     1.578372974394    -0.452286726699     1.007825032230
         H            1.884733183659     0.818259974394    -1.517917726699     1.007825032230
         H            1.971434183659     1.733276974394    -0.020539726699     1.007825032230
         H            3.308017183659    -0.995879025606    -0.489838726699     1.007825032230
         H            4.143886183659     0.572559974394    -0.475435726699     1.007825032230
         H            3.405699183659    -0.070955025606     1.005885273301     1.007825032230

  Basis Set: AUG-CC-PVTZ
    Blend: AUG-CC-PVTZ
  Basis Set: (AUG-CC-PVTZ AUX)
    Blend: AUG-CC-PVTZ-JKFIT
	 Reference Energy          =    -364.2487154660273063 [Eh]
	 Singles Energy            =      -0.0000000000000000 [Eh]
	 Same-Spin Energy          =      -0.3755534361822639 [Eh]
	 Opposite-Spin Energy      =      -1.2749718608744929 [Eh]
	 Correlation Energy        =      -1.6505252970567568 [Eh]
	 Total Energy              =    -365.8992407630840376 [Eh]

	 ================> DF-SCS-MP2 Energies <==================
	-----------------------------------------------------------
	 SCS Same-Spin Scale       =       0.3333333333333333 [-]
	 SCS Opposite-Spin Scale   =       1.2000000000000000 [-]
	 SCS Same-Spin Energy      =      -0.1251844787274213 [Eh]
	 SCS Opposite-Spin Energy  =      -1.5299662330493915 [Eh]
	 SCS Correlation Energy    =      -1.6551507117768127 [Eh]
	 SCS Total Energy          =    -365.9038661778041046 [Eh]
	-----------------------------------------------------------

  Dipole Moment: [D]
     X:    -1.4192      Y:     2.6869      Z:    -1.6243     Total:     3.4456

*** Psi4 exiting successfully. Buy a developer a beer!
