                               Psi4 1.3.2 release

  ==> Input File <==

--------------------------------------------------------------------------
#psi4
#
memory 32 gb

molecule  {
0 1
  O        0.8686370    -1.1285810     0.6753960
  N       -0.4170490     0.5891890    -0.1013730
  C       -1.6800190    -0.0563620     0.2358630
  C       -2.0872990    -1.0630810    -0.8349870
  C       -2.7390930     1.0113430     0.4650240
  C        0.7623707    -0.0436092     0.0462860
  C        1.9924560     0.7166710    -0.4292430
  C        3.2969670     0.0166800    -0.0788280
  H       -1.4931140    -0.5968520     1.1678280
  H       -0.4432210     1.3965910    -0.7180680
  H       -3.0167340    -1.5709650    -0.5578120
  H       -2.2433890    -0.5581650    -1.7943680
  H       -1.3035910    -1.8142070    -0.9546500
  H       -2.4287380     1.7063800     1.2494310
  H       -3.6863690     0.5519340     0.7608270
  H       -2.9190420     1.5806020    -0.4540200
  H        1.8557737     0.8015049    -1.5176237
  H        1.9757950     1.7355060    -0.0222730
  H        3.3123780    -0.9936500    -0.4915720
  H        4.1482470     0.5747890    -0.4771690
  H        3.4100600    -0.0687260     1.0041520
units angstrom
no_reorient  #important for SAPT in psi4, default
symmetry c1  #important for SAPT in psi4, default
}

set PROPERTIES_ORIGIN ["COM"]
properties('MP2/aug-cc-pvtz', properties = ['dipole'])
--------------------------------------------------------------------------

    Molecular point group: c1
  Charge       = 0
  Multiplicity = 1
  Basis Set: AUG-CC-PVTZ
    Blend: AUG-CC-PVTZ
  Basis Set: (AUG-CC-PVTZ AUX)
    Blend: AUG-CC-PVTZ-JKFIT

    Orbital Energies [Eh]
    ---------------------

    Doubly Occupied:

       1A    -20.507739     2A    -15.583188     3A    -11.343931
       4A    -11.267123     5A    -11.240738     6A    -11.225251
       7A    -11.214135     8A    -11.213320     9A     -1.354261
      10A     -1.232833    11A     -1.068036    12A     -1.031169
      13A     -0.941662    14A     -0.889715    15A     -0.811249
      16A     -0.782054    17A     -0.678130    18A     -0.655257
      19A     -0.636382    20A     -0.615913    21A     -0.586673
      22A     -0.577738    23A     -0.551532    24A     -0.546978
      25A     -0.525007    26A     -0.511982    27A     -0.508387
      28A     -0.497756    29A     -0.488398    30A     -0.474425
      31A     -0.413107    32A     -0.386959

  @DF-RHF Final Energy:  -364.24520883995183

   => Energetics <=

    Nuclear Repulsion Energy =            392.5558016615842121
    One-Electron Energy =               -1272.8799619349995282
    Two-Electron Energy =                 516.0789514334635442
    Total Energy =                       -364.2452088399518288
  Basis Set: (AUG-CC-PVTZ AUX)
    Blend: AUG-CC-PVTZ-RI
    Molecular point group: c1

    Geometry (in Angstrom), charge = 0, multiplicity = 1:

       Center              X                  Y                   Z               Mass
    ------------   -----------------  -----------------  -----------------  -----------------
         O            0.870858598182    -1.128101603736     0.680561274936    15.994914619570
         N           -0.414827401818     0.589668396264    -0.096207725064    14.003074004430
         C           -1.677797401818    -0.055882603736     0.241028274936    12.000000000000
         C           -2.085077401818    -1.062601603736    -0.829821725064    12.000000000000
         C           -2.736871401818     1.011822396264     0.470189274936    12.000000000000
         C            0.764592298182    -0.043129803736     0.051451274936    12.000000000000
         C            1.994677598182     0.717150396264    -0.424077725064    12.000000000000
         C            3.299188598182     0.017159396264    -0.073662725064    12.000000000000
         H           -1.490892401818    -0.596372603736     1.172993274936     1.007825032230
         H           -0.440999401818     1.397070396264    -0.712902725064     1.007825032230
         H           -3.014512401818    -1.570485603736    -0.552646725064     1.007825032230
         H           -2.241167401818    -0.557685603736    -1.789202725064     1.007825032230
         H           -1.301369401818    -1.813727603736    -0.949484725064     1.007825032230
         H           -2.426516401818     1.706859396264     1.254596274936     1.007825032230
         H           -3.684147401818     0.552413396264     0.765992274936     1.007825032230
         H           -2.916820401818     1.581081396264    -0.448854725064     1.007825032230
         H            1.857995298182     0.801984296264    -1.512458425064     1.007825032230
         H            1.978016598182     1.735985396264    -0.017107725064     1.007825032230
         H            3.314599598182    -0.993170603736    -0.486406725064     1.007825032230
         H            4.150468598182     0.575268396264    -0.472003725064     1.007825032230
         H            3.412281598182    -0.068246603736     1.009317274936     1.007825032230

  Basis Set: AUG-CC-PVTZ
    Blend: AUG-CC-PVTZ
  Basis Set: (AUG-CC-PVTZ AUX)
    Blend: AUG-CC-PVTZ-JKFIT
	 Reference Energy          =    -364.2452088399518288 [Eh]
	 Singles Energy            =      -0.0000000000000000 [Eh]
	 Same-Spin Energy          =      -0.3762818050153348 [Eh]
	 Opposite-Spin Energy      =      -1.2761344800806858 [Eh]
	 Correlation Energy        =      -1.6524162850960207 [Eh]
	 Total Energy              =    -365.8976251250478526 [Eh]

	 ================> DF-SCS-MP2 Energies <==================
	-----------------------------------------------------------
	 SCS Same-Spin Scale       =       0.3333333333333333 [-]
	 SCS Opposite-Spin Scale   =       1.2000000000000000 [-]
	 SCS Same-Spin Energy      =      -0.1254272683384449 [Eh]
	 SCS Opposite-Spin Energy  =      -1.5313613760968228 [Eh]
	 SCS Correlation Energy    =      -1.6567886444352677 [Eh]
	 SCS Total Energy          =    -365.9019974843870955 [Eh]
	-----------------------------------------------------------

  Dipole Moment: [D]
     X:    -1.4654      Y:     2.8287      Z:    -1.7087     Total:     3.6151

*** Psi4 exiting successfully. Buy a developer a beer!
