                               Psi4 1.3.2 release

  ==> Input File <==

--------------------------------------------------------------------------
#psi4
#
memory 32 gb

molecule  {
0 1
  O        0.8686370    -1.1285810     0.6753960
  N       -0.4170490     0.5891890    -0.1013730
  C       -1.7449673    -0.0773352     0.2773053
  C       -2.0872990    -1.0630810    -0.8349870
  C       -2.7390930     1.0113430     0.4650240
  C        0.7808810    -0.0406060     0.0960010
  C        1.9924560     0.7166710    -0.4292430
  C        3.2969670     0.0166800    -0.0788280
  H       -1.4931140    -0.5968520     1.1678280
  H       -0.4432210     1.3965910    -0.7180680
  H       -3.0175727    -1.5399086    -0.5096442
  H       -2.2433890    -0.5581650    -1.7943680
  H       -1.3035910    -1.8142070    -0.9546500
  H       -2.4287380     1.7063800     1.2494310
  H       -3.6863690     0.5519340     0.7608270
  H       -2.9190420     1.5806020    -0.4540200
  H        1.8890940     0.8204890    -1.5196510
  H        1.9757950     1.7355060    -0.0222730
  H        3.3123780    -0.9936500    -0.4915720
  H        4.1482470     0.5747890    -0.4771690
  H        3.4100600    -0.0687260     1.0041520
units angstrom
no_reorient  #important for SAPT in psi4, default
symmetry c1  #important for SAPT in psi4, default
}

set PROPERTIES_ORIGIN ["COM"]
properties('MP2/aug-cc-pvtz', properties = ['dipole'])
--------------------------------------------------------------------------

    Molecular point group: c1
  Charge       = 0
  Multiplicity = 1
  Basis Set: AUG-CC-PVTZ
    Blend: AUG-CC-PVTZ
  Basis Set: (AUG-CC-PVTZ AUX)
    Blend: AUG-CC-PVTZ-JKFIT

    Orbital Energies [Eh]
    ---------------------

    Doubly Occupied:

       1A    -20.509288     2A    -15.572622     3A    -11.340721
       4A    -11.268208     5A    -11.237455     6A    -11.225197
       7A    -11.215678     8A    -11.211493     9A     -1.361976
      10A     -1.212586    11A     -1.069472    12A     -1.031907
      13A     -0.944641    14A     -0.881997    15A     -0.807502
      16A     -0.770750    17A     -0.679242    18A     -0.649943
      19A     -0.631832    20A     -0.618848    21A     -0.590111
      22A     -0.577250    23A     -0.551916    24A     -0.545438
      25A     -0.525726    26A     -0.510344    27A     -0.503111
      28A     -0.499350    29A     -0.496180    30A     -0.479286
      31A     -0.412014    32A     -0.382974

  @DF-RHF Final Energy:  -364.24259544283905

   => Energetics <=

    Nuclear Repulsion Energy =            391.6748371614507391
    One-Electron Energy =               -1271.2047518799906811
    Two-Electron Energy =                 515.2873192757008383
    Total Energy =                       -364.2425954428390469
  Basis Set: (AUG-CC-PVTZ AUX)
    Blend: AUG-CC-PVTZ-RI
    Molecular point group: c1

    Geometry (in Angstrom), charge = 0, multiplicity = 1:

       Center              X                  Y                   Z               Mass
    ------------   -----------------  -----------------  -----------------  -----------------
         O            0.875415692305    -1.126666257586     0.670653438410    15.994914619570
         N           -0.410270307695     0.591103742414    -0.106115561590    14.003074004430
         C           -1.738188607695    -0.075420457586     0.272562738410    12.000000000000
         C           -2.080520307695    -1.061166257586    -0.839729561590    12.000000000000
         C           -2.732314307695     1.013257742414     0.460281438410    12.000000000000
         C            0.787659692305    -0.038691257586     0.091258438410    12.000000000000
         C            1.999234692305     0.718585742414    -0.433985561590    12.000000000000
         C            3.303745692305     0.018594742414    -0.083570561590    12.000000000000
         H           -1.486335307695    -0.594937257586     1.163085438410     1.007825032230
         H           -0.436442307695     1.398505742414    -0.722810561590     1.007825032230
         H           -3.010794007695    -1.537993857586    -0.514386761590     1.007825032230
         H           -2.236610307695    -0.556250257586    -1.799110561590     1.007825032230
         H           -1.296812307695    -1.812292257586    -0.959392561590     1.007825032230
         H           -2.421959307695     1.708294742414     1.244688438410     1.007825032230
         H           -3.679590307695     0.553848742414     0.756084438410     1.007825032230
         H           -2.912263307695     1.582516742414    -0.458762561590     1.007825032230
         H            1.895872692305     0.822403742414    -1.524393561590     1.007825032230
         H            1.982573692305     1.737420742414    -0.027015561590     1.007825032230
         H            3.319156692305    -0.991735257586    -0.496314561590     1.007825032230
         H            4.155025692305     0.576703742414    -0.481911561590     1.007825032230
         H            3.416838692305    -0.066811257586     0.999409438410     1.007825032230

  Basis Set: AUG-CC-PVTZ
    Blend: AUG-CC-PVTZ
  Basis Set: (AUG-CC-PVTZ AUX)
    Blend: AUG-CC-PVTZ-JKFIT
	 Reference Energy          =    -364.2425954428390469 [Eh]
	 Singles Energy            =      -0.0000000000000000 [Eh]
	 Same-Spin Energy          =      -0.3758321895189985 [Eh]
	 Opposite-Spin Energy      =      -1.2756400982690177 [Eh]
	 Correlation Energy        =      -1.6514722877880161 [Eh]
	 Total Energy              =    -365.8940677306270572 [Eh]

	 ================> DF-SCS-MP2 Energies <==================
	-----------------------------------------------------------
	 SCS Same-Spin Scale       =       0.3333333333333333 [-]
	 SCS Opposite-Spin Scale   =       1.2000000000000000 [-]
	 SCS Same-Spin Energy      =      -0.1252773965063328 [Eh]
	 SCS Opposite-Spin Energy  =      -1.5307681179228212 [Eh]
	 SCS Correlation Energy    =      -1.6560455144291539 [Eh]
	 SCS Total Energy          =    -365.8986409572681850 [Eh]
	-----------------------------------------------------------

  Dipole Moment: [D]
     X:    -1.5728      Y:     2.7276      Z:    -1.6116     Total:     3.5370

*** Psi4 exiting successfully. Buy a developer a beer!
