                               Psi4 1.3.2 release

  ==> Input File <==

--------------------------------------------------------------------------
#psi4
#
memory 32 gb

molecule  {
0 1
  O        0.8686370    -1.1285810     0.6753960
  N       -0.4170490     0.5891890    -0.1013730
  C       -1.6922999    -0.0393612     0.2214540
  C       -2.0872990    -1.0630810    -0.8349870
  C       -2.7390930     1.0113430     0.4650240
  C        0.7808810    -0.0406060     0.0960010
  C        1.9924560     0.7166710    -0.4292430
  C        3.2969670     0.0166800    -0.0788280
  H       -1.4931140    -0.5968520     1.1678280
  H       -0.4608660     1.3950707    -0.7190545
  H       -3.0167340    -1.5709650    -0.5578120
  H       -2.2433890    -0.5581650    -1.7943680
  H       -1.3035910    -1.8142070    -0.9546500
  H       -2.4287380     1.7063800     1.2494310
  H       -3.6863690     0.5519340     0.7608270
  H       -2.9190420     1.5806020    -0.4540200
  H        1.8890940     0.8204890    -1.5196510
  H        1.9757950     1.7355060    -0.0222730
  H        3.3123780    -0.9936500    -0.4915720
  H        4.1482470     0.5747890    -0.4771690
  H        3.4100600    -0.0687260     1.0041520
units angstrom
no_reorient  #important for SAPT in psi4, default
symmetry c1  #important for SAPT in psi4, default
}

set PROPERTIES_ORIGIN ["COM"]
properties('MP2/aug-cc-pvtz', properties = ['dipole'])
--------------------------------------------------------------------------

    Molecular point group: c1
  Charge       = 0
  Multiplicity = 1
  Basis Set: AUG-CC-PVTZ
    Blend: AUG-CC-PVTZ
  Basis Set: (AUG-CC-PVTZ AUX)
    Blend: AUG-CC-PVTZ-JKFIT

    Orbital Energies [Eh]
    ---------------------

    Doubly Occupied:

       1A    -20.513731     2A    -15.578404     3A    -11.345659
       4A    -11.265350     5A    -11.240332     6A    -11.223429
       7A    -11.213482     8A    -11.212679     9A     -1.367134
      10A     -1.229000    11A     -1.067273    12A     -1.031011
      13A     -0.941804    14A     -0.888258    15A     -0.805743
      16A     -0.778676    17A     -0.682904    18A     -0.651229
      19A     -0.635542    20A     -0.616040    21A     -0.593611
      22A     -0.578970    23A     -0.550518    24A     -0.545536
      25A     -0.525653    26A     -0.512624    27A     -0.509020
      28A     -0.498564    29A     -0.488998    30A     -0.472511
      31A     -0.417546    32A     -0.385807

  @DF-RHF Final Energy:  -364.24791624465206

   => Energetics <=

    Nuclear Repulsion Energy =            392.5268011828990780
    One-Electron Energy =               -1272.8153581873111762
    Two-Electron Energy =                 516.0406407597599809
    Total Energy =                       -364.2479162446520604
  Basis Set: (AUG-CC-PVTZ AUX)
    Blend: AUG-CC-PVTZ-RI
    Molecular point group: c1

    Geometry (in Angstrom), charge = 0, multiplicity = 1:

       Center              X                  Y                   Z               Mass
    ------------   -----------------  -----------------  -----------------  -----------------
         O            0.870071882416    -1.130340084144     0.676906751374    15.994914619570
         N           -0.415614117584     0.587429915856    -0.099862248626    14.003074004430
         C           -1.690865017584    -0.041120284144     0.222964751374    12.000000000000
         C           -2.085864117584    -1.064840084144    -0.833476248626    12.000000000000
         C           -2.737658117584     1.009583915856     0.466534751374    12.000000000000
         C            0.782315882416    -0.042365084144     0.097511751374    12.000000000000
         C            1.993890882416     0.714911915856    -0.427732248626    12.000000000000
         C            3.298401882416     0.014920915856    -0.077317248626    12.000000000000
         H           -1.491679117584    -0.598611084144     1.169338751374     1.007825032230
         H           -0.459431117584     1.393311615856    -0.717543748626     1.007825032230
         H           -3.015299117584    -1.572724084144    -0.556301248626     1.007825032230
         H           -2.241954117584    -0.559924084144    -1.792857248626     1.007825032230
         H           -1.302156117584    -1.815966084144    -0.953139248626     1.007825032230
         H           -2.427303117584     1.704620915856     1.250941751374     1.007825032230
         H           -3.684934117584     0.550174915856     0.762337751374     1.007825032230
         H           -2.917607117584     1.578842915856    -0.452509248626     1.007825032230
         H            1.890528882416     0.818729915856    -1.518140248626     1.007825032230
         H            1.977229882416     1.733746915856    -0.020762248626     1.007825032230
         H            3.313812882416    -0.995409084144    -0.490061248626     1.007825032230
         H            4.149681882416     0.573029915856    -0.475658248626     1.007825032230
         H            3.411494882416    -0.070485084144     1.005662751374     1.007825032230

  Basis Set: AUG-CC-PVTZ
    Blend: AUG-CC-PVTZ
  Basis Set: (AUG-CC-PVTZ AUX)
    Blend: AUG-CC-PVTZ-JKFIT
	 Reference Energy          =    -364.2479162446520604 [Eh]
	 Singles Energy            =      -0.0000000000000000 [Eh]
	 Same-Spin Energy          =      -0.3759873617196856 [Eh]
	 Opposite-Spin Energy      =      -1.2754575082433890 [Eh]
	 Correlation Energy        =      -1.6514448699630746 [Eh]
	 Total Energy              =    -365.8993611146151466 [Eh]

	 ================> DF-SCS-MP2 Energies <==================
	-----------------------------------------------------------
	 SCS Same-Spin Scale       =       0.3333333333333333 [-]
	 SCS Opposite-Spin Scale   =       1.2000000000000000 [-]
	 SCS Same-Spin Energy      =      -0.1253291205732285 [Eh]
	 SCS Opposite-Spin Energy  =      -1.5305490098920667 [Eh]
	 SCS Correlation Energy    =      -1.6558781304652952 [Eh]
	 SCS Total Energy          =    -365.9037943751173430 [Eh]
	-----------------------------------------------------------

  Dipole Moment: [D]
     X:    -1.3113      Y:     2.7322      Z:    -1.6437     Total:     3.4476

*** Psi4 exiting successfully. Buy a developer a beer!
