                               Psi4 1.3.2 release

  ==> Input File <==

--------------------------------------------------------------------------
#psi4
#
memory 32 gb

molecule  {
0 1
  O        0.8686370    -1.1285810     0.6753960
  N       -0.4225319     0.6292294    -0.0366218
  C       -1.6800190    -0.0563620     0.2358630
  C       -2.1526368    -1.0791950    -0.7920110
  C       -2.7390930     1.0113430     0.4650240
  C        0.7808810    -0.0406060     0.0960010
  C        1.9924560     0.7166710    -0.4292430
  C        3.2969670     0.0166800    -0.0788280
  H       -1.4931140    -0.5968520     1.1678280
  H       -0.4432210     1.3965910    -0.7180680
  H       -3.0167340    -1.5709650    -0.5578120
  H       -2.2433890    -0.5581650    -1.7943680
  H       -1.3035910    -1.8142070    -0.9546500
  H       -2.4287380     1.7063800     1.2494310
  H       -3.6863690     0.5519340     0.7608270
  H       -2.9190420     1.5806020    -0.4540200
  H        1.8890940     0.8204890    -1.5196510
  H        1.9757950     1.7355060    -0.0222730
  H        3.3123780    -0.9936500    -0.4915720
  H        4.1482470     0.5747890    -0.4771690
  H        3.4100600    -0.0687260     1.0041520
units angstrom
no_reorient  #important for SAPT in psi4, default
symmetry c1  #important for SAPT in psi4, default
}

set PROPERTIES_ORIGIN ["COM"]
properties('MP2/aug-cc-pvtz', properties = ['dipole'])
--------------------------------------------------------------------------

    Molecular point group: c1
  Charge       = 0
  Multiplicity = 1
  Basis Set: AUG-CC-PVTZ
    Blend: AUG-CC-PVTZ
  Basis Set: (AUG-CC-PVTZ AUX)
    Blend: AUG-CC-PVTZ-JKFIT

    Orbital Energies [Eh]
    ---------------------

    Doubly Occupied:

       1A    -20.518475     2A    -15.581205     3A    -11.348209
       4A    -11.264007     5A    -11.242007     6A    -11.220045
       7A    -11.215104     8A    -11.214794     9A     -1.369146
      10A     -1.226255    11A     -1.066161    12A     -1.030651
      13A     -0.938628    14A     -0.889080    15A     -0.808149
      16A     -0.772636    17A     -0.683300    18A     -0.651484
      19A     -0.636496    20A     -0.615923    21A     -0.597931
      22A     -0.576848    23A     -0.552834    24A     -0.540725
      25A     -0.531322    26A     -0.514452    27A     -0.511576
      28A     -0.494050    29A     -0.481198    30A     -0.469974
      31A     -0.421138    32A     -0.389415

  @DF-RHF Final Energy:  -364.23883117935776

   => Energetics <=

    Nuclear Repulsion Energy =            391.6956967754624088
    One-Electron Energy =               -1271.1226196835129940
    Two-Electron Energy =                 515.1880917286927115
    Total Energy =                       -364.2388311793578168
  Basis Set: (AUG-CC-PVTZ AUX)
    Blend: AUG-CC-PVTZ-RI
    Molecular point group: c1

    Geometry (in Angstrom), charge = 0, multiplicity = 1:

       Center              X                  Y                   Z               Mass
    ------------   -----------------  -----------------  -----------------  -----------------
         O            0.876116008481    -1.131772262166     0.663037645980    15.994914619570
         N           -0.415052891519     0.626038137834    -0.048980154020    14.003074004430
         C           -1.672539991519    -0.059553262166     0.223504645980    12.000000000000
         C           -2.145157791519    -1.082386262166    -0.804369354020    12.000000000000
         C           -2.731613991519     1.008151737834     0.452665645980    12.000000000000
         C            0.788360008481    -0.043797262166     0.083642645980    12.000000000000
         C            1.999935008481     0.713479737834    -0.441601354020    12.000000000000
         C            3.304446008481     0.013488737834    -0.091186354020    12.000000000000
         H           -1.485634991519    -0.600043262166     1.155469645980     1.007825032230
         H           -0.435741991519     1.393399737834    -0.730426354020     1.007825032230
         H           -3.009254991519    -1.574156262166    -0.570170354020     1.007825032230
         H           -2.235909991519    -0.561356262166    -1.806726354020     1.007825032230
         H           -1.296111991519    -1.817398262166    -0.967008354020     1.007825032230
         H           -2.421258991519     1.703188737834     1.237072645980     1.007825032230
         H           -3.678889991519     0.548742737834     0.748468645980     1.007825032230
         H           -2.911562991519     1.577410737834    -0.466378354020     1.007825032230
         H            1.896573008481     0.817297737834    -1.532009354020     1.007825032230
         H            1.983274008481     1.732314737834    -0.034631354020     1.007825032230
         H            3.319857008481    -0.996841262166    -0.503930354020     1.007825032230
         H            4.155726008481     0.571597737834    -0.489527354020     1.007825032230
         H            3.417539008481    -0.071917262166     0.991793645980     1.007825032230

  Basis Set: AUG-CC-PVTZ
    Blend: AUG-CC-PVTZ
  Basis Set: (AUG-CC-PVTZ AUX)
    Blend: AUG-CC-PVTZ-JKFIT
	 Reference Energy          =    -364.2388311793577600 [Eh]
	 Singles Energy            =      -0.0000000000000000 [Eh]
	 Same-Spin Energy          =      -0.3760054520781522 [Eh]
	 Opposite-Spin Energy      =      -1.2760796999450861 [Eh]
	 Correlation Energy        =      -1.6520851520232382 [Eh]
	 Total Energy              =    -365.8909163313809927 [Eh]

	 ================> DF-SCS-MP2 Energies <==================
	-----------------------------------------------------------
	 SCS Same-Spin Scale       =       0.3333333333333333 [-]
	 SCS Opposite-Spin Scale   =       1.2000000000000000 [-]
	 SCS Same-Spin Energy      =      -0.1253351506927174 [Eh]
	 SCS Opposite-Spin Energy  =      -1.5312956399341033 [Eh]
	 SCS Correlation Energy    =      -1.6566307906268207 [Eh]
	 SCS Total Energy          =    -365.8954619699845807 [Eh]
	-----------------------------------------------------------

  Dipole Moment: [D]
     X:    -1.1167      Y:     2.5316      Z:    -1.7119     Total:     3.2537

*** Psi4 exiting successfully. Buy a developer a beer!
