                               Psi4 1.3.2 release

  ==> Input File <==

--------------------------------------------------------------------------
#psi4
#
memory 32 gb

molecule  {
0 1
  O        0.8686370    -1.1285810     0.6753960
  N       -0.3965326     0.5689565    -0.0594280
  C       -1.6800190    -0.0563620     0.2358630
  C       -2.0872990    -1.0630810    -0.8349870
  C       -2.7390930     1.0113430     0.4650240
  C        0.7808810    -0.0406060     0.0960010
  C        1.9924560     0.7166710    -0.4292430
  C        3.2969670     0.0166800    -0.0788280
  H       -1.4571014    -0.5842305     1.1671440
  H       -0.4432210     1.3965910    -0.7180680
  H       -3.0167340    -1.5709650    -0.5578120
  H       -2.2433890    -0.5581650    -1.7943680
  H       -1.3035910    -1.8142070    -0.9546500
  H       -2.4287380     1.7063800     1.2494310
  H       -3.6863690     0.5519340     0.7608270
  H       -2.9190420     1.5806020    -0.4540200
  H        1.8890940     0.8204890    -1.5196510
  H        1.9757950     1.7355060    -0.0222730
  H        3.3123780    -0.9936500    -0.4915720
  H        4.1482470     0.5747890    -0.4771690
  H        3.4100600    -0.0687260     1.0041520
units angstrom
no_reorient  #important for SAPT in psi4, default
symmetry c1  #important for SAPT in psi4, default
}

set PROPERTIES_ORIGIN ["COM"]
properties('MP2/aug-cc-pvtz', properties = ['dipole'])
--------------------------------------------------------------------------

    Molecular point group: c1
  Charge       = 0
  Multiplicity = 1
  Basis Set: AUG-CC-PVTZ
    Blend: AUG-CC-PVTZ
  Basis Set: (AUG-CC-PVTZ AUX)
    Blend: AUG-CC-PVTZ-JKFIT

    Orbital Energies [Eh]
    ---------------------

    Doubly Occupied:

       1A    -20.507168     2A    -15.582384     3A    -11.339555
       4A    -11.266155     5A    -11.239638     6A    -11.225453
       7A    -11.214510     8A    -11.212716     9A     -1.367581
      10A     -1.230164    11A     -1.067711    12A     -1.030884
      13A     -0.941291    14A     -0.888568    15A     -0.811901
      16A     -0.773202    17A     -0.682029    18A     -0.649455
      19A     -0.635991    20A     -0.616571    21A     -0.590104
      22A     -0.576950    23A     -0.551631    24A     -0.546601
      25A     -0.526868    26A     -0.511684    27A     -0.507939
      28A     -0.496859    29A     -0.488099    30A     -0.477738
      31A     -0.415143    32A     -0.386053

  @DF-RHF Final Energy:  -364.24544656761628

   => Energetics <=

    Nuclear Repulsion Energy =            393.0332279499049832
    One-Electron Energy =               -1273.8401613683186042
    Two-Electron Energy =                 516.5614868507973370
    Total Energy =                       -364.2454465676162272
  Basis Set: (AUG-CC-PVTZ AUX)
    Blend: AUG-CC-PVTZ-RI
    Molecular point group: c1

    Geometry (in Angstrom), charge = 0, multiplicity = 1:

       Center              X                  Y                   Z               Mass
    ------------   -----------------  -----------------  -----------------  -----------------
         O            0.865825643022    -1.126229958079     0.670298813096    15.994914619570
         N           -0.399343956978     0.571307541921    -0.064525186904    14.003074004430
         C           -1.682830356978    -0.054010958079     0.230765813096    12.000000000000
         C           -2.090110356978    -1.060729958079    -0.840084186904    12.000000000000
         C           -2.741904356978     1.013694041921     0.459926813096    12.000000000000
         C            0.778069643022    -0.038254958079     0.090903813096    12.000000000000
         C            1.989644643022     0.719022041921    -0.434340186904    12.000000000000
         C            3.294155643022     0.019031041921    -0.083925186904    12.000000000000
         H           -1.459912756978    -0.581879458079     1.162046813096     1.007825032230
         H           -0.446032356978     1.398942041921    -0.723165186904     1.007825032230
         H           -3.019545356978    -1.568613958079    -0.562909186904     1.007825032230
         H           -2.246200356978    -0.555813958079    -1.799465186904     1.007825032230
         H           -1.306402356978    -1.811855958079    -0.959747186904     1.007825032230
         H           -2.431549356978     1.708731041921     1.244333813096     1.007825032230
         H           -3.689180356978     0.554285041921     0.755729813096     1.007825032230
         H           -2.921853356978     1.582953041921    -0.459117186904     1.007825032230
         H            1.886282643022     0.822840041921    -1.524748186904     1.007825032230
         H            1.972983643022     1.737857041921    -0.027370186904     1.007825032230
         H            3.309566643022    -0.991298958079    -0.496669186904     1.007825032230
         H            4.145435643022     0.577140041921    -0.482266186904     1.007825032230
         H            3.407248643022    -0.066374958079     0.999054813096     1.007825032230

  Basis Set: AUG-CC-PVTZ
    Blend: AUG-CC-PVTZ
  Basis Set: (AUG-CC-PVTZ AUX)
    Blend: AUG-CC-PVTZ-JKFIT
	 Reference Energy          =    -364.2454465676162840 [Eh]
	 Singles Energy            =      -0.0000000000000000 [Eh]
	 Same-Spin Energy          =      -0.3760463369645721 [Eh]
	 Opposite-Spin Energy      =      -1.2754835155292197 [Eh]
	 Correlation Energy        =      -1.6515298524937918 [Eh]
	 Total Energy              =    -365.8969764201100929 [Eh]

	 ================> DF-SCS-MP2 Energies <==================
	-----------------------------------------------------------
	 SCS Same-Spin Scale       =       0.3333333333333333 [-]
	 SCS Opposite-Spin Scale   =       1.2000000000000000 [-]
	 SCS Same-Spin Energy      =      -0.1253487789881907 [Eh]
	 SCS Opposite-Spin Energy  =      -1.5305802186350637 [Eh]
	 SCS Correlation Energy    =      -1.6559289976232543 [Eh]
	 SCS Total Energy          =    -365.9013755652395616 [Eh]
	-----------------------------------------------------------

  Dipole Moment: [D]
     X:    -1.4487      Y:     2.7889      Z:    -1.7182     Total:     3.5817

*** Psi4 exiting successfully. Buy a developer a beer!
