                               Psi4 1.4a3.dev225

  ==> Input File <==

--------------------------------------------------------------------------
#psi4
#
memory 32 gb

molecule  {
0 1
  O        0.8665680     1.1680080    -0.7351460
  N       -0.3660760    -0.5086790     0.1929010
  C       -1.6441200     0.0174450    -0.2761400
  C       -2.1412550     1.1442230     0.6252270
  C       -2.6427120    -1.1266550    -0.3840140
  C        0.7891775     0.1458903    -0.0263063
  C        2.0309430    -0.4326950     0.6540710
  C        3.2825740    -0.2523450    -0.1975960
  H       -1.4466230     0.4281070    -1.2709490
  H       -0.3785050    -1.2608410     0.8714320
  H       -3.0785860     1.5617170     0.2436050
  H       -2.3175770     0.7713190     1.6396860
  H       -1.3960540     1.9417130     0.6641920
  H       -2.2693050    -1.9092940    -1.0497770
  H       -3.5969080    -0.7634960    -0.7753550
  H       -2.8341330    -1.5678230     0.6011330
  H        2.1523320     0.0883960     1.6122110
  H        1.8656800    -1.4909910     0.8873090
  H        3.4076760     0.8004350    -0.4533700
  H        4.1701610    -0.5986810     0.3385000
  H        3.2011700    -0.8174180    -1.1296580
units angstrom
no_reorient  #important for SAPT in psi4, default
symmetry c1  #important for SAPT in psi4, default
}

set PROPERTIES_ORIGIN ["COM"]
properties('MP2/aug-cc-pvtz', properties = ['dipole'])
--------------------------------------------------------------------------

    Molecular point group: c1
  Charge       = 0
  Multiplicity = 1
  Basis Set: AUG-CC-PVTZ
    Blend: AUG-CC-PVTZ
  Basis Set: (AUG-CC-PVTZ AUX)
    Blend: AUG-CC-PVTZ-JKFIT

    Orbital Energies [Eh]
    ---------------------

    Doubly Occupied:

       1A    -20.507116     2A    -15.584116     3A    -11.343222
       4A    -11.267790     5A    -11.239460     6A    -11.225962
       7A    -11.214748     8A    -11.213765     9A     -1.360221
      10A     -1.234261    11A     -1.066930    12A     -1.030893
      13A     -0.941624    14A     -0.887143    15A     -0.812034
      16A     -0.785506    17A     -0.679294    18A     -0.659987
      19A     -0.626049    20A     -0.617325    21A     -0.589866
      22A     -0.578878    23A     -0.556252    24A     -0.546875
      25A     -0.526792    26A     -0.511462    27A     -0.509612
      28A     -0.496908    29A     -0.487982    30A     -0.475499
      31A     -0.412244    32A     -0.388018

  @DF-RHF Final Energy:  -364.24866370857990

   => Energetics <=

    Nuclear Repulsion Energy =            392.6068851582772936
    One-Electron Energy =               -1272.9554338729942629
    Two-Electron Energy =                 516.0998850061371286
    Total Energy =                       -364.2486637085798975
  Basis Set: (AUG-CC-PVTZ AUX)
    Blend: AUG-CC-PVTZ-RI
    Molecular point group: c1

    Geometry (in Angstrom), charge = 0, multiplicity = 1:

       Center              X                  Y                   Z               Mass
    ------------   -----------------  -----------------  -----------------  -----------------
         O            0.846677546473     1.144805690777    -0.716740387809    15.994914619570
         N           -0.385966453527    -0.531881309223     0.211306612191    14.003074004430
         C           -1.664010453527    -0.005757309223    -0.257734387809    12.000000000000
         C           -2.161145453527     1.121020690777     0.643632612191    12.000000000000
         C           -2.662602453527    -1.149857309223    -0.365608387809    12.000000000000
         C            0.769287046473     0.122687990777    -0.007900687809    12.000000000000
         C            2.011052546473    -0.455897309223     0.672476612191    12.000000000000
         C            3.262683546473    -0.275547309223    -0.179190387809    12.000000000000
         H           -1.466513453527     0.404904690777    -1.252543387809     1.007825032230
         H           -0.398395453527    -1.284043309223     0.889837612191     1.007825032230
         H           -3.098476453527     1.538514690777     0.262010612191     1.007825032230
         H           -2.337467453527     0.748116690777     1.658091612191     1.007825032230
         H           -1.415944453527     1.918510690777     0.682597612191     1.007825032230
         H           -2.289195453527    -1.932496309223    -1.031371387809     1.007825032230
         H           -3.616798453527    -0.786698309223    -0.756949387809     1.007825032230
         H           -2.854023453527    -1.591025309223     0.619538612191     1.007825032230
         H            2.132441546473     0.065193690777     1.630616612191     1.007825032230
         H            1.845789546473    -1.514193309223     0.905714612191     1.007825032230
         H            3.387785546473     0.777232690777    -0.434964387809     1.007825032230
         H            4.150270546473    -0.621883309223     0.356905612191     1.007825032230
         H            3.181279546473    -0.840620309223    -1.111252387809     1.007825032230

  Basis Set: AUG-CC-PVTZ
    Blend: AUG-CC-PVTZ
  Basis Set: (AUG-CC-PVTZ AUX)
    Blend: AUG-CC-PVTZ-JKFIT
	 Reference Energy          =    -364.2486637085798975 [Eh]
	 Singles Energy            =      -0.0000000000000000 [Eh]
	 Same-Spin Energy          =      -0.3759413899006630 [Eh]
	 Opposite-Spin Energy      =      -1.2753979768174104 [Eh]
	 Correlation Energy        =      -1.6513393667180734 [Eh]
	 Total Energy              =    -365.9000030752979455 [Eh]

	 ================> DF-SCS-MP2 Energies <==================
	-----------------------------------------------------------
	 SCS Same-Spin Scale       =       0.3333333333333333 [-]
	 SCS Opposite-Spin Scale   =       1.2000000000000000 [-]
	 SCS Same-Spin Energy      =      -0.1253137966335543 [Eh]
	 SCS Opposite-Spin Energy  =      -1.5304775721808925 [Eh]
	 SCS Correlation Energy    =      -1.6557913688144468 [Eh]
	 SCS Total Energy          =    -365.9044550773943456 [Eh]
	-----------------------------------------------------------

  Dipole Moment: [D]
     X:    -1.4368      Y:    -2.6784      Z:     1.9315     Total:     3.6013

*** Psi4 exiting successfully. Buy a developer a beer!
