                               Psi4 1.3.2 release

  ==> Input File <==

--------------------------------------------------------------------------
#psi4
#
memory 32 gb

molecule  {
0 1
  O        0.8686370    -1.1285810     0.6753960
  N       -0.4170490     0.5891890    -0.1013730
  C       -1.6692980    -0.0531333     0.2286674
  C       -2.0872990    -1.0630810    -0.8349870
  C       -2.7390930     1.0113430     0.4650240
  C        0.7808810    -0.0406060     0.0960010
  C        1.9924560     0.7166710    -0.4292430
  C        3.2969670     0.0166800    -0.0788280
  H       -1.4931140    -0.5968520     1.1678280
  H       -0.4432210     1.3965910    -0.7180680
  H       -3.0163464    -1.5760080    -0.5659174
  H       -2.2433890    -0.5581650    -1.7943680
  H       -1.3035910    -1.8142070    -0.9546500
  H       -2.4287380     1.7063800     1.2494310
  H       -3.6863690     0.5519340     0.7608270
  H       -2.9190420     1.5806020    -0.4540200
  H        1.8890940     0.8204890    -1.5196510
  H        1.9757950     1.7355060    -0.0222730
  H        3.3123780    -0.9936500    -0.4915720
  H        4.1482470     0.5747890    -0.4771690
  H        3.4100600    -0.0687260     1.0041520
units angstrom
no_reorient  #important for SAPT in psi4, default
symmetry c1  #important for SAPT in psi4, default
}

set PROPERTIES_ORIGIN ["COM"]
properties('MP2/aug-cc-pvtz', properties = ['dipole'])
--------------------------------------------------------------------------

    Molecular point group: c1
  Charge       = 0
  Multiplicity = 1
  Basis Set: AUG-CC-PVTZ
    Blend: AUG-CC-PVTZ
  Basis Set: (AUG-CC-PVTZ AUX)
    Blend: AUG-CC-PVTZ-JKFIT

    Orbital Energies [Eh]
    ---------------------

    Doubly Occupied:

       1A    -20.514153     2A    -15.579124     3A    -11.345527
       4A    -11.264646     5A    -11.240726     6A    -11.223276
       7A    -11.213805     8A    -11.212094     9A     -1.368042
      10A     -1.231549    11A     -1.065858    12A     -1.029299
      13A     -0.939179    14A     -0.888920    15A     -0.808547
      16A     -0.779451    17A     -0.682886    18A     -0.654098
      19A     -0.636147    20A     -0.613340    21A     -0.593961
      22A     -0.578528    23A     -0.550379    24A     -0.544576
      25A     -0.525663    26A     -0.513115    27A     -0.511105
      28A     -0.496366    29A     -0.486235    30A     -0.475640
      31A     -0.418074    32A     -0.385992

  @DF-RHF Final Energy:  -364.24896482959821

   => Energetics <=

    Nuclear Repulsion Energy =            392.6375690923395609
    One-Electron Energy =               -1273.0324697780067709
    Two-Electron Energy =                 516.1459358560689452
    Total Energy =                       -364.2489648295982079
  Basis Set: (AUG-CC-PVTZ AUX)
    Blend: AUG-CC-PVTZ-RI
    Molecular point group: c1

    Geometry (in Angstrom), charge = 0, multiplicity = 1:

       Center              X                  Y                   Z               Mass
    ------------   -----------------  -----------------  -----------------  -----------------
         O            0.867515868197    -1.128873395311     0.676217034679    15.994914619570
         N           -0.418170131803     0.588896604689    -0.100551965321    14.003074004430
         C           -1.670419131803    -0.053425695311     0.229488434679    12.000000000000
         C           -2.088420131803    -1.063373395311    -0.834165965321    12.000000000000
         C           -2.740214131803     1.011050604689     0.465845034679    12.000000000000
         C            0.779759868197    -0.040898395311     0.096822034679    12.000000000000
         C            1.991334868197     0.716378604689    -0.428421965321    12.000000000000
         C            3.295845868197     0.016387604689    -0.078006965321    12.000000000000
         H           -1.494235131803    -0.597144395311     1.168649034679     1.007825032230
         H           -0.444342131803     1.396298604689    -0.717246965321     1.007825032230
         H           -3.017467531803    -1.576300395311    -0.565096365321     1.007825032230
         H           -2.244510131803    -0.558457395311    -1.793546965321     1.007825032230
         H           -1.304712131803    -1.814499395311    -0.953828965321     1.007825032230
         H           -2.429859131803     1.706087604689     1.250252034679     1.007825032230
         H           -3.687490131803     0.551641604689     0.761648034679     1.007825032230
         H           -2.920163131803     1.580309604689    -0.453198965321     1.007825032230
         H            1.887972868197     0.820196604689    -1.518829965321     1.007825032230
         H            1.974673868197     1.735213604689    -0.021451965321     1.007825032230
         H            3.311256868197    -0.993942395311    -0.490750965321     1.007825032230
         H            4.147125868197     0.574496604689    -0.476347965321     1.007825032230
         H            3.408938868197    -0.069018395311     1.004973034679     1.007825032230

  Basis Set: AUG-CC-PVTZ
    Blend: AUG-CC-PVTZ
  Basis Set: (AUG-CC-PVTZ AUX)
    Blend: AUG-CC-PVTZ-JKFIT
	 Reference Energy          =    -364.2489648295982079 [Eh]
	 Singles Energy            =      -0.0000000000000000 [Eh]
	 Same-Spin Energy          =      -0.3758284187860811 [Eh]
	 Opposite-Spin Energy      =      -1.2751796141707428 [Eh]
	 Correlation Energy        =      -1.6510080329568240 [Eh]
	 Total Energy              =    -365.8999728625550460 [Eh]

	 ================> DF-SCS-MP2 Energies <==================
	-----------------------------------------------------------
	 SCS Same-Spin Scale       =       0.3333333333333333 [-]
	 SCS Opposite-Spin Scale   =       1.2000000000000000 [-]
	 SCS Same-Spin Energy      =      -0.1252761395953604 [Eh]
	 SCS Opposite-Spin Energy  =      -1.5302155370048913 [Eh]
	 SCS Correlation Energy    =      -1.6554916766002516 [Eh]
	 SCS Total Energy          =    -365.9044565061984713 [Eh]
	-----------------------------------------------------------

  Dipole Moment: [D]
     X:    -1.2478      Y:     2.7260      Z:    -1.6466     Total:     3.4205

*** Psi4 exiting successfully. Buy a developer a beer!
