                               Psi4 1.3.2 release

  ==> Input File <==

--------------------------------------------------------------------------
#psi4
#
memory 32 gb

molecule  {
0 1
  O        0.8686370    -1.1285810     0.6753960
  N       -0.4170490     0.5891890    -0.1013730
  C       -1.6800190    -0.0563620     0.2358630
  C       -2.0872990    -1.0630810    -0.8349870
  C       -2.7390930     1.0113430     0.4650240
  C        0.8136828    -0.0771633     0.1162701
  C        1.9924560     0.7166710    -0.4292430
  C        3.2689703    -0.0212291    -0.0543540
  H       -1.4931140    -0.5968520     1.1678280
  H       -0.4432210     1.3965910    -0.7180680
  H       -3.0167340    -1.5709650    -0.5578120
  H       -2.2433890    -0.5581650    -1.7943680
  H       -1.3035910    -1.8142070    -0.9546500
  H       -2.4287380     1.7063800     1.2494310
  H       -3.6863690     0.5519340     0.7608270
  H       -2.9190420     1.5806020    -0.4540200
  H        1.8890940     0.8204890    -1.5196510
  H        1.9757950     1.7355060    -0.0222730
  H        3.3123780    -0.9936500    -0.4915720
  H        4.1482470     0.5747890    -0.4771690
  H        3.4100600    -0.0687260     1.0041520
units angstrom
no_reorient  #important for SAPT in psi4, default
symmetry c1  #important for SAPT in psi4, default
}

set PROPERTIES_ORIGIN ["COM"]
properties('MP2/aug-cc-pvtz', properties = ['dipole'])
--------------------------------------------------------------------------

    Molecular point group: c1
  Charge       = 0
  Multiplicity = 1
  Basis Set: AUG-CC-PVTZ
    Blend: AUG-CC-PVTZ
  Basis Set: (AUG-CC-PVTZ AUX)
    Blend: AUG-CC-PVTZ-JKFIT

    Orbital Energies [Eh]
    ---------------------

    Doubly Occupied:

       1A    -20.525141     2A    -15.567551     3A    -11.345180
       4A    -11.259952     5A    -11.240768     6A    -11.219813
       7A    -11.215331     8A    -11.209628     9A     -1.397734
      10A     -1.215842    11A     -1.064189    12A     -1.025720
      13A     -0.936520    14A     -0.885632    15A     -0.802115
      16A     -0.768524    17A     -0.688543    18A     -0.651741
      19A     -0.639550    20A     -0.611166    21A     -0.604885
      22A     -0.577830    23A     -0.546456    24A     -0.542248
      25A     -0.530990    26A     -0.516312    27A     -0.502266
      28A     -0.501296    29A     -0.491878    30A     -0.478271
      31A     -0.419417    32A     -0.381321

  @DF-RHF Final Energy:  -364.24431483570299

   => Energetics <=

    Nuclear Repulsion Energy =            392.8641581278105832
    One-Electron Energy =               -1273.4893232662859646
    Two-Electron Energy =                 516.3808503027723873
    Total Energy =                       -364.2443148357029941
  Basis Set: (AUG-CC-PVTZ AUX)
    Blend: AUG-CC-PVTZ-RI
    Molecular point group: c1

    Geometry (in Angstrom), charge = 0, multiplicity = 1:

       Center              X                  Y                   Z               Mass
    ------------   -----------------  -----------------  -----------------  -----------------
         O            0.868136038574    -1.120817261149     0.670731067748    15.994914619570
         N           -0.417549961426     0.596952738851    -0.106037932252    14.003074004430
         C           -1.680519961426    -0.048598261149     0.231198067748    12.000000000000
         C           -2.087799961426    -1.055317261149    -0.839651932252    12.000000000000
         C           -2.739593961426     1.019106738851     0.460359067748    12.000000000000
         C            0.813181838574    -0.069399561149     0.111605167748    12.000000000000
         C            1.991955038574     0.724434738851    -0.433907932252    12.000000000000
         C            3.268469338574    -0.013465361149    -0.059018932252    12.000000000000
         H           -1.493614961426    -0.589088261149     1.163163067748     1.007825032230
         H           -0.443721961426     1.404354738851    -0.722732932252     1.007825032230
         H           -3.017234961426    -1.563201261149    -0.562476932252     1.007825032230
         H           -2.243889961426    -0.550401261149    -1.799032932252     1.007825032230
         H           -1.304091961426    -1.806443261149    -0.959314932252     1.007825032230
         H           -2.429238961426     1.714143738851     1.244766067748     1.007825032230
         H           -3.686869961426     0.559697738851     0.756162067748     1.007825032230
         H           -2.919542961426     1.588365738851    -0.458684932252     1.007825032230
         H            1.888593038574     0.828252738851    -1.524315932252     1.007825032230
         H            1.975294038574     1.743269738851    -0.026937932252     1.007825032230
         H            3.311877038574    -0.985886261149    -0.496236932252     1.007825032230
         H            4.147746038574     0.582552738851    -0.481833932252     1.007825032230
         H            3.409559038574    -0.060962261149     0.999487067748     1.007825032230

  Basis Set: AUG-CC-PVTZ
    Blend: AUG-CC-PVTZ
  Basis Set: (AUG-CC-PVTZ AUX)
    Blend: AUG-CC-PVTZ-JKFIT
	 Reference Energy          =    -364.2443148357029941 [Eh]
	 Singles Energy            =      -0.0000000000000000 [Eh]
	 Same-Spin Energy          =      -0.3751637047576403 [Eh]
	 Opposite-Spin Energy      =      -1.2740841955709272 [Eh]
	 Correlation Energy        =      -1.6492479003285676 [Eh]
	 Total Energy              =    -365.8935627360315834 [Eh]

	 ================> DF-SCS-MP2 Energies <==================
	-----------------------------------------------------------
	 SCS Same-Spin Scale       =       0.3333333333333333 [-]
	 SCS Opposite-Spin Scale   =       1.2000000000000000 [-]
	 SCS Same-Spin Energy      =      -0.1250545682525467 [Eh]
	 SCS Opposite-Spin Energy  =      -1.5289010346851126 [Eh]
	 SCS Correlation Energy    =      -1.6539556029376594 [Eh]
	 SCS Total Energy          =    -365.8982704386406795 [Eh]
	-----------------------------------------------------------

  Dipole Moment: [D]
     X:    -0.9235      Y:     2.4520      Z:    -1.5090     Total:     3.0236

*** Psi4 exiting successfully. Buy a developer a beer!
