                               Psi4 1.3.2 release

  ==> Input File <==

--------------------------------------------------------------------------
#psi4
#
memory 32 gb

molecule  {
0 1
  O        0.8686370    -1.1285810     0.6753960
  N       -0.4170490     0.5891890    -0.1013730
  C       -1.6408837    -0.1061641     0.2784562
  C       -2.0872990    -1.0630810    -0.8349870
  C       -2.7390930     1.0113430     0.4650240
  C        0.7808810    -0.0406060     0.0960010
  C        1.9924560     0.7166710    -0.4292430
  C        3.2969670     0.0166800    -0.0788280
  H       -1.4931140    -0.5968520     1.1678280
  H       -0.3902597     1.3996747    -0.7139829
  H       -3.0167340    -1.5709650    -0.5578120
  H       -2.2433890    -0.5581650    -1.7943680
  H       -1.3035910    -1.8142070    -0.9546500
  H       -2.4287380     1.7063800     1.2494310
  H       -3.6863690     0.5519340     0.7608270
  H       -2.9190420     1.5806020    -0.4540200
  H        1.8890940     0.8204890    -1.5196510
  H        1.9757950     1.7355060    -0.0222730
  H        3.3123780    -0.9936500    -0.4915720
  H        4.1482470     0.5747890    -0.4771690
  H        3.4100600    -0.0687260     1.0041520
units angstrom
no_reorient  #important for SAPT in psi4, default
symmetry c1  #important for SAPT in psi4, default
}

set PROPERTIES_ORIGIN ["COM"]
properties('MP2/aug-cc-pvtz', properties = ['dipole'])
--------------------------------------------------------------------------

    Molecular point group: c1
  Charge       = 0
  Multiplicity = 1
  Basis Set: AUG-CC-PVTZ
    Blend: AUG-CC-PVTZ
  Basis Set: (AUG-CC-PVTZ AUX)
    Blend: AUG-CC-PVTZ-JKFIT

    Orbital Energies [Eh]
    ---------------------

    Doubly Occupied:

       1A    -20.512869     2A    -15.578559     3A    -11.342739
       4A    -11.264883     5A    -11.240278     6A    -11.223715
       7A    -11.213624     8A    -11.212771     9A     -1.367460
      10A     -1.228125    11A     -1.063729    12A     -1.026446
      13A     -0.934083    14A     -0.887107    15A     -0.817972
      16A     -0.775292    17A     -0.681107    18A     -0.662974
      19A     -0.635717    20A     -0.606839    21A     -0.593039
      22A     -0.577221    23A     -0.547789    24A     -0.544756
      25A     -0.525799    26A     -0.514028    27A     -0.511692
      28A     -0.502764    29A     -0.483789    30A     -0.474990
      31A     -0.416424    32A     -0.384599

  @DF-RHF Final Energy:  -364.24243882612393

   => Energetics <=

    Nuclear Repulsion Energy =            392.4208215216220879
    One-Electron Energy =               -1272.6201582437956858
    Two-Electron Energy =                 515.9568978960496679
    Total Energy =                       -364.2424388261239301
  Basis Set: (AUG-CC-PVTZ AUX)
    Blend: AUG-CC-PVTZ-RI
    Molecular point group: c1

    Geometry (in Angstrom), charge = 0, multiplicity = 1:

       Center              X                  Y                   Z               Mass
    ------------   -----------------  -----------------  -----------------  -----------------
         O            0.864093125629    -1.123415698795     0.670919441230    15.994914619570
         N           -0.421592874371     0.594354301205    -0.105849558770    14.003074004430
         C           -1.645427574371    -0.100998798795     0.273979641230    12.000000000000
         C           -2.091842874371    -1.057915698795    -0.839463558770    12.000000000000
         C           -2.743636874371     1.016508301205     0.460547441230    12.000000000000
         C            0.776337125629    -0.035440698795     0.091524441230    12.000000000000
         C            1.987912125629     0.721836301205    -0.433719558770    12.000000000000
         C            3.292423125629     0.021845301205    -0.083304558770    12.000000000000
         H           -1.497657874371    -0.591686698795     1.163351441230     1.007825032230
         H           -0.394803574371     1.404840001205    -0.718459458770     1.007825032230
         H           -3.021277874371    -1.565799698795    -0.562288558770     1.007825032230
         H           -2.247932874371    -0.552999698795    -1.798844558770     1.007825032230
         H           -1.308134874371    -1.809041698795    -0.959126558770     1.007825032230
         H           -2.433281874371     1.711545301205     1.244954441230     1.007825032230
         H           -3.690912874371     0.557099301205     0.756350441230     1.007825032230
         H           -2.923585874371     1.585767301205    -0.458496558770     1.007825032230
         H            1.884550125629     0.825654301205    -1.524127558770     1.007825032230
         H            1.971251125629     1.740671301205    -0.026749558770     1.007825032230
         H            3.307834125629    -0.988484698795    -0.496048558770     1.007825032230
         H            4.143703125629     0.579954301205    -0.481645558770     1.007825032230
         H            3.405516125629    -0.063560698795     0.999675441230     1.007825032230

  Basis Set: AUG-CC-PVTZ
    Blend: AUG-CC-PVTZ
  Basis Set: (AUG-CC-PVTZ AUX)
    Blend: AUG-CC-PVTZ-JKFIT
	 Reference Energy          =    -364.2424388261239301 [Eh]
	 Singles Energy            =      -0.0000000000000000 [Eh]
	 Same-Spin Energy          =      -0.3754711006387212 [Eh]
	 Opposite-Spin Energy      =      -1.2750105042341424 [Eh]
	 Correlation Energy        =      -1.6504816048728637 [Eh]
	 Total Energy              =    -365.8929204309968100 [Eh]

	 ================> DF-SCS-MP2 Energies <==================
	-----------------------------------------------------------
	 SCS Same-Spin Scale       =       0.3333333333333333 [-]
	 SCS Opposite-Spin Scale   =       1.2000000000000000 [-]
	 SCS Same-Spin Energy      =      -0.1251570335462404 [Eh]
	 SCS Opposite-Spin Energy  =      -1.5300126050809708 [Eh]
	 SCS Correlation Energy    =      -1.6551696386272112 [Eh]
	 SCS Total Energy          =    -365.8976084647511584 [Eh]
	-----------------------------------------------------------

  Dipole Moment: [D]
     X:    -1.2276      Y:     2.7097      Z:    -1.6381     Total:     3.3960

*** Psi4 exiting successfully. Buy a developer a beer!
