                               Psi4 1.3.2 release

  ==> Input File <==

--------------------------------------------------------------------------
#psi4
#
memory 32 gb

molecule  {
0 1
  O        0.8686370    -1.1285810     0.6753960
  N       -0.4170490     0.5891890    -0.1013730
  C       -1.5067637     0.0321953     0.1896007
  C       -2.0872990    -1.0630810    -0.8349870
  C       -2.7390930     1.0113430     0.4650240
  C        0.7808810    -0.0406060     0.0960010
  C        1.9924560     0.7166710    -0.4292430
  C        3.2969670     0.0166800    -0.0788280
  H       -1.4931140    -0.5968520     1.1678280
  H       -0.4432210     1.3965910    -0.7180680
  H       -3.0167340    -1.5709650    -0.5578120
  H       -2.2433890    -0.5581650    -1.7943680
  H       -1.3035910    -1.8142070    -0.9546500
  H       -2.4287380     1.7063800     1.2494310
  H       -3.6863690     0.5519340     0.7608270
  H       -2.9190420     1.5806020    -0.4540200
  H        1.8890940     0.8204890    -1.5196510
  H        1.9757950     1.7355060    -0.0222730
  H        3.3123780    -0.9936500    -0.4915720
  H        4.1482470     0.5747890    -0.4771690
  H        3.4100600    -0.0687260     1.0041520
units angstrom
no_reorient  #important for SAPT in psi4, default
symmetry c1  #important for SAPT in psi4, default
}

set PROPERTIES_ORIGIN ["COM"]
properties('MP2/aug-cc-pvtz', properties = ['dipole'])
--------------------------------------------------------------------------

    Molecular point group: c1
  Charge       = 0
  Multiplicity = 1
  Basis Set: AUG-CC-PVTZ
    Blend: AUG-CC-PVTZ
  Basis Set: (AUG-CC-PVTZ AUX)
    Blend: AUG-CC-PVTZ-JKFIT

    Orbital Energies [Eh]
    ---------------------

    Doubly Occupied:

       1A    -20.524625     2A    -15.586499     3A    -11.354537
       4A    -11.262690     5A    -11.246968     6A    -11.222096
       7A    -11.218243     8A    -11.206383     9A     -1.385303
      10A     -1.285089    11A     -1.066870    12A     -1.014824
      13A     -0.924373    14A     -0.908411    15A     -0.823430
      16A     -0.800612    17A     -0.690400    18A     -0.666619
      19A     -0.646971    20A     -0.610701    21A     -0.603445
      22A     -0.574904    23A     -0.559132    24A     -0.535755
      25A     -0.528890    26A     -0.525592    27A     -0.518184
      28A     -0.497827    29A     -0.474066    30A     -0.445642
      31A     -0.428730    32A     -0.365932

  @DF-RHF Final Energy:  -364.19926715495762

   => Energetics <=

    Nuclear Repulsion Energy =            394.8808655681871187
    One-Electron Energy =               -1277.1527806857716314
    Two-Electron Energy =                 518.0726479626268883
    Total Energy =                       -364.1992671549576244
  Basis Set: (AUG-CC-PVTZ AUX)
    Blend: AUG-CC-PVTZ-RI
    Molecular point group: c1

    Geometry (in Angstrom), charge = 0, multiplicity = 1:

       Center              X                  Y                   Z               Mass
    ------------   -----------------  -----------------  -----------------  -----------------
         O            0.850573854195    -1.137813692602     0.680219056568    15.994914619570
         N           -0.435112145805     0.579956307398    -0.096549943432    14.003074004430
         C           -1.524826845805     0.022962607398     0.194423756568    12.000000000000
         C           -2.105362145805    -1.072313692602    -0.830163943432    12.000000000000
         C           -2.757156145805     1.002110307398     0.469847056568    12.000000000000
         C            0.762817854195    -0.049838692602     0.100824056568    12.000000000000
         C            1.974392854195     0.707438307398    -0.424419943432    12.000000000000
         C            3.278903854195     0.007447307398    -0.074004943432    12.000000000000
         H           -1.511177145805    -0.606084692602     1.172651056568     1.007825032230
         H           -0.461284145805     1.387358307398    -0.713244943432     1.007825032230
         H           -3.034797145805    -1.580197692602    -0.552988943432     1.007825032230
         H           -2.261452145805    -0.567397692602    -1.789544943432     1.007825032230
         H           -1.321654145805    -1.823439692602    -0.949826943432     1.007825032230
         H           -2.446801145805     1.697147307398     1.254254056568     1.007825032230
         H           -3.704432145805     0.542701307398     0.765650056568     1.007825032230
         H           -2.937105145805     1.571369307398    -0.449196943432     1.007825032230
         H            1.871030854195     0.811256307398    -1.514827943432     1.007825032230
         H            1.957731854195     1.726273307398    -0.017449943432     1.007825032230
         H            3.294314854195    -1.002882692602    -0.486748943432     1.007825032230
         H            4.130183854195     0.565556307398    -0.472345943432     1.007825032230
         H            3.391996854195    -0.077958692602     1.008975056568     1.007825032230

  Basis Set: AUG-CC-PVTZ
    Blend: AUG-CC-PVTZ
  Basis Set: (AUG-CC-PVTZ AUX)
    Blend: AUG-CC-PVTZ-JKFIT
	 Reference Energy          =    -364.1992671549576244 [Eh]
	 Singles Energy            =      -0.0000000000000000 [Eh]
	 Same-Spin Energy          =      -0.3782064685567196 [Eh]
	 Opposite-Spin Energy      =      -1.2782269911597361 [Eh]
	 Correlation Energy        =      -1.6564334597164558 [Eh]
	 Total Energy              =    -365.8557006146741060 [Eh]

	 ================> DF-SCS-MP2 Energies <==================
	-----------------------------------------------------------
	 SCS Same-Spin Scale       =       0.3333333333333333 [-]
	 SCS Opposite-Spin Scale   =       1.2000000000000000 [-]
	 SCS Same-Spin Energy      =      -0.1260688228522399 [Eh]
	 SCS Opposite-Spin Energy  =      -1.5338723893916832 [Eh]
	 SCS Correlation Energy    =      -1.6599412122439232 [Eh]
	 SCS Total Energy          =    -365.8592083672015747 [Eh]
	-----------------------------------------------------------

  Dipole Moment: [D]
     X:    -0.5777      Y:     2.8758      Z:    -1.6051     Total:     3.3437

*** Psi4 exiting successfully. Buy a developer a beer!
