                               Psi4 1.3.2 release

  ==> Input File <==

--------------------------------------------------------------------------
#psi4
#
memory 32 gb

molecule  {
0 1
  O        0.9327986    -1.1256111     0.6676427
  N       -0.4170490     0.5891890    -0.1013730
  C       -1.6800190    -0.0563620     0.2358630
  C       -2.0872990    -1.0630810    -0.8349870
  C       -2.7390930     1.0113430     0.4650240
  C        0.7808810    -0.0406060     0.0960010
  C        2.0385618     0.6577335    -0.4018189
  C        3.2969670     0.0166800    -0.0788280
  H       -1.4931140    -0.5968520     1.1678280
  H       -0.4432210     1.3965910    -0.7180680
  H       -3.0167340    -1.5709650    -0.5578120
  H       -2.2433890    -0.5581650    -1.7943680
  H       -1.3035910    -1.8142070    -0.9546500
  H       -2.4287380     1.7063800     1.2494310
  H       -3.6863690     0.5519340     0.7608270
  H       -2.9190420     1.5806020    -0.4540200
  H        1.8890940     0.8204890    -1.5196510
  H        1.9757950     1.7355060    -0.0222730
  H        3.3123780    -0.9936500    -0.4915720
  H        4.1482470     0.5747890    -0.4771690
  H        3.4100600    -0.0687260     1.0041520
units angstrom
no_reorient  #important for SAPT in psi4, default
symmetry c1  #important for SAPT in psi4, default
}

set PROPERTIES_ORIGIN ["COM"]
properties('MP2/aug-cc-pvtz', properties = ['dipole'])
--------------------------------------------------------------------------

    Molecular point group: c1
  Charge       = 0
  Multiplicity = 1
  Basis Set: AUG-CC-PVTZ
    Blend: AUG-CC-PVTZ
  Basis Set: (AUG-CC-PVTZ AUX)
    Blend: AUG-CC-PVTZ-JKFIT

    Orbital Energies [Eh]
    ---------------------

    Doubly Occupied:

       1A    -20.512316     2A    -15.582479     3A    -11.344846
       4A    -11.268023     5A    -11.241928     6A    -11.225327
       7A    -11.214311     8A    -11.208141     9A     -1.366640
      10A     -1.232424    11A     -1.068932    12A     -1.037944
      13A     -0.941798    14A     -0.886769    15A     -0.807874
      16A     -0.778470    17A     -0.680809    18A     -0.654847
      19A     -0.631765    20A     -0.614954    21A     -0.594326
      22A     -0.580001    23A     -0.560897    24A     -0.547156
      25A     -0.528408    26A     -0.520975    27A     -0.506284
      28A     -0.495145    29A     -0.485908    30A     -0.466148
      31A     -0.412857    32A     -0.388276

  @DF-RHF Final Energy:  -364.24025265276975

   => Energetics <=

    Nuclear Repulsion Energy =            392.6792840537726761
    One-Electron Energy =               -1273.0651094226050191
    Two-Electron Energy =                 516.1455727160625884
    Total Energy =                       -364.2402526527697546
  Basis Set: (AUG-CC-PVTZ AUX)
    Blend: AUG-CC-PVTZ-RI
    Molecular point group: c1

    Geometry (in Angstrom), charge = 0, multiplicity = 1:

       Center              X                  Y                   Z               Mass
    ------------   -----------------  -----------------  -----------------  -----------------
         O            0.919075470938    -1.119879078594     0.665860845037    15.994914619570
         N           -0.430772129062     0.594921021406    -0.103154854963    14.003074004430
         C           -1.693742129062    -0.050629978594     0.234081145037    12.000000000000
         C           -2.101022129062    -1.057348978594    -0.836768854963    12.000000000000
         C           -2.752816129062     1.017075021406     0.463242145037    12.000000000000
         C            0.767157870938    -0.034873978594     0.094219145037    12.000000000000
         C            2.024838670938     0.663465521406    -0.403600754963    12.000000000000
         C            3.283243870938     0.022412021406    -0.080609854963    12.000000000000
         H           -1.506837129062    -0.591119978594     1.166046145037     1.007825032230
         H           -0.456944129062     1.402323021406    -0.719849854963     1.007825032230
         H           -3.030457129062    -1.565232978594    -0.559593854963     1.007825032230
         H           -2.257112129062    -0.552432978594    -1.796149854963     1.007825032230
         H           -1.317314129062    -1.808474978594    -0.956431854963     1.007825032230
         H           -2.442461129062     1.712112021406     1.247649145037     1.007825032230
         H           -3.700092129062     0.557666021406     0.759045145037     1.007825032230
         H           -2.932765129062     1.586334021406    -0.455801854963     1.007825032230
         H            1.875370870938     0.826221021406    -1.521432854963     1.007825032230
         H            1.962071870938     1.741238021406    -0.024054854963     1.007825032230
         H            3.298654870938    -0.987917978594    -0.493353854963     1.007825032230
         H            4.134523870938     0.580521021406    -0.478950854963     1.007825032230
         H            3.396336870938    -0.062993978594     1.002370145037     1.007825032230

  Basis Set: AUG-CC-PVTZ
    Blend: AUG-CC-PVTZ
  Basis Set: (AUG-CC-PVTZ AUX)
    Blend: AUG-CC-PVTZ-JKFIT
	 Reference Energy          =    -364.2402526527697546 [Eh]
	 Singles Energy            =      -0.0000000000000000 [Eh]
	 Same-Spin Energy          =      -0.3763096330774688 [Eh]
	 Opposite-Spin Energy      =      -1.2757586882773093 [Eh]
	 Correlation Energy        =      -1.6520683213547782 [Eh]
	 Total Energy              =    -365.8923209741245159 [Eh]

	 ================> DF-SCS-MP2 Energies <==================
	-----------------------------------------------------------
	 SCS Same-Spin Scale       =       0.3333333333333333 [-]
	 SCS Opposite-Spin Scale   =       1.2000000000000000 [-]
	 SCS Same-Spin Energy      =      -0.1254365443591563 [Eh]
	 SCS Opposite-Spin Energy  =      -1.5309104259327710 [Eh]
	 SCS Correlation Energy    =      -1.6563469702919273 [Eh]
	 SCS Total Energy          =    -365.8965996230616611 [Eh]
	-----------------------------------------------------------

  Dipole Moment: [D]
     X:    -1.4786      Y:     2.6814      Z:    -1.6087     Total:     3.4589

*** Psi4 exiting successfully. Buy a developer a beer!
