                               Psi4 1.3.2 release

  ==> Input File <==

--------------------------------------------------------------------------
#psi4
#
memory 32 gb

molecule  {
0 1
  O        0.8686370    -1.1285810     0.6753960
  N       -0.4170490     0.5891890    -0.1013730
  C       -1.6539586    -0.0971957     0.2514556
  C       -2.0872990    -1.0630810    -0.8349870
  C       -2.7390930     1.0113430     0.4650240
  C        0.7572413    -0.0784247     0.1130302
  C        1.9924560     0.7166710    -0.4292430
  C        3.2969670     0.0166800    -0.0788280
  H       -1.4931140    -0.5968520     1.1678280
  H       -0.4432210     1.3965910    -0.7180680
  H       -3.0167340    -1.5709650    -0.5578120
  H       -2.2433890    -0.5581650    -1.7943680
  H       -1.3035910    -1.8142070    -0.9546500
  H       -2.4287380     1.7063800     1.2494310
  H       -3.6863690     0.5519340     0.7608270
  H       -2.9190420     1.5806020    -0.4540200
  H        1.8890940     0.8204890    -1.5196510
  H        1.9757950     1.7355060    -0.0222730
  H        3.3123780    -0.9936500    -0.4915720
  H        4.1482470     0.5747890    -0.4771690
  H        3.4100600    -0.0687260     1.0041520
units angstrom
no_reorient  #important for SAPT in psi4, default
symmetry c1  #important for SAPT in psi4, default
}

set PROPERTIES_ORIGIN ["COM"]
properties('MP2/aug-cc-pvtz', properties = ['dipole'])
--------------------------------------------------------------------------

    Molecular point group: c1
  Charge       = 0
  Multiplicity = 1
  Basis Set: AUG-CC-PVTZ
    Blend: AUG-CC-PVTZ
  Basis Set: (AUG-CC-PVTZ AUX)
    Blend: AUG-CC-PVTZ-JKFIT

    Orbital Energies [Eh]
    ---------------------

    Doubly Occupied:

       1A    -20.519367     2A    -15.575915     3A    -11.341582
       4A    -11.263243     5A    -11.236754     6A    -11.223361
       7A    -11.212842     8A    -11.211183     9A     -1.392800
      10A     -1.231894    11A     -1.058514    12A     -1.024142
      13A     -0.937115    14A     -0.879710    15A     -0.810853
      16A     -0.781034    17A     -0.681914    18A     -0.658868
      19A     -0.633389    20A     -0.609303    21A     -0.602720
      22A     -0.580816    23A     -0.546315    24A     -0.545266
      25A     -0.530147    26A     -0.514894    27A     -0.508070
      28A     -0.500430    29A     -0.487426    30A     -0.478657
      31A     -0.412551    32A     -0.388846

  @DF-RHF Final Energy:  -364.24656043384766

   => Energetics <=

    Nuclear Repulsion Energy =            392.8509625198335016
    One-Electron Energy =               -1273.4352023237249796
    Two-Electron Energy =                 516.3376793700438157
    Total Energy =                       -364.2465604338476624
  Basis Set: (AUG-CC-PVTZ AUX)
    Blend: AUG-CC-PVTZ-RI
    Molecular point group: c1

    Geometry (in Angstrom), charge = 0, multiplicity = 1:

       Center              X                  Y                   Z               Mass
    ------------   -----------------  -----------------  -----------------  -----------------
         O            0.868384629982    -1.120380839561     0.671994803294    15.994914619570
         N           -0.417301370018     0.597389160439    -0.104774196706    14.003074004430
         C           -1.654210970018    -0.088995539561     0.248054403294    12.000000000000
         C           -2.087551370018    -1.054880839561    -0.838388196706    12.000000000000
         C           -2.739345370018     1.019543160439     0.461622803294    12.000000000000
         C            0.756988929982    -0.070224539561     0.109629003294    12.000000000000
         C            1.992203629982     0.724871160439    -0.432644196706    12.000000000000
         C            3.296714629982     0.024880160439    -0.082229196706    12.000000000000
         H           -1.493366370018    -0.588651839561     1.164426803294     1.007825032230
         H           -0.443473370018     1.404791160439    -0.721469196706     1.007825032230
         H           -3.016986370018    -1.562764839561    -0.561213196706     1.007825032230
         H           -2.243641370018    -0.549964839561    -1.797769196706     1.007825032230
         H           -1.303843370018    -1.806006839561    -0.958051196706     1.007825032230
         H           -2.428990370018     1.714580160439     1.246029803294     1.007825032230
         H           -3.686621370018     0.560134160439     0.757425803294     1.007825032230
         H           -2.919294370018     1.588802160439    -0.457421196706     1.007825032230
         H            1.888841629982     0.828689160439    -1.523052196706     1.007825032230
         H            1.975542629982     1.743706160439    -0.025674196706     1.007825032230
         H            3.312125629982    -0.985449839561    -0.494973196706     1.007825032230
         H            4.147994629982     0.582989160439    -0.480570196706     1.007825032230
         H            3.409807629982    -0.060525839561     1.000750803294     1.007825032230

  Basis Set: AUG-CC-PVTZ
    Blend: AUG-CC-PVTZ
  Basis Set: (AUG-CC-PVTZ AUX)
    Blend: AUG-CC-PVTZ-JKFIT
	 Reference Energy          =    -364.2465604338476624 [Eh]
	 Singles Energy            =      -0.0000000000000000 [Eh]
	 Same-Spin Energy          =      -0.3747233475943336 [Eh]
	 Opposite-Spin Energy      =      -1.2733613949246578 [Eh]
	 Correlation Energy        =      -1.6480847425189915 [Eh]
	 Total Energy              =    -365.8946451763666801 [Eh]

	 ================> DF-SCS-MP2 Energies <==================
	-----------------------------------------------------------
	 SCS Same-Spin Scale       =       0.3333333333333333 [-]
	 SCS Opposite-Spin Scale   =       1.2000000000000000 [-]
	 SCS Same-Spin Energy      =      -0.1249077825314445 [Eh]
	 SCS Opposite-Spin Energy  =      -1.5280336739095894 [Eh]
	 SCS Correlation Energy    =      -1.6529414564410341 [Eh]
	 SCS Total Energy          =    -365.8995018902887182 [Eh]
	-----------------------------------------------------------

  Dipole Moment: [D]
     X:    -1.3492      Y:     2.5020      Z:    -1.5507     Total:     3.2381

*** Psi4 exiting successfully. Buy a developer a beer!
