                               Psi4 1.3.2 release

  ==> Input File <==

--------------------------------------------------------------------------
#psi4
#
memory 32 gb

molecule  {
0 1
  O        0.8686370    -1.1285810     0.6753960
  N       -0.4170490     0.5891890    -0.1013730
  C       -1.6800190    -0.0563620     0.2358630
  C       -2.0872990    -1.0630810    -0.8349870
  C       -2.7390930     1.0113430     0.4650240
  C        0.7729097    -0.0313207     0.0908328
  C        1.9924560     0.7166710    -0.4292430
  C        3.3037191     0.0262924    -0.0850144
  H       -1.4931140    -0.5968520     1.1678280
  H       -0.4432210     1.3965910    -0.7180680
  H       -3.0167340    -1.5709650    -0.5578120
  H       -2.2433890    -0.5581650    -1.7943680
  H       -1.3035910    -1.8142070    -0.9546500
  H       -2.4287380     1.7063800     1.2494310
  H       -3.6863690     0.5519340     0.7608270
  H       -2.9190420     1.5806020    -0.4540200
  H        1.8890940     0.8204890    -1.5196510
  H        1.9757950     1.7355060    -0.0222730
  H        3.3123780    -0.9936500    -0.4915720
  H        4.1482470     0.5747890    -0.4771690
  H        3.4100600    -0.0687260     1.0041520
units angstrom
no_reorient  #important for SAPT in psi4, default
symmetry c1  #important for SAPT in psi4, default
}

set PROPERTIES_ORIGIN ["COM"]
properties('MP2/aug-cc-pvtz', properties = ['dipole'])
--------------------------------------------------------------------------

    Molecular point group: c1
  Charge       = 0
  Multiplicity = 1
  Basis Set: AUG-CC-PVTZ
    Blend: AUG-CC-PVTZ
  Basis Set: (AUG-CC-PVTZ AUX)
    Blend: AUG-CC-PVTZ-JKFIT

    Orbital Energies [Eh]
    ---------------------

    Doubly Occupied:

       1A    -20.510530     2A    -15.580949     3A    -11.344768
       4A    -11.266217     5A    -11.240338     6A    -11.224404
       7A    -11.213267     8A    -11.213223     9A     -1.360569
      10A     -1.231259    11A     -1.067041    12A     -1.030657
      13A     -0.940741    14A     -0.888624    15A     -0.809771
      16A     -0.780890    17A     -0.681006    18A     -0.654418
      19A     -0.635012    20A     -0.614432    21A     -0.590702
      22A     -0.578134    23A     -0.551919    24A     -0.546149
      25A     -0.524918    26A     -0.512000    27A     -0.509736
      28A     -0.496021    29A     -0.487585    30A     -0.475807
      31A     -0.415822    32A     -0.386362

  @DF-RHF Final Energy:  -364.24806250920335

   => Energetics <=

    Nuclear Repulsion Energy =            392.4170239018612278
    One-Electron Energy =               -1272.6036277019697991
    Two-Electron Energy =                 515.9385412909051638
    Total Energy =                       -364.2480625092033506
  Basis Set: (AUG-CC-PVTZ AUX)
    Blend: AUG-CC-PVTZ-RI
    Molecular point group: c1

    Geometry (in Angstrom), charge = 0, multiplicity = 1:

       Center              X                  Y                   Z               Mass
    ------------   -----------------  -----------------  -----------------  -----------------
         O            0.868764116589    -1.130551161961     0.676579669594    15.994914619570
         N           -0.416921883411     0.587218838039    -0.100189330406    14.003074004430
         C           -1.679891883411    -0.058332161961     0.237046669594    12.000000000000
         C           -2.087171883411    -1.065051161961    -0.833803330406    12.000000000000
         C           -2.738965883411     1.009372838039     0.466207669594    12.000000000000
         C            0.773036816589    -0.033290861961     0.092016469594    12.000000000000
         C            1.992583116589     0.714700838039    -0.428059330406    12.000000000000
         C            3.303846216589     0.024322238039    -0.083830730406    12.000000000000
         H           -1.492986883411    -0.598822161961     1.169011669594     1.007825032230
         H           -0.443093883411     1.394620838039    -0.716884330406     1.007825032230
         H           -3.016606883411    -1.572935161961    -0.556628330406     1.007825032230
         H           -2.243261883411    -0.560135161961    -1.793184330406     1.007825032230
         H           -1.303463883411    -1.816177161961    -0.953466330406     1.007825032230
         H           -2.428610883411     1.704409838039     1.250614669594     1.007825032230
         H           -3.686241883411     0.549963838039     0.762010669594     1.007825032230
         H           -2.918914883411     1.578631838039    -0.452836330406     1.007825032230
         H            1.889221116589     0.818518838039    -1.518467330406     1.007825032230
         H            1.975922116589     1.733535838039    -0.021089330406     1.007825032230
         H            3.312505116589    -0.995620161961    -0.490388330406     1.007825032230
         H            4.148374116589     0.572818838039    -0.475985330406     1.007825032230
         H            3.410187116589    -0.070696161961     1.005335669594     1.007825032230

  Basis Set: AUG-CC-PVTZ
    Blend: AUG-CC-PVTZ
  Basis Set: (AUG-CC-PVTZ AUX)
    Blend: AUG-CC-PVTZ-JKFIT
	 Reference Energy          =    -364.2480625092033506 [Eh]
	 Singles Energy            =      -0.0000000000000000 [Eh]
	 Same-Spin Energy          =      -0.3759692329815359 [Eh]
	 Opposite-Spin Energy      =      -1.2755161501124956 [Eh]
	 Correlation Energy        =      -1.6514853830940315 [Eh]
	 Total Energy              =    -365.8995478922973916 [Eh]

	 ================> DF-SCS-MP2 Energies <==================
	-----------------------------------------------------------
	 SCS Same-Spin Scale       =       0.3333333333333333 [-]
	 SCS Opposite-Spin Scale   =       1.2000000000000000 [-]
	 SCS Same-Spin Energy      =      -0.1253230776605120 [Eh]
	 SCS Opposite-Spin Energy  =      -1.5306193801349948 [Eh]
	 SCS Correlation Energy    =      -1.6559424577955066 [Eh]
	 SCS Total Energy          =    -365.9040049669988548 [Eh]
	-----------------------------------------------------------

  Dipole Moment: [D]
     X:    -1.3829      Y:     2.7938      Z:    -1.6742     Total:     3.5384

*** Psi4 exiting successfully. Buy a developer a beer!
