                               Psi4 1.3.2 release

  ==> Input File <==

--------------------------------------------------------------------------
#psi4
#
memory 32 gb

molecule  {
0 1
  O        0.8686370    -1.1285810     0.6753960
  N       -0.4150279     0.5473792    -0.1651998
  C       -1.6800190    -0.0563620     0.2358630
  C       -2.0208449    -1.0442076    -0.8750279
  C       -2.7390930     1.0113430     0.4650240
  C        0.7808810    -0.0406060     0.0960010
  C        1.9924560     0.7166710    -0.4292430
  C        3.2969670     0.0166800    -0.0788280
  H       -1.4931140    -0.5968520     1.1678280
  H       -0.4432210     1.3965910    -0.7180680
  H       -3.0167340    -1.5709650    -0.5578120
  H       -2.2433890    -0.5581650    -1.7943680
  H       -1.3035910    -1.8142070    -0.9546500
  H       -2.4287380     1.7063800     1.2494310
  H       -3.6863690     0.5519340     0.7608270
  H       -2.9190420     1.5806020    -0.4540200
  H        1.8890940     0.8204890    -1.5196510
  H        1.9757950     1.7355060    -0.0222730
  H        3.3123780    -0.9936500    -0.4915720
  H        4.1482470     0.5747890    -0.4771690
  H        3.4100600    -0.0687260     1.0041520
units angstrom
no_reorient  #important for SAPT in psi4, default
symmetry c1  #important for SAPT in psi4, default
}

set PROPERTIES_ORIGIN ["COM"]
properties('MP2/aug-cc-pvtz', properties = ['dipole'])
--------------------------------------------------------------------------

    Molecular point group: c1
  Charge       = 0
  Multiplicity = 1
  Basis Set: AUG-CC-PVTZ
    Blend: AUG-CC-PVTZ
  Basis Set: (AUG-CC-PVTZ AUX)
    Blend: AUG-CC-PVTZ-JKFIT

    Orbital Energies [Eh]
    ---------------------

    Doubly Occupied:

       1A    -20.510447     2A    -15.576919     3A    -11.342734
       4A    -11.266409     5A    -11.239400     6A    -11.226804
       7A    -11.212804     8A    -11.212264     9A     -1.366302
      10A     -1.230660    11A     -1.066520    12A     -1.029325
      13A     -0.942440    14A     -0.886937    15A     -0.808909
      16A     -0.781403    17A     -0.682296    18A     -0.655400
      19A     -0.635246    20A     -0.617223    21A     -0.591684
      22A     -0.583290    23A     -0.551658    24A     -0.546461
      25A     -0.519124    26A     -0.511875    27A     -0.502089
      28A     -0.497541    29A     -0.493833    30A     -0.478087
      31A     -0.414997    32A     -0.381672

  @DF-RHF Final Energy:  -364.24142937121871

   => Energetics <=

    Nuclear Repulsion Energy =            393.2396034041825601
    One-Electron Energy =               -1274.2365557658049511
    Two-Electron Energy =                 516.7555229904036196
    Total Energy =                       -364.2414293712187146
  Basis Set: (AUG-CC-PVTZ AUX)
    Blend: AUG-CC-PVTZ-RI
    Molecular point group: c1

    Geometry (in Angstrom), charge = 0, multiplicity = 1:

       Center              X                  Y                   Z               Mass
    ------------   -----------------  -----------------  -----------------  -----------------
         O            0.861462784698    -1.125462032693     0.687335621632    15.994914619570
         N           -0.422202115302     0.550498167307    -0.153260178368    14.003074004430
         C           -1.687193215302    -0.053243032693     0.247802621632    12.000000000000
         C           -2.028019115302    -1.041088632693    -0.863088278368    12.000000000000
         C           -2.746267215302     1.014461967307     0.476963621632    12.000000000000
         C            0.773706784698    -0.037487032693     0.107940621632    12.000000000000
         C            1.985281784698     0.719789967307    -0.417303378368    12.000000000000
         C            3.289792784698     0.019798967307    -0.066888378368    12.000000000000
         H           -1.500288215302    -0.593733032693     1.179767621632     1.007825032230
         H           -0.450395215302     1.399709967307    -0.706128378368     1.007825032230
         H           -3.023908215302    -1.567846032693    -0.545872378368     1.007825032230
         H           -2.250563215302    -0.555046032693    -1.782428378368     1.007825032230
         H           -1.310765215302    -1.811088032693    -0.942710378368     1.007825032230
         H           -2.435912215302     1.709498967307     1.261370621632     1.007825032230
         H           -3.693543215302     0.555052967307     0.772766621632     1.007825032230
         H           -2.926216215302     1.583720967307    -0.442080378368     1.007825032230
         H            1.881919784698     0.823607967307    -1.507711378368     1.007825032230
         H            1.968620784698     1.738624967307    -0.010333378368     1.007825032230
         H            3.305203784698    -0.990531032693    -0.479632378368     1.007825032230
         H            4.141072784698     0.577907967307    -0.465229378368     1.007825032230
         H            3.402885784698    -0.065607032693     1.016091621632     1.007825032230

  Basis Set: AUG-CC-PVTZ
    Blend: AUG-CC-PVTZ
  Basis Set: (AUG-CC-PVTZ AUX)
    Blend: AUG-CC-PVTZ-JKFIT
	 Reference Energy          =    -364.2414293712187146 [Eh]
	 Singles Energy            =      -0.0000000000000000 [Eh]
	 Same-Spin Energy          =      -0.3759943414772759 [Eh]
	 Opposite-Spin Energy      =      -1.2755332507231145 [Eh]
	 Correlation Energy        =      -1.6515275922003905 [Eh]
	 Total Energy              =    -365.8929569634191239 [Eh]

	 ================> DF-SCS-MP2 Energies <==================
	-----------------------------------------------------------
	 SCS Same-Spin Scale       =       0.3333333333333333 [-]
	 SCS Opposite-Spin Scale   =       1.2000000000000000 [-]
	 SCS Same-Spin Energy      =      -0.1253314471590919 [Eh]
	 SCS Opposite-Spin Energy  =      -1.5306399008677374 [Eh]
	 SCS Correlation Energy    =      -1.6559713480268292 [Eh]
	 SCS Total Energy          =    -365.8974007192455247 [Eh]
	-----------------------------------------------------------

  Dipole Moment: [D]
     X:    -1.3742      Y:     2.9255      Z:    -1.5500     Total:     3.5846

*** Psi4 exiting successfully. Buy a developer a beer!
