                               Psi4 1.4a3.dev225

  ==> Input File <==

--------------------------------------------------------------------------
#psi4
#
memory 32 gb

molecule  {
0 1
  O        0.8665680     1.1680080    -0.7351460
  N       -0.3660760    -0.5086790     0.1929010
  C       -1.6616332     0.0246545    -0.2825673
  C       -2.1412550     1.1442230     0.6252270
  C       -2.6427120    -1.1266550    -0.3840140
  C        0.8063460     0.1556180    -0.0295640
  C        2.0309430    -0.4326950     0.6540710
  C        3.2825740    -0.2523450    -0.1975960
  H       -1.4466230     0.4281070    -1.2709490
  H       -0.3785050    -1.2608410     0.8714320
  H       -3.0785860     1.5617170     0.2436050
  H       -2.3175770     0.7713190     1.6396860
  H       -1.3960540     1.9417130     0.6641920
  H       -2.2693050    -1.9092940    -1.0497770
  H       -3.5969080    -0.7634960    -0.7753550
  H       -2.8341330    -1.5678230     0.6011330
  H        2.1523320     0.0883960     1.6122110
  H        1.8656800    -1.4909910     0.8873090
  H        3.4076760     0.8004350    -0.4533700
  H        4.1701610    -0.5986810     0.3385000
  H        3.2011700    -0.8174180    -1.1296580
units angstrom
no_reorient  #important for SAPT in psi4, default
symmetry c1  #important for SAPT in psi4, default
}

set PROPERTIES_ORIGIN ["COM"]
properties('MP2/aug-cc-pvtz', properties = ['dipole'])
--------------------------------------------------------------------------

    Molecular point group: c1
  Charge       = 0
  Multiplicity = 1
  Basis Set: AUG-CC-PVTZ
    Blend: AUG-CC-PVTZ
  Basis Set: (AUG-CC-PVTZ AUX)
    Blend: AUG-CC-PVTZ-JKFIT

    Orbital Energies [Eh]
    ---------------------

    Doubly Occupied:

       1A    -20.509880     2A    -15.579295     3A    -11.343408
       4A    -11.266864     5A    -11.239173     6A    -11.224923
       7A    -11.215222     8A    -11.213137     9A     -1.365114
      10A     -1.224902    11A     -1.067176    12A     -1.031248
      13A     -0.941942    14A     -0.886308    15A     -0.808894
      16A     -0.778665    17A     -0.681035    18A     -0.657305
      19A     -0.624831    20A     -0.617978    21A     -0.592767
      22A     -0.578114    23A     -0.555672    24A     -0.546315
      25A     -0.525843    26A     -0.511882    27A     -0.508698
      28A     -0.497296    29A     -0.489756    30A     -0.477633
      31A     -0.413843    32A     -0.386872

  @DF-RHF Final Energy:  -364.24917455323845

   => Energetics <=

    Nuclear Repulsion Energy =            392.3240644206882735
    One-Electron Energy =               -1272.4224988524767923
    Two-Electron Energy =                 515.8492598785500149
    Total Energy =                       -364.2491745532385039
  Basis Set: (AUG-CC-PVTZ AUX)
    Blend: AUG-CC-PVTZ-RI
    Molecular point group: c1

    Geometry (in Angstrom), charge = 0, multiplicity = 1:

       Center              X                  Y                   Z               Mass
    ------------   -----------------  -----------------  -----------------  -----------------
         O            0.846713484008     1.143039861890    -0.715730654631    15.994914619570
         N           -0.385930515992    -0.533647138110     0.212316345369    14.003074004430
         C           -1.681487715992    -0.000313638110    -0.263151954631    12.000000000000
         C           -2.161109515992     1.119254861890     0.644642345369    12.000000000000
         C           -2.662566515992    -1.151623138110    -0.364598654631    12.000000000000
         C            0.786491484008     0.130649861890    -0.010148654631    12.000000000000
         C            2.011088484008    -0.457663138110     0.673486345369    12.000000000000
         C            3.262719484008    -0.277313138110    -0.178180654631    12.000000000000
         H           -1.466477515992     0.403138861890    -1.251533654631     1.007825032230
         H           -0.398359515992    -1.285809138110     0.890847345369     1.007825032230
         H           -3.098440515992     1.536748861890     0.263020345369     1.007825032230
         H           -2.337431515992     0.746350861890     1.659101345369     1.007825032230
         H           -1.415908515992     1.916744861890     0.683607345369     1.007825032230
         H           -2.289159515992    -1.934262138110    -1.030361654631     1.007825032230
         H           -3.616762515992    -0.788464138110    -0.755939654631     1.007825032230
         H           -2.853987515992    -1.592791138110     0.620548345369     1.007825032230
         H            2.132477484008     0.063427861890     1.631626345369     1.007825032230
         H            1.845825484008    -1.515959138110     0.906724345369     1.007825032230
         H            3.387821484008     0.775466861890    -0.433954654631     1.007825032230
         H            4.150306484008    -0.623649138110     0.357915345369     1.007825032230
         H            3.181315484008    -0.842386138110    -1.110242654631     1.007825032230

  Basis Set: AUG-CC-PVTZ
    Blend: AUG-CC-PVTZ
  Basis Set: (AUG-CC-PVTZ AUX)
    Blend: AUG-CC-PVTZ-JKFIT
	 Reference Energy          =    -364.2491745532384471 [Eh]
	 Singles Energy            =      -0.0000000000000000 [Eh]
	 Same-Spin Energy          =      -0.3758178133776979 [Eh]
	 Opposite-Spin Energy      =      -1.2752554122762099 [Eh]
	 Correlation Energy        =      -1.6510732256539078 [Eh]
	 Total Energy              =    -365.9002477788923784 [Eh]

	 ================> DF-SCS-MP2 Energies <==================
	-----------------------------------------------------------
	 SCS Same-Spin Scale       =       0.3333333333333333 [-]
	 SCS Opposite-Spin Scale   =       1.2000000000000000 [-]
	 SCS Same-Spin Energy      =      -0.1252726044592326 [Eh]
	 SCS Opposite-Spin Energy  =      -1.5303064947314517 [Eh]
	 SCS Correlation Energy    =      -1.6555790991906845 [Eh]
	 SCS Total Energy          =    -365.9047536524291218 [Eh]
	-----------------------------------------------------------

  Dipole Moment: [D]
     X:    -1.3454      Y:    -2.5920      Z:     1.8974     Total:     3.4826

*** Psi4 exiting successfully. Buy a developer a beer!
