                               Psi4 1.3.2 release

  ==> Input File <==

--------------------------------------------------------------------------
#psi4
#
memory 32 gb

molecule  {
0 1
  O        0.8686370    -1.1285810     0.6753960
  N       -0.4170490     0.5891890    -0.1013730
  C       -1.6800190    -0.0563620     0.2358630
  C       -2.0872990    -1.0630810    -0.8349870
  C       -2.7390930     1.0113430     0.4650240
  C        0.7808810    -0.0406060     0.0960010
  C        1.9128653     0.6669240    -0.3947387
  C        3.2969670     0.0166800    -0.0788280
  H       -1.4931140    -0.5968520     1.1678280
  H       -0.4432210     1.3965910    -0.7180680
  H       -3.0167340    -1.5709650    -0.5578120
  H       -2.2433890    -0.5581650    -1.7943680
  H       -1.3035910    -1.8142070    -0.9546500
  H       -2.4287380     1.7063800     1.2494310
  H       -3.6863690     0.5519340     0.7608270
  H       -2.9190420     1.5806020    -0.4540200
  H        1.8890940     0.8204890    -1.5196510
  H        1.9757950     1.7355060    -0.0222730
  H        3.3123780    -0.9936500    -0.4915720
  H        4.1482470     0.5747890    -0.4771690
  H        3.4100600    -0.0687260     1.0041520
units angstrom
no_reorient  #important for SAPT in psi4, default
symmetry c1  #important for SAPT in psi4, default
}

set PROPERTIES_ORIGIN ["COM"]
properties('MP2/aug-cc-pvtz', properties = ['dipole'])
--------------------------------------------------------------------------

    Molecular point group: c1
  Charge       = 0
  Multiplicity = 1
  Basis Set: AUG-CC-PVTZ
    Blend: AUG-CC-PVTZ
  Basis Set: (AUG-CC-PVTZ AUX)
    Blend: AUG-CC-PVTZ-JKFIT

    Orbital Energies [Eh]
    ---------------------

    Doubly Occupied:

       1A    -20.512936     2A    -15.576744     3A    -11.341013
       4A    -11.264366     5A    -11.242763     6A    -11.223080
       7A    -11.216985     8A    -11.212133     9A     -1.370162
      10A     -1.229354    11A     -1.071950    12A     -1.026779
      13A     -0.939495    14A     -0.898618    15A     -0.806462
      16A     -0.776534    17A     -0.693287    18A     -0.653882
      19A     -0.633625    20A     -0.612762    21A     -0.595339
      22A     -0.576210    23A     -0.551868    24A     -0.544989
      25A     -0.527489    26A     -0.517939    27A     -0.496525
      28A     -0.490901    29A     -0.484831    30A     -0.470290
      31A     -0.425592    32A     -0.385432

  @DF-RHF Final Energy:  -364.23814181906926

   => Energetics <=

    Nuclear Repulsion Energy =            393.9310011050344542
    One-Electron Energy =               -1275.5976159435638237
    Two-Electron Energy =                 517.4284730194600570
    Total Energy =                       -364.2381418190692557
  Basis Set: (AUG-CC-PVTZ AUX)
    Blend: AUG-CC-PVTZ-RI
    Molecular point group: c1

    Geometry (in Angstrom), charge = 0, multiplicity = 1:

       Center              X                  Y                   Z               Mass
    ------------   -----------------  -----------------  -----------------  -----------------
         O            0.876934927506    -1.123394442183     0.671798538688    15.994914619570
         N           -0.408751072494     0.594375557817    -0.104970461312    14.003074004430
         C           -1.671721072494    -0.051175442183     0.232265538688    12.000000000000
         C           -2.079001072494    -1.057894442183    -0.838584461312    12.000000000000
         C           -2.730795072494     1.016529557817     0.461426538688    12.000000000000
         C            0.789178927506    -0.035419442183     0.092403538688    12.000000000000
         C            1.921163227506     0.672110557817    -0.398336161312    12.000000000000
         C            3.305264927506     0.021866557817    -0.082425461312    12.000000000000
         H           -1.484816072494    -0.591665442183     1.164230538688     1.007825032230
         H           -0.434923072494     1.401777557817    -0.721665461312     1.007825032230
         H           -3.008436072494    -1.565778442183    -0.561409461312     1.007825032230
         H           -2.235091072494    -0.552978442183    -1.797965461312     1.007825032230
         H           -1.295293072494    -1.809020442183    -0.958247461312     1.007825032230
         H           -2.420440072494     1.711566557817     1.245833538688     1.007825032230
         H           -3.678071072494     0.557120557817     0.757229538688     1.007825032230
         H           -2.910744072494     1.585788557817    -0.457617461312     1.007825032230
         H            1.897391927506     0.825675557817    -1.523248461312     1.007825032230
         H            1.984092927506     1.740692557817    -0.025870461312     1.007825032230
         H            3.320675927506    -0.988463442183    -0.495169461312     1.007825032230
         H            4.156544927506     0.579975557817    -0.480766461312     1.007825032230
         H            3.418357927506    -0.063539442183     1.000554538688     1.007825032230

  Basis Set: AUG-CC-PVTZ
    Blend: AUG-CC-PVTZ
  Basis Set: (AUG-CC-PVTZ AUX)
    Blend: AUG-CC-PVTZ-JKFIT
	 Reference Energy          =    -364.2381418190692557 [Eh]
	 Singles Energy            =      -0.0000000000000000 [Eh]
	 Same-Spin Energy          =      -0.3764888639460932 [Eh]
	 Opposite-Spin Energy      =      -1.2761644531110501 [Eh]
	 Correlation Energy        =      -1.6526533170571434 [Eh]
	 Total Energy              =    -365.8907951361263713 [Eh]

	 ================> DF-SCS-MP2 Energies <==================
	-----------------------------------------------------------
	 SCS Same-Spin Scale       =       0.3333333333333333 [-]
	 SCS Opposite-Spin Scale   =       1.2000000000000000 [-]
	 SCS Same-Spin Energy      =      -0.1254962879820311 [Eh]
	 SCS Opposite-Spin Energy  =      -1.5313973437332600 [Eh]
	 SCS Correlation Energy    =      -1.6568936317152909 [Eh]
	 SCS Total Energy          =    -365.8950354507845191 [Eh]
	-----------------------------------------------------------

  Dipole Moment: [D]
     X:    -1.1727      Y:     2.7774      Z:    -1.6781     Total:     3.4504

*** Psi4 exiting successfully. Buy a developer a beer!
