                               Psi4 1.3.2 release

  ==> Input File <==

--------------------------------------------------------------------------
#psi4
#
memory 32 gb

molecule  {
0 1
  O        0.8686370    -1.1285810     0.6753960
  N       -0.4170490     0.5891890    -0.1013730
  C       -1.6800190    -0.0563620     0.2358630
  C       -2.0872990    -1.0630810    -0.8349870
  C       -2.7390930     1.0113430     0.4650240
  C        0.7650312    -0.0219785     0.0856249
  C        1.9924560     0.7166710    -0.4292430
  C        3.3103714     0.0359573    -0.0912270
  H       -1.4931140    -0.5968520     1.1678280
  H       -0.4432210     1.3965910    -0.7180680
  H       -3.0167340    -1.5709650    -0.5578120
  H       -2.2433890    -0.5581650    -1.7943680
  H       -1.3035910    -1.8142070    -0.9546500
  H       -2.4287380     1.7063800     1.2494310
  H       -3.6863690     0.5519340     0.7608270
  H       -2.9190420     1.5806020    -0.4540200
  H        1.8890940     0.8204890    -1.5196510
  H        1.9757950     1.7355060    -0.0222730
  H        3.3123780    -0.9936500    -0.4915720
  H        4.1482470     0.5747890    -0.4771690
  H        3.4100600    -0.0687260     1.0041520
units angstrom
no_reorient  #important for SAPT in psi4, default
symmetry c1  #important for SAPT in psi4, default
}

set PROPERTIES_ORIGIN ["COM"]
properties('MP2/aug-cc-pvtz', properties = ['dipole'])
--------------------------------------------------------------------------

    Molecular point group: c1
  Charge       = 0
  Multiplicity = 1
  Basis Set: AUG-CC-PVTZ
    Blend: AUG-CC-PVTZ
  Basis Set: (AUG-CC-PVTZ AUX)
    Blend: AUG-CC-PVTZ-JKFIT

    Orbital Energies [Eh]
    ---------------------

    Doubly Occupied:

       1A    -20.507587     2A    -15.583534     3A    -11.344634
       4A    -11.267479     5A    -11.240459     6A    -11.225321
       7A    -11.214006     8A    -11.213026     9A     -1.354598
      10A     -1.233472    11A     -1.068053    12A     -1.031411
      13A     -0.941589    14A     -0.889454    15A     -0.811437
      16A     -0.783576    17A     -0.679723    18A     -0.655411
      19A     -0.634774    20A     -0.615009    21A     -0.588524
      22A     -0.577554    23A     -0.554297    24A     -0.546921
      25A     -0.524672    26A     -0.512677    27A     -0.508259
      28A     -0.495102    29A     -0.487534    30A     -0.474021
      31A     -0.414115    32A     -0.386696

  @DF-RHF Final Energy:  -364.24595667966759

   => Energetics <=

    Nuclear Repulsion Energy =            392.3420053832173835
    One-Electron Energy =               -1272.4460772292163711
    Two-Electron Energy =                 515.8581151663313449
    Total Energy =                       -364.2459566796676427
  Basis Set: (AUG-CC-PVTZ AUX)
    Blend: AUG-CC-PVTZ-RI
    Molecular point group: c1

    Geometry (in Angstrom), charge = 0, multiplicity = 1:

       Center              X                  Y                   Z               Mass
    ------------   -----------------  -----------------  -----------------  -----------------
         O            0.868891957046    -1.132532793296     0.677770341535    15.994914619570
         N           -0.416794042954     0.585237206704    -0.098998658465    14.003074004430
         C           -1.679764042954    -0.060313793296     0.238237341535    12.000000000000
         C           -2.087044042954    -1.067032793296    -0.832612658465    12.000000000000
         C           -2.738838042954     1.007391206704     0.467398341535    12.000000000000
         C            0.765286157046    -0.025930293296     0.087999241535    12.000000000000
         C            1.992710957046     0.712719206704    -0.426868658465    12.000000000000
         C            3.310626357046     0.032005506704    -0.088852658465    12.000000000000
         H           -1.492859042954    -0.600803793296     1.170202341535     1.007825032230
         H           -0.442966042954     1.392639206704    -0.715693658465     1.007825032230
         H           -3.016479042954    -1.574916793296    -0.555437658465     1.007825032230
         H           -2.243134042954    -0.562116793296    -1.791993658465     1.007825032230
         H           -1.303336042954    -1.818158793296    -0.952275658465     1.007825032230
         H           -2.428483042954     1.702428206704     1.251805341535     1.007825032230
         H           -3.686114042954     0.547982206704     0.763201341535     1.007825032230
         H           -2.918787042954     1.576650206704    -0.451645658465     1.007825032230
         H            1.889348957046     0.816537206704    -1.517276658465     1.007825032230
         H            1.976049957046     1.731554206704    -0.019898658465     1.007825032230
         H            3.312632957046    -0.997601793296    -0.489197658465     1.007825032230
         H            4.148501957046     0.570837206704    -0.474794658465     1.007825032230
         H            3.410314957046    -0.072677793296     1.006526341535     1.007825032230

  Basis Set: AUG-CC-PVTZ
    Blend: AUG-CC-PVTZ
  Basis Set: (AUG-CC-PVTZ AUX)
    Blend: AUG-CC-PVTZ-JKFIT
	 Reference Energy          =    -364.2459566796675858 [Eh]
	 Singles Energy            =      -0.0000000000000000 [Eh]
	 Same-Spin Energy          =      -0.3761690105872585 [Eh]
	 Opposite-Spin Energy      =      -1.2758966711009498 [Eh]
	 Correlation Energy        =      -1.6520656816882084 [Eh]
	 Total Energy              =    -365.8980223613557996 [Eh]

	 ================> DF-SCS-MP2 Energies <==================
	-----------------------------------------------------------
	 SCS Same-Spin Scale       =       0.3333333333333333 [-]
	 SCS Opposite-Spin Scale   =       1.2000000000000000 [-]
	 SCS Same-Spin Energy      =      -0.1253896701957528 [Eh]
	 SCS Opposite-Spin Energy  =      -1.5310760053211399 [Eh]
	 SCS Correlation Energy    =      -1.6564656755168927 [Eh]
	 SCS Total Energy          =    -365.9024223551844557 [Eh]
	-----------------------------------------------------------

  Dipole Moment: [D]
     X:    -1.4719      Y:     2.8604      Z:    -1.7065     Total:     3.6415

*** Psi4 exiting successfully. Buy a developer a beer!
