                               Psi4 1.3.2 release

  ==> Input File <==

--------------------------------------------------------------------------
#psi4
#
memory 32 gb

molecule  {
0 1
  O        0.8686370    -1.1285810     0.6753960
  N       -0.4170490     0.5891890    -0.1013730
  C       -1.6924741    -0.0356471     0.2279114
  C       -2.0872990    -1.0630810    -0.8349870
  C       -2.7390930     1.0113430     0.4650240
  C        0.7921553    -0.0214060     0.0873949
  C        1.9924560     0.7166710    -0.4292430
  C        3.2969670     0.0166800    -0.0788280
  H       -1.4931140    -0.5968520     1.1678280
  H       -0.4432210     1.3965910    -0.7180680
  H       -3.0167340    -1.5709650    -0.5578120
  H       -2.2433890    -0.5581650    -1.7943680
  H       -1.3035910    -1.8142070    -0.9546500
  H       -2.4287380     1.7063800     1.2494310
  H       -3.6863690     0.5519340     0.7608270
  H       -2.9190420     1.5806020    -0.4540200
  H        1.8890940     0.8204890    -1.5196510
  H        1.9757950     1.7355060    -0.0222730
  H        3.3123780    -0.9936500    -0.4915720
  H        4.1482470     0.5747890    -0.4771690
  H        3.4100600    -0.0687260     1.0041520
units angstrom
no_reorient  #important for SAPT in psi4, default
symmetry c1  #important for SAPT in psi4, default
}

set PROPERTIES_ORIGIN ["COM"]
properties('MP2/aug-cc-pvtz', properties = ['dipole'])
--------------------------------------------------------------------------

    Molecular point group: c1
  Charge       = 0
  Multiplicity = 1
  Basis Set: AUG-CC-PVTZ
    Blend: AUG-CC-PVTZ
  Basis Set: (AUG-CC-PVTZ AUX)
    Blend: AUG-CC-PVTZ-JKFIT

    Orbital Energies [Eh]
    ---------------------

    Doubly Occupied:

       1A    -20.510586     2A    -15.579855     3A    -11.346717
       4A    -11.266171     5A    -11.241687     6A    -11.223532
       7A    -11.214602     8A    -11.212612     9A     -1.355401
      10A     -1.226800    11A     -1.070339    12A     -1.032985
      13A     -0.941191    14A     -0.892041    15A     -0.807699
      16A     -0.776363    17A     -0.683373    18A     -0.651604
      19A     -0.637040    20A     -0.616195    21A     -0.589419
      22A     -0.576897    23A     -0.551511    24A     -0.545362
      25A     -0.524193    26A     -0.512277    27A     -0.510043
      28A     -0.498381    29A     -0.488818    30A     -0.470718
      31A     -0.417860    32A     -0.383706

  @DF-RHF Final Energy:  -364.24540141313662

   => Energetics <=

    Nuclear Repulsion Energy =            392.3405502476541074
    One-Electron Energy =               -1272.4599524166369520
    Two-Electron Energy =                 515.8740007558461684
    Total Energy =                       -364.2454014131366193
  Basis Set: (AUG-CC-PVTZ AUX)
    Blend: AUG-CC-PVTZ-RI
    Molecular point group: c1

    Geometry (in Angstrom), charge = 0, multiplicity = 1:

       Center              X                  Y                   Z               Mass
    ------------   -----------------  -----------------  -----------------  -----------------
         O            0.868760113104    -1.132742361150     0.677122131411    15.994914619570
         N           -0.416925886896     0.585027638850    -0.099646868589    14.003074004430
         C           -1.692350986896    -0.039808461150     0.229637531411    12.000000000000
         C           -2.087175886896    -1.067242361150    -0.833260868589    12.000000000000
         C           -2.738969886896     1.007181638850     0.466750131411    12.000000000000
         C            0.792278413104    -0.025567361150     0.089121031411    12.000000000000
         C            1.992579113104     0.712509638850    -0.427516868589    12.000000000000
         C            3.297090113104     0.012518638850    -0.077101868589    12.000000000000
         H           -1.492990886896    -0.601013361150     1.169554131411     1.007825032230
         H           -0.443097886896     1.392429638850    -0.716341868589     1.007825032230
         H           -3.016610886896    -1.575126361150    -0.556085868589     1.007825032230
         H           -2.243265886896    -0.562326361150    -1.792641868589     1.007825032230
         H           -1.303467886896    -1.818368361150    -0.952923868589     1.007825032230
         H           -2.428614886896     1.702218638850     1.251157131411     1.007825032230
         H           -3.686245886896     0.547772638850     0.762553131411     1.007825032230
         H           -2.918918886896     1.576440638850    -0.452293868589     1.007825032230
         H            1.889217113104     0.816327638850    -1.517924868589     1.007825032230
         H            1.975918113104     1.731344638850    -0.020546868589     1.007825032230
         H            3.312501113104    -0.997811361150    -0.489845868589     1.007825032230
         H            4.148370113104     0.570627638850    -0.475442868589     1.007825032230
         H            3.410183113104    -0.072887361150     1.005878131411     1.007825032230

  Basis Set: AUG-CC-PVTZ
    Blend: AUG-CC-PVTZ
  Basis Set: (AUG-CC-PVTZ AUX)
    Blend: AUG-CC-PVTZ-JKFIT
	 Reference Energy          =    -364.2454014131366193 [Eh]
	 Singles Energy            =      -0.0000000000000000 [Eh]
	 Same-Spin Energy          =      -0.3764797409360976 [Eh]
	 Opposite-Spin Energy      =      -1.2764095562232587 [Eh]
	 Correlation Energy        =      -1.6528892971593563 [Eh]
	 Total Energy              =    -365.8982907102959530 [Eh]

	 ================> DF-SCS-MP2 Energies <==================
	-----------------------------------------------------------
	 SCS Same-Spin Scale       =       0.3333333333333333 [-]
	 SCS Opposite-Spin Scale   =       1.2000000000000000 [-]
	 SCS Same-Spin Energy      =      -0.1254932469786992 [Eh]
	 SCS Opposite-Spin Energy  =      -1.5316914674679103 [Eh]
	 SCS Correlation Energy    =      -1.6571847144466094 [Eh]
	 SCS Total Energy          =    -365.9025861275832199 [Eh]
	-----------------------------------------------------------

  Dipole Moment: [D]
     X:    -1.2733      Y:     2.8333      Z:    -1.6845     Total:     3.5336

*** Psi4 exiting successfully. Buy a developer a beer!
