                               Psi4 1.3.2 release

  ==> Input File <==

--------------------------------------------------------------------------
#psi4
#
memory 32 gb

molecule  {
0 1
  O        0.8686370    -1.1285810     0.6753960
  N       -0.4170490     0.5891890    -0.1013730
  C       -1.6800190    -0.0563620     0.2358630
  C       -2.0872990    -1.0630810    -0.8349870
  C       -2.7390930     1.0113430     0.4650240
  C        0.7808810    -0.0406060     0.0960010
  C        1.9924560     0.7166710    -0.4292430
  C        3.2969670     0.0166800    -0.0788280
  H       -1.4931140    -0.5968520     1.1678280
  H       -0.4457962     1.4760351    -0.7787475
  H       -3.0167340    -1.5709650    -0.5578120
  H       -2.2433890    -0.5581650    -1.7943680
  H       -1.3035910    -1.8142070    -0.9546500
  H       -2.4287380     1.7063800     1.2494310
  H       -3.6863690     0.5519340     0.7608270
  H       -2.9190420     1.5806020    -0.4540200
  H        1.8890940     0.8204890    -1.5196510
  H        1.9757950     1.7355060    -0.0222730
  H        3.3123780    -0.9936500    -0.4915720
  H        4.1482470     0.5747890    -0.4771690
  H        3.4100600    -0.0687260     1.0041520
units angstrom
no_reorient  #important for SAPT in psi4, default
symmetry c1  #important for SAPT in psi4, default
}

set PROPERTIES_ORIGIN ["COM"]
properties('MP2/aug-cc-pvtz', properties = ['dipole'])
--------------------------------------------------------------------------

    Molecular point group: c1
  Charge       = 0
  Multiplicity = 1
  Basis Set: AUG-CC-PVTZ
    Blend: AUG-CC-PVTZ
  Basis Set: (AUG-CC-PVTZ AUX)
    Blend: AUG-CC-PVTZ-JKFIT

    Orbital Energies [Eh]
    ---------------------

    Doubly Occupied:

       1A    -20.513333     2A    -15.587127     3A    -11.344796
       4A    -11.265242     5A    -11.239768     6A    -11.223295
       7A    -11.213080     8A    -11.212312     9A     -1.366419
      10A     -1.219633    11A     -1.065182    12A     -1.027917
      13A     -0.939506    14A     -0.886900    15A     -0.806141
      16A     -0.760653    17A     -0.680783    18A     -0.648833
      19A     -0.634563    20A     -0.613448    21A     -0.590903
      22A     -0.574580    23A     -0.549619    24A     -0.545160
      25A     -0.525171    26A     -0.512271    27A     -0.507648
      28A     -0.496503    29A     -0.487538    30A     -0.476951
      31A     -0.416693    32A     -0.384505

  @DF-RHF Final Energy:  -364.23822304783471

   => Energetics <=

    Nuclear Repulsion Energy =            391.9351041929225516
    One-Electron Energy =               -1271.7137080299944500
    Two-Electron Energy =                 515.5403807892371333
    Total Energy =                       -364.2382230478347083
  Basis Set: (AUG-CC-PVTZ AUX)
    Blend: AUG-CC-PVTZ-RI
    Molecular point group: c1

    Geometry (in Angstrom), charge = 0, multiplicity = 1:

       Center              X                  Y                   Z               Mass
    ------------   -----------------  -----------------  -----------------  -----------------
         O            0.868659554653    -1.129276557167     0.675927184211    15.994914619570
         N           -0.417026445347     0.588493442833    -0.100841815789    14.003074004430
         C           -1.679996445347    -0.057057557167     0.236394184211    12.000000000000
         C           -2.087276445347    -1.063776557167    -0.834455815789    12.000000000000
         C           -2.739070445347     1.010647442833     0.465555184211    12.000000000000
         C            0.780903554653    -0.041301557167     0.096532184211    12.000000000000
         C            1.992478554653     0.715975442833    -0.428711815789    12.000000000000
         C            3.296989554653     0.015984442833    -0.078296815789    12.000000000000
         H           -1.493091445347    -0.597547557167     1.168359184211     1.007825032230
         H           -0.445773645347     1.475339542833    -0.778216315789     1.007825032230
         H           -3.016711445347    -1.571660557167    -0.557280815789     1.007825032230
         H           -2.243366445347    -0.558860557167    -1.793836815789     1.007825032230
         H           -1.303568445347    -1.814902557167    -0.954118815789     1.007825032230
         H           -2.428715445347     1.705684442833     1.249962184211     1.007825032230
         H           -3.686346445347     0.551238442833     0.761358184211     1.007825032230
         H           -2.919019445347     1.579906442833    -0.453488815789     1.007825032230
         H            1.889116554653     0.819793442833    -1.519119815789     1.007825032230
         H            1.975817554653     1.734810442833    -0.021741815789     1.007825032230
         H            3.312400554653    -0.994345557167    -0.491040815789     1.007825032230
         H            4.148269554653     0.574093442833    -0.476637815789     1.007825032230
         H            3.410082554653    -0.069421557167     1.004683184211     1.007825032230

  Basis Set: AUG-CC-PVTZ
    Blend: AUG-CC-PVTZ
  Basis Set: (AUG-CC-PVTZ AUX)
    Blend: AUG-CC-PVTZ-JKFIT
	 Reference Energy          =    -364.2382230478347083 [Eh]
	 Singles Energy            =      -0.0000000000000000 [Eh]
	 Same-Spin Energy          =      -0.3766020119314059 [Eh]
	 Opposite-Spin Energy      =      -1.2771998786153334 [Eh]
	 Correlation Energy        =      -1.6538018905467393 [Eh]
	 Total Energy              =    -365.8920249383814394 [Eh]

	 ================> DF-SCS-MP2 Energies <==================
	-----------------------------------------------------------
	 SCS Same-Spin Scale       =       0.3333333333333333 [-]
	 SCS Opposite-Spin Scale   =       1.2000000000000000 [-]
	 SCS Same-Spin Energy      =      -0.1255340039771353 [Eh]
	 SCS Opposite-Spin Energy  =      -1.5326398543383999 [Eh]
	 SCS Correlation Energy    =      -1.6581738583155352 [Eh]
	 SCS Total Energy          =    -365.8963969061502439 [Eh]
	-----------------------------------------------------------

  Dipole Moment: [D]
     X:    -1.3164      Y:     2.7722      Z:    -1.6743     Total:     3.4958

*** Psi4 exiting successfully. Buy a developer a beer!
