                               Psi4 1.3.2 release

  ==> Input File <==

--------------------------------------------------------------------------
#psi4
#
memory 32 gb

molecule  {
0 1
  O        0.8579153    -1.1287862     0.6765343
  N       -0.4170490     0.5891890    -0.1013730
  C       -1.6800190    -0.0563620     0.2358630
  C       -2.0872990    -1.0630810    -0.8349870
  C       -2.7390930     1.0113430     0.4650240
  C        0.7808810    -0.0406060     0.0960010
  C        1.9844453     0.7262964    -0.4336757
  C        3.2969670     0.0166800    -0.0788280
  H       -1.4931140    -0.5968520     1.1678280
  H       -0.4432210     1.3965910    -0.7180680
  H       -3.0167340    -1.5709650    -0.5578120
  H       -2.2433890    -0.5581650    -1.7943680
  H       -1.3035910    -1.8142070    -0.9546500
  H       -2.4287380     1.7063800     1.2494310
  H       -3.6863690     0.5519340     0.7608270
  H       -2.9190420     1.5806020    -0.4540200
  H        1.8890940     0.8204890    -1.5196510
  H        1.9757950     1.7355060    -0.0222730
  H        3.3123780    -0.9936500    -0.4915720
  H        4.1482470     0.5747890    -0.4771690
  H        3.4100600    -0.0687260     1.0041520
units angstrom
no_reorient  #important for SAPT in psi4, default
symmetry c1  #important for SAPT in psi4, default
}

set PROPERTIES_ORIGIN ["COM"]
properties('MP2/aug-cc-pvtz', properties = ['dipole'])
--------------------------------------------------------------------------

    Molecular point group: c1
  Charge       = 0
  Multiplicity = 1
  Basis Set: AUG-CC-PVTZ
    Blend: AUG-CC-PVTZ
  Basis Set: (AUG-CC-PVTZ AUX)
    Blend: AUG-CC-PVTZ-JKFIT

    Orbital Energies [Eh]
    ---------------------

    Doubly Occupied:

       1A    -20.513656     2A    -15.577645     3A    -11.344965
       4A    -11.264444     5A    -11.240180     6A    -11.223178
       7A    -11.214389     8A    -11.212240     9A     -1.367327
      10A     -1.228031    11A     -1.065894    12A     -1.028592
      13A     -0.939579    14A     -0.888058    15A     -0.808256
      16A     -0.778203    17A     -0.682596    18A     -0.653392
      19A     -0.636450    20A     -0.613598    21A     -0.593347
      22A     -0.578039    23A     -0.548596    24A     -0.545086
      25A     -0.525439    26A     -0.513473    27A     -0.506770
      28A     -0.497923    29A     -0.488483    30A     -0.477654
      31A     -0.417732    32A     -0.385361

  @DF-RHF Final Energy:  -364.24904129709870

   => Energetics <=

    Nuclear Repulsion Energy =            392.4824770281658743
    One-Electron Energy =               -1272.7458863202891735
    Two-Electron Energy =                 516.0143679950245996
    Total Energy =                       -364.2490412970986426
  Basis Set: (AUG-CC-PVTZ AUX)
    Blend: AUG-CC-PVTZ-RI
    Molecular point group: c1

    Geometry (in Angstrom), charge = 0, multiplicity = 1:

       Center              X                  Y                   Z               Mass
    ------------   -----------------  -----------------  -----------------  -----------------
         O            0.860240429661    -1.129761140058     0.676838125433    15.994914619570
         N           -0.414723870339     0.588214059942    -0.101069174567    14.003074004430
         C           -1.677693870339    -0.057336940058     0.236166825433    12.000000000000
         C           -2.084973870339    -1.064055940058    -0.834683174567    12.000000000000
         C           -2.736767870339     1.010368059942     0.465327825433    12.000000000000
         C            0.783206129661    -0.041580940058     0.096304825433    12.000000000000
         C            1.986770429661     0.725321459942    -0.433371874567    12.000000000000
         C            3.299292129661     0.015705059942    -0.078524174567    12.000000000000
         H           -1.490788870339    -0.597826940058     1.168131825433     1.007825032230
         H           -0.440895870339     1.395616059942    -0.717764174567     1.007825032230
         H           -3.014408870339    -1.571939940058    -0.557508174567     1.007825032230
         H           -2.241063870339    -0.559139940058    -1.794064174567     1.007825032230
         H           -1.301265870339    -1.815181940058    -0.954346174567     1.007825032230
         H           -2.426412870339     1.705405059942     1.249734825433     1.007825032230
         H           -3.684043870339     0.550959059942     0.761130825433     1.007825032230
         H           -2.916716870339     1.579627059942    -0.453716174567     1.007825032230
         H            1.891419129661     0.819514059942    -1.519347174567     1.007825032230
         H            1.978120129661     1.734531059942    -0.021969174567     1.007825032230
         H            3.314703129661    -0.994624940058    -0.491268174567     1.007825032230
         H            4.150572129661     0.573814059942    -0.476865174567     1.007825032230
         H            3.412385129661    -0.069700940058     1.004455825433     1.007825032230

  Basis Set: AUG-CC-PVTZ
    Blend: AUG-CC-PVTZ
  Basis Set: (AUG-CC-PVTZ AUX)
    Blend: AUG-CC-PVTZ-JKFIT
	 Reference Energy          =    -364.2490412970986995 [Eh]
	 Singles Energy            =      -0.0000000000000000 [Eh]
	 Same-Spin Energy          =      -0.3757510855192652 [Eh]
	 Opposite-Spin Energy      =      -1.2751808056335385 [Eh]
	 Correlation Energy        =      -1.6509318911528037 [Eh]
	 Total Energy              =    -365.8999731882515221 [Eh]

	 ================> DF-SCS-MP2 Energies <==================
	-----------------------------------------------------------
	 SCS Same-Spin Scale       =       0.3333333333333333 [-]
	 SCS Opposite-Spin Scale   =       1.2000000000000000 [-]
	 SCS Same-Spin Energy      =      -0.1252503618397550 [Eh]
	 SCS Opposite-Spin Energy  =      -1.5302169667602461 [Eh]
	 SCS Correlation Energy    =      -1.6554673286000012 [Eh]
	 SCS Total Energy          =    -365.9045086256987247 [Eh]
	-----------------------------------------------------------

  Dipole Moment: [D]
     X:    -1.2610      Y:     2.7310      Z:    -1.6456     Total:     3.4288

*** Psi4 exiting successfully. Buy a developer a beer!
