                               Psi4 1.3.2 release

  ==> Input File <==

--------------------------------------------------------------------------
#psi4
#
memory 32 gb

molecule  {
0 1
  O        0.8686370    -1.1285810     0.6753960
  N       -0.4170490     0.5891890    -0.1013730
  C       -1.6671792    -0.0768803     0.2437119
  C       -2.0872990    -1.0630810    -0.8349870
  C       -2.7390930     1.0113430     0.4650240
  C        0.7692418    -0.0596142     0.1045470
  C        1.9924560     0.7166710    -0.4292430
  C        3.2969670     0.0166800    -0.0788280
  H       -1.4931140    -0.5968520     1.1678280
  H       -0.4432210     1.3965910    -0.7180680
  H       -3.0167340    -1.5709650    -0.5578120
  H       -2.2433890    -0.5581650    -1.7943680
  H       -1.3035910    -1.8142070    -0.9546500
  H       -2.4287380     1.7063800     1.2494310
  H       -3.6863690     0.5519340     0.7608270
  H       -2.9190420     1.5806020    -0.4540200
  H        1.8890940     0.8204890    -1.5196510
  H        1.9757950     1.7355060    -0.0222730
  H        3.3123780    -0.9936500    -0.4915720
  H        4.1482470     0.5747890    -0.4771690
  H        3.4100600    -0.0687260     1.0041520
units angstrom
no_reorient  #important for SAPT in psi4, default
symmetry c1  #important for SAPT in psi4, default
}

set PROPERTIES_ORIGIN ["COM"]
properties('MP2/aug-cc-pvtz', properties = ['dipole'])
--------------------------------------------------------------------------

    Molecular point group: c1
  Charge       = 0
  Multiplicity = 1
  Basis Set: AUG-CC-PVTZ
    Blend: AUG-CC-PVTZ
  Basis Set: (AUG-CC-PVTZ AUX)
    Blend: AUG-CC-PVTZ-JKFIT

    Orbital Energies [Eh]
    ---------------------

    Doubly Occupied:

       1A    -20.516382     2A    -15.577015     3A    -11.343151
       4A    -11.263977     5A    -11.238649     6A    -11.223429
       7A    -11.212607     8A    -11.212356     9A     -1.379645
      10A     -1.230316    11A     -1.062216    12A     -1.026897
      13A     -0.938531    14A     -0.883749    15A     -0.809201
      16A     -0.779821    17A     -0.681849    18A     -0.655975
      19A     -0.634230    20A     -0.611467    21A     -0.598027
      22A     -0.579529    23A     -0.547960    24A     -0.545423
      25A     -0.527610    26A     -0.513509    27A     -0.508747
      28A     -0.497618    29A     -0.486009    30A     -0.481247
      31A     -0.415463    32A     -0.387524

  @DF-RHF Final Energy:  -364.24960460158252

   => Energetics <=

    Nuclear Repulsion Energy =            392.6671160114734676
    One-Electron Energy =               -1273.0931883992111580
    Two-Electron Energy =                 516.1764677861551718
    Total Energy =                       -364.2496046015825186
  Basis Set: (AUG-CC-PVTZ AUX)
    Blend: AUG-CC-PVTZ-RI
    Molecular point group: c1

    Geometry (in Angstrom), charge = 0, multiplicity = 1:

       Center              X                  Y                   Z               Mass
    ------------   -----------------  -----------------  -----------------  -----------------
         O            0.868511834468    -1.124460005212     0.673686578132    15.994914619570
         N           -0.417174165532     0.593309994788    -0.103082421868    14.003074004430
         C           -1.667304365532    -0.072759305212     0.242002478132    12.000000000000
         C           -2.087424165532    -1.058960005212    -0.836696421868    12.000000000000
         C           -2.739218165532     1.015463994788     0.463314578132    12.000000000000
         C            0.769116634468    -0.055493205212     0.102837578132    12.000000000000
         C            1.992330834468     0.720791994788    -0.430952421868    12.000000000000
         C            3.296841834468     0.020800994788    -0.080537421868    12.000000000000
         H           -1.493239165532    -0.592731005212     1.166118578132     1.007825032230
         H           -0.443346165532     1.400711994788    -0.719777421868     1.007825032230
         H           -3.016859165532    -1.566844005212    -0.559521421868     1.007825032230
         H           -2.243514165532    -0.554044005212    -1.796077421868     1.007825032230
         H           -1.303716165532    -1.810086005212    -0.956359421868     1.007825032230
         H           -2.428863165532     1.710500994788     1.247721578132     1.007825032230
         H           -3.686494165532     0.556054994788     0.759117578132     1.007825032230
         H           -2.919167165532     1.584722994788    -0.455729421868     1.007825032230
         H            1.888968834468     0.824609994788    -1.521360421868     1.007825032230
         H            1.975669834468     1.739626994788    -0.023982421868     1.007825032230
         H            3.312252834468    -0.989529005212    -0.493281421868     1.007825032230
         H            4.148121834468     0.578909994788    -0.478878421868     1.007825032230
         H            3.409934834468    -0.064605005212     1.002442578132     1.007825032230

  Basis Set: AUG-CC-PVTZ
    Blend: AUG-CC-PVTZ
  Basis Set: (AUG-CC-PVTZ AUX)
    Blend: AUG-CC-PVTZ-JKFIT
	 Reference Energy          =    -364.2496046015825186 [Eh]
	 Singles Energy            =      -0.0000000000000000 [Eh]
	 Same-Spin Energy          =      -0.3751945402506232 [Eh]
	 Opposite-Spin Energy      =      -1.2741463516405087 [Eh]
	 Correlation Energy        =      -1.6493408918911319 [Eh]
	 Total Energy              =    -365.8989454934736614 [Eh]

	 ================> DF-SCS-MP2 Energies <==================
	-----------------------------------------------------------
	 SCS Same-Spin Scale       =       0.3333333333333333 [-]
	 SCS Opposite-Spin Scale   =       1.2000000000000000 [-]
	 SCS Same-Spin Energy      =      -0.1250648467502077 [Eh]
	 SCS Opposite-Spin Energy  =      -1.5289756219686104 [Eh]
	 SCS Correlation Energy    =      -1.6540404687188182 [Eh]
	 SCS Total Energy          =    -365.9036450703013088 [Eh]
	-----------------------------------------------------------

  Dipole Moment: [D]
     X:    -1.3181      Y:     2.6162      Z:    -1.5971     Total:     3.3366

*** Psi4 exiting successfully. Buy a developer a beer!
