                               Psi4 1.3.2 release

  ==> Input File <==

--------------------------------------------------------------------------
#psi4
#
memory 32 gb

molecule  {
0 1
  O        0.8258050    -1.1284688     0.6804886
  N       -0.4387991     0.5529820    -0.0791229
  C       -1.6800190    -0.0563620     0.2358630
  C       -2.0872990    -1.0630810    -0.8349870
  C       -2.7390930     1.0113430     0.4650240
  C        0.7808810    -0.0406060     0.0960010
  C        1.9924560     0.7166710    -0.4292430
  C        3.2969670     0.0166800    -0.0788280
  H       -1.4931140    -0.5968520     1.1678280
  H       -0.4432210     1.3965910    -0.7180680
  H       -3.0167340    -1.5709650    -0.5578120
  H       -2.2433890    -0.5581650    -1.7943680
  H       -1.3035910    -1.8142070    -0.9546500
  H       -2.4287380     1.7063800     1.2494310
  H       -3.6863690     0.5519340     0.7608270
  H       -2.9190420     1.5806020    -0.4540200
  H        1.8890940     0.8204890    -1.5196510
  H        1.9757950     1.7355060    -0.0222730
  H        3.3123780    -0.9936500    -0.4915720
  H        4.1482470     0.5747890    -0.4771690
  H        3.4100600    -0.0687260     1.0041520
units angstrom
no_reorient  #important for SAPT in psi4, default
symmetry c1  #important for SAPT in psi4, default
}

set PROPERTIES_ORIGIN ["COM"]
properties('MP2/aug-cc-pvtz', properties = ['dipole'])
--------------------------------------------------------------------------

    Molecular point group: c1
  Charge       = 0
  Multiplicity = 1
  Basis Set: AUG-CC-PVTZ
    Blend: AUG-CC-PVTZ
  Basis Set: (AUG-CC-PVTZ AUX)
    Blend: AUG-CC-PVTZ-JKFIT

    Orbital Energies [Eh]
    ---------------------

    Doubly Occupied:

       1A    -20.511225     2A    -15.578621     3A    -11.344949
       4A    -11.260074     5A    -11.245185     6A    -11.222109
       7A    -11.216633     8A    -11.209902     9A     -1.368858
      10A     -1.229008    11A     -1.067207    12A     -1.029643
      13A     -0.938384    14A     -0.891815    15A     -0.812334
      16A     -0.767635    17A     -0.684336    18A     -0.652871
      19A     -0.637444    20A     -0.614238    21A     -0.592654
      22A     -0.574306    23A     -0.551073    24A     -0.543711
      25A     -0.525274    26A     -0.515146    27A     -0.513904
      28A     -0.498186    29A     -0.486754    30A     -0.475036
      31A     -0.418285    32A     -0.379999

  @DF-RHF Final Energy:  -364.24415355972303

   => Energetics <=

    Nuclear Repulsion Energy =            393.2255069588232459
    One-Electron Energy =               -1274.2257247373945575
    Two-Electron Energy =                 516.7560642188483371
    Total Energy =                       -364.2441535597230313
  Basis Set: (AUG-CC-PVTZ AUX)
    Blend: AUG-CC-PVTZ-RI
    Molecular point group: c1

    Geometry (in Angstrom), charge = 0, multiplicity = 1:

       Center              X                  Y                   Z               Mass
    ------------   -----------------  -----------------  -----------------  -----------------
         O            0.834403310901    -1.124079371261     0.677073815953    15.994914619570
         N           -0.430200789099     0.557371428739    -0.082537684047    14.003074004430
         C           -1.671420689099    -0.051972571261     0.232448215953    12.000000000000
         C           -2.078700689099    -1.058691571261    -0.838401784047    12.000000000000
         C           -2.730494689099     1.015732428739     0.461609215953    12.000000000000
         C            0.789479310901    -0.036216571261     0.092586215953    12.000000000000
         C            2.001054310901     0.721060428739    -0.432657784047    12.000000000000
         C            3.305565310901     0.021069428739    -0.082242784047    12.000000000000
         H           -1.484515689099    -0.592462571261     1.164413215953     1.007825032230
         H           -0.434622689099     1.400980428739    -0.721482784047     1.007825032230
         H           -3.008135689099    -1.566575571261    -0.561226784047     1.007825032230
         H           -2.234790689099    -0.553775571261    -1.797782784047     1.007825032230
         H           -1.294992689099    -1.809817571261    -0.958064784047     1.007825032230
         H           -2.420139689099     1.710769428739     1.246016215953     1.007825032230
         H           -3.677770689099     0.556323428739     0.757412215953     1.007825032230
         H           -2.910443689099     1.584991428739    -0.457434784047     1.007825032230
         H            1.897692310901     0.824878428739    -1.523065784047     1.007825032230
         H            1.984393310901     1.739895428739    -0.025687784047     1.007825032230
         H            3.320976310901    -0.989260571261    -0.494986784047     1.007825032230
         H            4.156845310901     0.579178428739    -0.480583784047     1.007825032230
         H            3.418658310901    -0.064336571261     1.000737215953     1.007825032230

  Basis Set: AUG-CC-PVTZ
    Blend: AUG-CC-PVTZ
  Basis Set: (AUG-CC-PVTZ AUX)
    Blend: AUG-CC-PVTZ-JKFIT
	 Reference Energy          =    -364.2441535597230313 [Eh]
	 Singles Energy            =      -0.0000000000000000 [Eh]
	 Same-Spin Energy          =      -0.3764231859473195 [Eh]
	 Opposite-Spin Energy      =      -1.2759807321967052 [Eh]
	 Correlation Energy        =      -1.6524039181440247 [Eh]
	 Total Energy              =    -365.8965574778670771 [Eh]

	 ================> DF-SCS-MP2 Energies <==================
	-----------------------------------------------------------
	 SCS Same-Spin Scale       =       0.3333333333333333 [-]
	 SCS Opposite-Spin Scale   =       1.2000000000000000 [-]
	 SCS Same-Spin Energy      =      -0.1254743953157731 [Eh]
	 SCS Opposite-Spin Energy  =      -1.5311768786360462 [Eh]
	 SCS Correlation Energy    =      -1.6566512739518193 [Eh]
	 SCS Total Energy          =    -365.9008048336748402 [Eh]
	-----------------------------------------------------------

  Dipole Moment: [D]
     X:    -1.0403      Y:     2.7956      Z:    -1.6697     Total:     3.4184

*** Psi4 exiting successfully. Buy a developer a beer!
