                               Psi4 1.4a3.dev225

  ==> Input File <==

--------------------------------------------------------------------------
#psi4
#
memory 32 gb

molecule  {
0 1
  O        0.8665680     1.1680080    -0.7351460
  N       -0.3660760    -0.5086790     0.1929010
  C       -1.6441200     0.0174450    -0.2761400
  C       -2.1412550     1.1442230     0.6252270
  C       -2.6427120    -1.1266550    -0.3840140
  C        0.8087832     0.1965896    -0.0581190
  C        2.0309430    -0.4326950     0.6540710
  C        3.2825740    -0.2523450    -0.1975960
  H       -1.4466230     0.4281070    -1.2709490
  H       -0.3785050    -1.2608410     0.8714320
  H       -3.0785860     1.5617170     0.2436050
  H       -2.3175770     0.7713190     1.6396860
  H       -1.3960540     1.9417130     0.6641920
  H       -2.2693050    -1.9092940    -1.0497770
  H       -3.5969080    -0.7634960    -0.7753550
  H       -2.8341330    -1.5678230     0.6011330
  H        2.1523320     0.0883960     1.6122110
  H        1.8656800    -1.4909910     0.8873090
  H        3.4076760     0.8004350    -0.4533700
  H        4.1701610    -0.5986810     0.3385000
  H        3.2011700    -0.8174180    -1.1296580
units angstrom
no_reorient  #important for SAPT in psi4, default
symmetry c1  #important for SAPT in psi4, default
}

set PROPERTIES_ORIGIN ["COM"]
properties('MP2/aug-cc-pvtz', properties = ['dipole'])
--------------------------------------------------------------------------

    Molecular point group: c1
  Charge       = 0
  Multiplicity = 1
  Basis Set: AUG-CC-PVTZ
    Blend: AUG-CC-PVTZ
  Basis Set: (AUG-CC-PVTZ AUX)
    Blend: AUG-CC-PVTZ-JKFIT

    Orbital Energies [Eh]
    ---------------------

    Doubly Occupied:

       1A    -20.521360     2A    -15.572816     3A    -11.343267
       4A    -11.262626     5A    -11.237866     6A    -11.222292
       7A    -11.214907     8A    -11.211186     9A     -1.400207
      10A     -1.224011    11A     -1.060948    12A     -1.026132
      13A     -0.938497    14A     -0.881885    15A     -0.804846
      16A     -0.776638    17A     -0.685770    18A     -0.657631
      19A     -0.625661    20A     -0.614860    21A     -0.606345
      22A     -0.579553    23A     -0.555092    24A     -0.543564
      25A     -0.528959    26A     -0.518533    27A     -0.508133
      28A     -0.496280    29A     -0.489035    30A     -0.480368
      31A     -0.414203    32A     -0.386161

  @DF-RHF Final Energy:  -364.24891317722387

   => Energetics <=

    Nuclear Repulsion Energy =            392.7701605250483112
    One-Electron Energy =               -1273.2588873556776434
    Two-Electron Energy =                 516.2398136534053492
    Total Energy =                       -364.2489131772239261
  Basis Set: (AUG-CC-PVTZ AUX)
    Blend: AUG-CC-PVTZ-RI
    Molecular point group: c1

    Geometry (in Angstrom), charge = 0, multiplicity = 1:

       Center              X                  Y                   Z               Mass
    ------------   -----------------  -----------------  -----------------  -----------------
         O            0.844633506642     1.139519912224    -0.713423677570    15.994914619570
         N           -0.388010493358    -0.537167087776     0.214623322430    14.003074004430
         C           -1.666054493358    -0.011043087776    -0.254417677570    12.000000000000
         C           -2.163189493358     1.115734912224     0.646949322430    12.000000000000
         C           -2.664646493358    -1.155143087776    -0.362291677570    12.000000000000
         C            0.786848706642     0.168101512224    -0.036396677570    12.000000000000
         C            2.009008506642    -0.461183087776     0.675793322430    12.000000000000
         C            3.260639506642    -0.280833087776    -0.175873677570    12.000000000000
         H           -1.468557493358     0.399618912224    -1.249226677570     1.007825032230
         H           -0.400439493358    -1.289329087776     0.893154322430     1.007825032230
         H           -3.100520493358     1.533228912224     0.265327322430     1.007825032230
         H           -2.339511493358     0.742830912224     1.661408322430     1.007825032230
         H           -1.417988493358     1.913224912224     0.685914322430     1.007825032230
         H           -2.291239493358    -1.937782087776    -1.028054677570     1.007825032230
         H           -3.618842493358    -0.791984087776    -0.753632677570     1.007825032230
         H           -2.856067493358    -1.596311087776     0.622855322430     1.007825032230
         H            2.130397506642     0.059907912224     1.633933322430     1.007825032230
         H            1.843745506642    -1.519479087776     0.909031322430     1.007825032230
         H            3.385741506642     0.771946912224    -0.431647677570     1.007825032230
         H            4.148226506642    -0.627169087776     0.360222322430     1.007825032230
         H            3.179235506642    -0.845906087776    -1.107935677570     1.007825032230

  Basis Set: AUG-CC-PVTZ
    Blend: AUG-CC-PVTZ
  Basis Set: (AUG-CC-PVTZ AUX)
    Blend: AUG-CC-PVTZ-JKFIT
	 Reference Energy          =    -364.2489131772238693 [Eh]
	 Singles Energy            =      -0.0000000000000000 [Eh]
	 Same-Spin Energy          =      -0.3748655546299658 [Eh]
	 Opposite-Spin Energy      =      -1.2733639424122922 [Eh]
	 Correlation Energy        =      -1.6482294970422582 [Eh]
	 Total Energy              =    -365.8971426742661492 [Eh]

	 ================> DF-SCS-MP2 Energies <==================
	-----------------------------------------------------------
	 SCS Same-Spin Scale       =       0.3333333333333333 [-]
	 SCS Opposite-Spin Scale   =       1.2000000000000000 [-]
	 SCS Same-Spin Energy      =      -0.1249551848766553 [Eh]
	 SCS Opposite-Spin Energy  =      -1.5280367308947507 [Eh]
	 SCS Correlation Energy    =      -1.6529919157714059 [Eh]
	 SCS Total Energy          =    -365.9019050929952641 [Eh]
	-----------------------------------------------------------

  Dipole Moment: [D]
     X:    -1.1171      Y:    -2.3403      Z:     1.7368     Total:     3.1212

*** Psi4 exiting successfully. Buy a developer a beer!
