                               Psi4 1.3.2 release

  ==> Input File <==

--------------------------------------------------------------------------
#psi4
#
memory 32 gb

molecule  {
0 1
  O        0.8686370    -1.1285810     0.6753960
  N       -0.4170490     0.5891890    -0.1013730
  C       -1.6800190    -0.0563620     0.2358630
  C       -2.0872990    -1.0630810    -0.8349870
  C       -2.7390930     1.0113430     0.4650240
  C        0.7857401    -0.0397109     0.1083321
  C        1.9924560     0.7166710    -0.4292430
  C        3.2969670     0.0166800    -0.0788280
  H       -1.4931140    -0.5968520     1.1678280
  H       -0.4432210     1.3965910    -0.7180680
  H       -3.0167340    -1.5709650    -0.5578120
  H       -2.2433890    -0.5581650    -1.7943680
  H       -1.3035910    -1.8142070    -0.9546500
  H       -2.4287380     1.7063800     1.2494310
  H       -3.6863690     0.5519340     0.7608270
  H       -2.9190420     1.5806020    -0.4540200
  H        1.8974453     0.8252161    -1.5199503
  H        1.9757950     1.7355060    -0.0222730
  H        3.3123780    -0.9936500    -0.4915720
  H        4.1482470     0.5747890    -0.4771690
  H        3.4100600    -0.0687260     1.0041520
units angstrom
no_reorient  #important for SAPT in psi4, default
symmetry c1  #important for SAPT in psi4, default
}

set PROPERTIES_ORIGIN ["COM"]
properties('MP2/aug-cc-pvtz', properties = ['dipole'])
--------------------------------------------------------------------------

    Molecular point group: c1
  Charge       = 0
  Multiplicity = 1
  Basis Set: AUG-CC-PVTZ
    Blend: AUG-CC-PVTZ
  Basis Set: (AUG-CC-PVTZ AUX)
    Blend: AUG-CC-PVTZ-JKFIT

    Orbital Energies [Eh]
    ---------------------

    Doubly Occupied:

       1A    -20.514952     2A    -15.577108     3A    -11.345231
       4A    -11.264404     5A    -11.240240     6A    -11.223030
       7A    -11.213557     8A    -11.212125     9A     -1.370513
      10A     -1.227266    11A     -1.065756    12A     -1.029442
      13A     -0.939442    14A     -0.887449    15A     -0.807393
      16A     -0.777253    17A     -0.683490    18A     -0.653156
      19A     -0.635219    20A     -0.613297    21A     -0.595236
      22A     -0.578129    23A     -0.549440    24A     -0.544984
      25A     -0.525843    26A     -0.513483    27A     -0.509003
      28A     -0.496553    29A     -0.488008    30A     -0.477668
      31A     -0.418124    32A     -0.385268

  @DF-RHF Final Energy:  -364.24937137364560

   => Energetics <=

    Nuclear Repulsion Energy =            392.4723667867048107
    One-Electron Energy =               -1272.7193509243002154
    Two-Electron Energy =                 515.9976127639497463
    Total Energy =                       -364.2493713736456584
  Basis Set: (AUG-CC-PVTZ AUX)
    Blend: AUG-CC-PVTZ-RI
    Molecular point group: c1

    Geometry (in Angstrom), charge = 0, multiplicity = 1:

       Center              X                  Y                   Z               Mass
    ------------   -----------------  -----------------  -----------------  -----------------
         O            0.868057283824    -1.128715648189     0.674112880164    15.994914619570
         N           -0.417628716176     0.589054351811    -0.102656119836    14.003074004430
         C           -1.680598716176    -0.056496648189     0.234579880164    12.000000000000
         C           -2.087878716176    -1.063215648189    -0.836270119836    12.000000000000
         C           -2.739672716176     1.011208351811     0.463740880164    12.000000000000
         C            0.785160383824    -0.039845548189     0.107048980164    12.000000000000
         C            1.991876283824     0.716536351811    -0.430526119836    12.000000000000
         C            3.296387283824     0.016545351811    -0.080111119836    12.000000000000
         H           -1.493693716176    -0.596986648189     1.166544880164     1.007825032230
         H           -0.443800716176     1.396456351811    -0.719351119836     1.007825032230
         H           -3.017313716176    -1.571099648189    -0.559095119836     1.007825032230
         H           -2.243968716176    -0.558299648189    -1.795651119836     1.007825032230
         H           -1.304170716176    -1.814341648189    -0.955933119836     1.007825032230
         H           -2.429317716176     1.706245351811     1.248147880164     1.007825032230
         H           -3.686948716176     0.551799351811     0.759543880164     1.007825032230
         H           -2.919621716176     1.580467351811    -0.455303119836     1.007825032230
         H            1.896865583824     0.825081451811    -1.521233419836     1.007825032230
         H            1.975215283824     1.735371351811    -0.023556119836     1.007825032230
         H            3.311798283824    -0.993784648189    -0.492855119836     1.007825032230
         H            4.147667283824     0.574654351811    -0.478452119836     1.007825032230
         H            3.409480283824    -0.068860648189     1.002868880164     1.007825032230

  Basis Set: AUG-CC-PVTZ
    Blend: AUG-CC-PVTZ
  Basis Set: (AUG-CC-PVTZ AUX)
    Blend: AUG-CC-PVTZ-JKFIT
	 Reference Energy          =    -364.2493713736456016 [Eh]
	 Singles Energy            =      -0.0000000000000000 [Eh]
	 Same-Spin Energy          =      -0.3756914404374306 [Eh]
	 Opposite-Spin Energy      =      -1.2750064708207176 [Eh]
	 Correlation Energy        =      -1.6506979112581481 [Eh]
	 Total Energy              =    -365.9000692849037364 [Eh]

	 ================> DF-SCS-MP2 Energies <==================
	-----------------------------------------------------------
	 SCS Same-Spin Scale       =       0.3333333333333333 [-]
	 SCS Opposite-Spin Scale   =       1.2000000000000000 [-]
	 SCS Same-Spin Energy      =      -0.1252304801458102 [Eh]
	 SCS Opposite-Spin Energy  =      -1.5300077649848611 [Eh]
	 SCS Correlation Energy    =      -1.6552382451306713 [Eh]
	 SCS Total Energy          =    -365.9046096187762487 [Eh]
	-----------------------------------------------------------

  Dipole Moment: [D]
     X:    -1.2478      Y:     2.7006      Z:    -1.6235     Total:     3.3891

*** Psi4 exiting successfully. Buy a developer a beer!
