                               Psi4 1.3.2 release

  ==> Input File <==

--------------------------------------------------------------------------
#psi4
#
memory 32 gb

molecule  {
0 1
  O        0.8686370    -1.1285810     0.6753960
  N       -0.4170490     0.5891890    -0.1013730
  C       -1.6862078    -0.0478859     0.2286711
  C       -2.0872990    -1.0630810    -0.8349870
  C       -2.7390930     1.0113430     0.4650240
  C        0.7808810    -0.0406060     0.0960010
  C        1.9924560     0.7166710    -0.4292430
  C        3.2969670     0.0166800    -0.0788280
  H       -1.4931140    -0.5968520     1.1678280
  H       -0.4520448     1.3958616    -0.7185847
  H       -3.0167340    -1.5709650    -0.5578120
  H       -2.2433890    -0.5581650    -1.7943680
  H       -1.3035910    -1.8142070    -0.9546500
  H       -2.4287380     1.7063800     1.2494310
  H       -3.6863690     0.5519340     0.7608270
  H       -2.9190420     1.5806020    -0.4540200
  H        1.8890940     0.8204890    -1.5196510
  H        1.9757950     1.7355060    -0.0222730
  H        3.3123780    -0.9936500    -0.4915720
  H        4.1482470     0.5747890    -0.4771690
  H        3.4100600    -0.0687260     1.0041520
units angstrom
no_reorient  #important for SAPT in psi4, default
symmetry c1  #important for SAPT in psi4, default
}

set PROPERTIES_ORIGIN ["COM"]
properties('MP2/aug-cc-pvtz', properties = ['dipole'])
--------------------------------------------------------------------------

    Molecular point group: c1
  Charge       = 0
  Multiplicity = 1
  Basis Set: AUG-CC-PVTZ
    Blend: AUG-CC-PVTZ
  Basis Set: (AUG-CC-PVTZ AUX)
    Blend: AUG-CC-PVTZ-JKFIT

    Orbital Energies [Eh]
    ---------------------

    Doubly Occupied:

       1A    -20.513594     2A    -15.578361     3A    -11.345265
       4A    -11.265131     5A    -11.240305     6A    -11.223456
       7A    -11.213485     8A    -11.212592     9A     -1.367135
      10A     -1.228811    11A     -1.066699    12A     -1.030420
      13A     -0.940853    14A     -0.888056    15A     -0.806882
      16A     -0.778516    17A     -0.682633    18A     -0.652325
      19A     -0.635498    20A     -0.614936    21A     -0.593502
      22A     -0.578596    23A     -0.550189    24A     -0.545465
      25A     -0.525616    26A     -0.512651    27A     -0.509161
      28A     -0.497368    29A     -0.488762    30A     -0.475032
      31A     -0.417394    32A     -0.385820

  @DF-RHF Final Energy:  -364.24877432147832

   => Energetics <=

    Nuclear Repulsion Energy =            392.5116255948658477
    One-Electron Energy =               -1272.7917867880096310
    Two-Electron Energy =                 516.0313868716655179
    Total Energy =                       -364.2487743214783222
  Basis Set: (AUG-CC-PVTZ AUX)
    Blend: AUG-CC-PVTZ-RI
    Molecular point group: c1

    Geometry (in Angstrom), charge = 0, multiplicity = 1:

       Center              X                  Y                   Z               Mass
    ------------   -----------------  -----------------  -----------------  -----------------
         O            0.869359496405    -1.129458246061     0.676150201482    15.994914619570
         N           -0.416326503595     0.588311753939    -0.100618798518    14.003074004430
         C           -1.685485303595    -0.048763146061     0.229425301482    12.000000000000
         C           -2.086576503595    -1.063958246061    -0.834232798518    12.000000000000
         C           -2.738370503595     1.010465753939     0.465778201482    12.000000000000
         C            0.781603496405    -0.041483246061     0.096755201482    12.000000000000
         C            1.993178496405     0.715793753939    -0.428488798518    12.000000000000
         C            3.297689496405     0.015802753939    -0.078073798518    12.000000000000
         H           -1.492391503595    -0.597729246061     1.168582201482     1.007825032230
         H           -0.451322303595     1.394984353939    -0.717830498518     1.007825032230
         H           -3.016011503595    -1.571842246061    -0.557057798518     1.007825032230
         H           -2.242666503595    -0.559042246061    -1.793613798518     1.007825032230
         H           -1.302868503595    -1.815084246061    -0.953895798518     1.007825032230
         H           -2.428015503595     1.705502753939     1.250185201482     1.007825032230
         H           -3.685646503595     0.551056753939     0.761581201482     1.007825032230
         H           -2.918319503595     1.579724753939    -0.453265798518     1.007825032230
         H            1.889816496405     0.819611753939    -1.518896798518     1.007825032230
         H            1.976517496405     1.734628753939    -0.021518798518     1.007825032230
         H            3.313100496405    -0.994527246061    -0.490817798518     1.007825032230
         H            4.148969496405     0.573911753939    -0.476414798518     1.007825032230
         H            3.410782496405    -0.069603246061     1.004906201482     1.007825032230

  Basis Set: AUG-CC-PVTZ
    Blend: AUG-CC-PVTZ
  Basis Set: (AUG-CC-PVTZ AUX)
    Blend: AUG-CC-PVTZ-JKFIT
	 Reference Energy          =    -364.2487743214783222 [Eh]
	 Singles Energy            =      -0.0000000000000000 [Eh]
	 Same-Spin Energy          =      -0.3758776893715671 [Eh]
	 Opposite-Spin Energy      =      -1.2752963742355266 [Eh]
	 Correlation Energy        =      -1.6511740636070935 [Eh]
	 Total Energy              =    -365.8999483850853949 [Eh]

	 ================> DF-SCS-MP2 Energies <==================
	-----------------------------------------------------------
	 SCS Same-Spin Scale       =       0.3333333333333333 [-]
	 SCS Opposite-Spin Scale   =       1.2000000000000000 [-]
	 SCS Same-Spin Energy      =      -0.1252925631238557 [Eh]
	 SCS Opposite-Spin Energy  =      -1.5303556490826318 [Eh]
	 SCS Correlation Energy    =      -1.6556482122064875 [Eh]
	 SCS Total Energy          =    -365.9044225336847944 [Eh]
	-----------------------------------------------------------

  Dipole Moment: [D]
     X:    -1.3024      Y:     2.7294      Z:    -1.6426     Total:     3.4415

*** Psi4 exiting successfully. Buy a developer a beer!
