                               Psi4 1.3.2 release

  ==> Input File <==

--------------------------------------------------------------------------
#psi4
#
memory 32 gb

molecule  {
0 1
  O        0.8686370    -1.1285810     0.6753960
  N       -0.4170490     0.5891890    -0.1013730
  C       -1.6907710    -0.0596674     0.2429770
  C       -2.0872990    -1.0630810    -0.8349870
  C       -2.7390930     1.0113430     0.4650240
  C        0.7808810    -0.0406060     0.0960010
  C        1.9924560     0.7166710    -0.4292430
  C        3.2969670     0.0166800    -0.0788280
  H       -1.4931140    -0.5968520     1.1678280
  H       -0.4432210     1.3965910    -0.7180680
  H       -3.0170508    -1.5658833    -0.5497277
  H       -2.2433890    -0.5581650    -1.7943680
  H       -1.3035910    -1.8142070    -0.9546500
  H       -2.4287380     1.7063800     1.2494310
  H       -3.6863690     0.5519340     0.7608270
  H       -2.9190420     1.5806020    -0.4540200
  H        1.8890940     0.8204890    -1.5196510
  H        1.9757950     1.7355060    -0.0222730
  H        3.3123780    -0.9936500    -0.4915720
  H        4.1482470     0.5747890    -0.4771690
  H        3.4100600    -0.0687260     1.0041520
units angstrom
no_reorient  #important for SAPT in psi4, default
symmetry c1  #important for SAPT in psi4, default
}

set PROPERTIES_ORIGIN ["COM"]
properties('MP2/aug-cc-pvtz', properties = ['dipole'])
--------------------------------------------------------------------------

    Molecular point group: c1
  Charge       = 0
  Multiplicity = 1
  Basis Set: AUG-CC-PVTZ
    Blend: AUG-CC-PVTZ
  Basis Set: (AUG-CC-PVTZ AUX)
    Blend: AUG-CC-PVTZ-JKFIT

    Orbital Energies [Eh]
    ---------------------

    Doubly Occupied:

       1A    -20.512777     2A    -15.577503     3A    -11.344218
       4A    -11.265335     5A    -11.239835     6A    -11.223716
       7A    -11.213175     8A    -11.212996     9A     -1.366264
      10A     -1.225809    11A     -1.066540    12A     -1.030316
      13A     -0.940632    14A     -0.886842    15A     -0.807854
      16A     -0.777043    17A     -0.681854    18A     -0.652947
      19A     -0.634832    20A     -0.614393    21A     -0.592849
      22A     -0.578030    23A     -0.549366    24A     -0.546174
      25A     -0.525541    26A     -0.512299    27A     -0.507439
      28A     -0.497403    29A     -0.489998    30A     -0.478321
      31A     -0.416406    32A     -0.385492

  @DF-RHF Final Energy:  -364.24903814254316

   => Energetics <=

    Nuclear Repulsion Energy =            392.3573706757101149
    One-Electron Energy =               -1272.5044256432443035
    Two-Electron Energy =                 515.8980168249909184
    Total Energy =                       -364.2490381425432133
  Basis Set: (AUG-CC-PVTZ AUX)
    Blend: AUG-CC-PVTZ-RI
    Molecular point group: c1

    Geometry (in Angstrom), charge = 0, multiplicity = 1:

       Center              X                  Y                   Z               Mass
    ------------   -----------------  -----------------  -----------------  -----------------
         O            0.869760755720    -1.128280819783     0.674583393914    15.994914619570
         N           -0.415925244280     0.589489180217    -0.102185606086    14.003074004430
         C           -1.689647244280    -0.059367219783     0.242164393914    12.000000000000
         C           -2.086175244280    -1.062780819783    -0.835799606086    12.000000000000
         C           -2.737969244280     1.011643180217     0.464211393914    12.000000000000
         C            0.782004755720    -0.040305819783     0.095188393914    12.000000000000
         C            1.993579755720     0.716971180217    -0.430055606086    12.000000000000
         C            3.298090755720     0.016980180217    -0.079640606086    12.000000000000
         H           -1.491990244280    -0.596551819783     1.167015393914     1.007825032230
         H           -0.442097244280     1.396891180217    -0.718880606086     1.007825032230
         H           -3.015927044280    -1.565583119783    -0.550540306086     1.007825032230
         H           -2.242265244280    -0.557864819783    -1.795180606086     1.007825032230
         H           -1.302467244280    -1.813906819783    -0.955462606086     1.007825032230
         H           -2.427614244280     1.706680180217     1.248618393914     1.007825032230
         H           -3.685245244280     0.552234180217     0.760014393914     1.007825032230
         H           -2.917918244280     1.580902180217    -0.454832606086     1.007825032230
         H            1.890217755720     0.820789180217    -1.520463606086     1.007825032230
         H            1.976918755720     1.735806180217    -0.023085606086     1.007825032230
         H            3.313501755720    -0.993349819783    -0.492384606086     1.007825032230
         H            4.149370755720     0.575089180217    -0.477981606086     1.007825032230
         H            3.411183755720    -0.068425819783     1.003339393914     1.007825032230

  Basis Set: AUG-CC-PVTZ
    Blend: AUG-CC-PVTZ
  Basis Set: (AUG-CC-PVTZ AUX)
    Blend: AUG-CC-PVTZ-JKFIT
	 Reference Energy          =    -364.2490381425431565 [Eh]
	 Singles Energy            =      -0.0000000000000000 [Eh]
	 Same-Spin Energy          =      -0.3757497030998931 [Eh]
	 Opposite-Spin Energy      =      -1.2751776385143923 [Eh]
	 Correlation Energy        =      -1.6509273416142853 [Eh]
	 Total Energy              =    -365.8999654841574625 [Eh]

	 ================> DF-SCS-MP2 Energies <==================
	-----------------------------------------------------------
	 SCS Same-Spin Scale       =       0.3333333333333333 [-]
	 SCS Opposite-Spin Scale   =       1.2000000000000000 [-]
	 SCS Same-Spin Energy      =      -0.1252499010332977 [Eh]
	 SCS Opposite-Spin Energy  =      -1.5302131662172707 [Eh]
	 SCS Correlation Energy    =      -1.6554630672505684 [Eh]
	 SCS Total Energy          =    -365.9045012097937501 [Eh]
	-----------------------------------------------------------

  Dipole Moment: [D]
     X:    -1.3387      Y:     2.7271      Z:    -1.6367     Total:     3.4508

*** Psi4 exiting successfully. Buy a developer a beer!
