                               Psi4 1.3.2 release

  ==> Input File <==

--------------------------------------------------------------------------
#psi4
#
memory 32 gb

molecule  {
0 1
  O        0.9114490    -1.1269321     0.6704024
  N       -0.4170490     0.5891890    -0.1013730
  C       -1.6800190    -0.0563620     0.2358630
  C       -2.0872990    -1.0630810    -0.8349870
  C       -2.7390930     1.0113430     0.4650240
  C        0.7808810    -0.0406060     0.0960010
  C        2.0235702     0.6776001    -0.4111157
  C        3.2969670     0.0166800    -0.0788280
  H       -1.4931140    -0.5968520     1.1678280
  H       -0.4432210     1.3965910    -0.7180680
  H       -3.0167340    -1.5709650    -0.5578120
  H       -2.2433890    -0.5581650    -1.7943680
  H       -1.3035910    -1.8142070    -0.9546500
  H       -2.4287380     1.7063800     1.2494310
  H       -3.6863690     0.5519340     0.7608270
  H       -2.9190420     1.5806020    -0.4540200
  H        1.8890940     0.8204890    -1.5196510
  H        1.9757950     1.7355060    -0.0222730
  H        3.3123780    -0.9936500    -0.4915720
  H        4.1482470     0.5747890    -0.4771690
  H        3.4100600    -0.0687260     1.0041520
units angstrom
no_reorient  #important for SAPT in psi4, default
symmetry c1  #important for SAPT in psi4, default
}

set PROPERTIES_ORIGIN ["COM"]
properties('MP2/aug-cc-pvtz', properties = ['dipole'])
--------------------------------------------------------------------------

    Molecular point group: c1
  Charge       = 0
  Multiplicity = 1
  Basis Set: AUG-CC-PVTZ
    Blend: AUG-CC-PVTZ
  Basis Set: (AUG-CC-PVTZ AUX)
    Blend: AUG-CC-PVTZ-JKFIT

    Orbital Energies [Eh]
    ---------------------

    Doubly Occupied:

       1A    -20.512698     2A    -15.581098     3A    -11.344761
       4A    -11.267007     5A    -11.241188     6A    -11.224717
       7A    -11.213715     8A    -11.209911     9A     -1.366692
      10A     -1.231147    11A     -1.067748    12A     -1.035143
      13A     -0.941164    14A     -0.887136    15A     -0.807914
      16A     -0.778409    17A     -0.681364    18A     -0.654330
      19A     -0.632596    20A     -0.614577    21A     -0.593900
      22A     -0.579364    23A     -0.556536    24A     -0.546570
      25A     -0.527023    26A     -0.518302    27A     -0.508417
      28A     -0.495150    29A     -0.486031    30A     -0.471432
      31A     -0.414608    32A     -0.387454

  @DF-RHF Final Energy:  -364.24519540223196

   => Energetics <=

    Nuclear Repulsion Energy =            392.5999625501241894
    One-Electron Energy =               -1272.9341167916718405
    Two-Electron Energy =                 516.0889588393156373
    Total Energy =                       -364.2451954022319569
  Basis Set: (AUG-CC-PVTZ AUX)
    Blend: AUG-CC-PVTZ-RI
    Molecular point group: c1

    Geometry (in Angstrom), charge = 0, multiplicity = 1:

       Center              X                  Y                   Z               Mass
    ------------   -----------------  -----------------  -----------------  -----------------
         O            0.902255719109    -1.123087745471     0.669206301784    15.994914619570
         N           -0.426242280891     0.593033354529    -0.102569098216    14.003074004430
         C           -1.689212280891    -0.052517645471     0.234666901784    12.000000000000
         C           -2.096492280891    -1.059236645471    -0.836183098216    12.000000000000
         C           -2.748286280891     1.015187354529     0.463827901784    12.000000000000
         C            0.771687719109    -0.036761645471     0.094804901784    12.000000000000
         C            2.014376919109     0.681444454529    -0.412311798216    12.000000000000
         C            3.287773719109     0.020524354529    -0.080024098216    12.000000000000
         H           -1.502307280891    -0.593007645471     1.166631901784     1.007825032230
         H           -0.452414280891     1.400435354529    -0.719264098216     1.007825032230
         H           -3.025927280891    -1.567120645471    -0.559008098216     1.007825032230
         H           -2.252582280891    -0.554320645471    -1.795564098216     1.007825032230
         H           -1.312784280891    -1.810362645471    -0.955846098216     1.007825032230
         H           -2.437931280891     1.710224354529     1.248234901784     1.007825032230
         H           -3.695562280891     0.555778354529     0.759630901784     1.007825032230
         H           -2.928235280891     1.584446354529    -0.455216098216     1.007825032230
         H            1.879900719109     0.824333354529    -1.520847098216     1.007825032230
         H            1.966601719109     1.739350354529    -0.023469098216     1.007825032230
         H            3.303184719109    -0.989805645471    -0.492768098216     1.007825032230
         H            4.139053719109     0.578633354529    -0.478365098216     1.007825032230
         H            3.400866719109    -0.064881645471     1.002955901784     1.007825032230

  Basis Set: AUG-CC-PVTZ
    Blend: AUG-CC-PVTZ
  Basis Set: (AUG-CC-PVTZ AUX)
    Blend: AUG-CC-PVTZ-JKFIT
	 Reference Energy          =    -364.2451954022319569 [Eh]
	 Singles Energy            =      -0.0000000000000000 [Eh]
	 Same-Spin Energy          =      -0.3760657894183466 [Eh]
	 Opposite-Spin Energy      =      -1.2754287946806371 [Eh]
	 Correlation Energy        =      -1.6514945840989836 [Eh]
	 Total Energy              =    -365.8966899863309550 [Eh]

	 ================> DF-SCS-MP2 Energies <==================
	-----------------------------------------------------------
	 SCS Same-Spin Scale       =       0.3333333333333333 [-]
	 SCS Opposite-Spin Scale   =       1.2000000000000000 [-]
	 SCS Same-Spin Energy      =      -0.1253552631394488 [Eh]
	 SCS Opposite-Spin Energy  =      -1.5305145536167644 [Eh]
	 SCS Correlation Energy    =      -1.6558698167562131 [Eh]
	 SCS Total Energy          =    -365.9010652189881512 [Eh]
	-----------------------------------------------------------

  Dipole Moment: [D]
     X:    -1.4182      Y:     2.7003      Z:    -1.6216     Total:     3.4543

*** Psi4 exiting successfully. Buy a developer a beer!
