                               Psi4 1.4a3.dev225

  ==> Input File <==

--------------------------------------------------------------------------
#psi4
#
memory 32 gb

molecule  {
0 1
  O        0.8665680     1.1680080    -0.7351460
  N       -0.3660760    -0.5086790     0.1929010
  C       -1.6441200     0.0174450    -0.2761400
  C       -2.1412550     1.1442230     0.6252270
  C       -2.6427120    -1.1266550    -0.3840140
  C        0.8063460     0.1556180    -0.0295640
  C        2.0148393    -0.4249586     0.6450811
  C        3.2825740    -0.2523450    -0.1975960
  H       -1.4466230     0.4281070    -1.2709490
  H       -0.3785050    -1.2608410     0.8714320
  H       -3.0785860     1.5617170     0.2436050
  H       -2.3175770     0.7713190     1.6396860
  H       -1.3960540     1.9417130     0.6641920
  H       -2.2693050    -1.9092940    -1.0497770
  H       -3.5969080    -0.7634960    -0.7753550
  H       -2.8341330    -1.5678230     0.6011330
  H        2.1523320     0.0883960     1.6122110
  H        1.8656800    -1.4909910     0.8873090
  H        3.4076760     0.8004350    -0.4533700
  H        4.1701610    -0.5986810     0.3385000
  H        3.2011700    -0.8174180    -1.1296580
units angstrom
no_reorient  #important for SAPT in psi4, default
symmetry c1  #important for SAPT in psi4, default
}

set PROPERTIES_ORIGIN ["COM"]
properties('MP2/aug-cc-pvtz', properties = ['dipole'])
--------------------------------------------------------------------------

    Molecular point group: c1
  Charge       = 0
  Multiplicity = 1
  Basis Set: AUG-CC-PVTZ
    Blend: AUG-CC-PVTZ
  Basis Set: (AUG-CC-PVTZ AUX)
    Blend: AUG-CC-PVTZ-JKFIT

    Orbital Energies [Eh]
    ---------------------

    Doubly Occupied:

       1A    -20.510724     2A    -15.580378     3A    -11.343837
       4A    -11.265936     5A    -11.240185     6A    -11.224543
       7A    -11.216376     8A    -11.212509     9A     -1.367000
      10A     -1.229454    11A     -1.067370    12A     -1.029800
      13A     -0.940215    14A     -0.889883    15A     -0.809468
      16A     -0.780420    17A     -0.683869    18A     -0.658677
      19A     -0.625334    20A     -0.616226    21A     -0.593928
      22A     -0.577726    23A     -0.556363    24A     -0.545534
      25A     -0.526821    26A     -0.515127    27A     -0.506649
      28A     -0.495921    29A     -0.486848    30A     -0.475245
      31A     -0.417088    32A     -0.386686

  @DF-RHF Final Energy:  -364.24908553790692

   => Energetics <=

    Nuclear Repulsion Energy =            392.8175052516683081
    One-Electron Energy =               -1273.3808990468053253
    Two-Electron Energy =                 516.3143082572300955
    Total Energy =                       -364.2490855379069217
  Basis Set: (AUG-CC-PVTZ AUX)
    Blend: AUG-CC-PVTZ-RI
    Molecular point group: c1

    Geometry (in Angstrom), charge = 0, multiplicity = 1:

       Center              X                  Y                   Z               Mass
    ------------   -----------------  -----------------  -----------------  -----------------
         O            0.846566533165     1.142984928652    -0.715463484550    15.994914619570
         N           -0.386077466835    -0.533702071348     0.212583515450    14.003074004430
         C           -1.664121466835    -0.007578071348    -0.256457484550    12.000000000000
         C           -2.161256466835     1.119199928652     0.644909515450    12.000000000000
         C           -2.662713466835    -1.151678071348    -0.364331484550    12.000000000000
         C            0.786344533165     0.130594928652    -0.009881484550    12.000000000000
         C            1.994837833165    -0.449981671348     0.664763615450    12.000000000000
         C            3.262572533165    -0.277368071348    -0.177913484550    12.000000000000
         H           -1.466624466835     0.403083928652    -1.251266484550     1.007825032230
         H           -0.398506466835    -1.285864071348     0.891114515450     1.007825032230
         H           -3.098587466835     1.536693928652     0.263287515450     1.007825032230
         H           -2.337578466835     0.746295928652     1.659368515450     1.007825032230
         H           -1.416055466835     1.916689928652     0.683874515450     1.007825032230
         H           -2.289306466835    -1.934317071348    -1.030094484550     1.007825032230
         H           -3.616909466835    -0.788519071348    -0.755672484550     1.007825032230
         H           -2.854134466835    -1.592846071348     0.620815515450     1.007825032230
         H            2.132330533165     0.063372928652     1.631893515450     1.007825032230
         H            1.845678533165    -1.516014071348     0.906991515450     1.007825032230
         H            3.387674533165     0.775411928652    -0.433687484550     1.007825032230
         H            4.150159533165    -0.623704071348     0.358182515450     1.007825032230
         H            3.181168533165    -0.842441071348    -1.109975484550     1.007825032230

  Basis Set: AUG-CC-PVTZ
    Blend: AUG-CC-PVTZ
  Basis Set: (AUG-CC-PVTZ AUX)
    Blend: AUG-CC-PVTZ-JKFIT
	 Reference Energy          =    -364.2490855379069217 [Eh]
	 Singles Energy            =      -0.0000000000000000 [Eh]
	 Same-Spin Energy          =      -0.3759212377994815 [Eh]
	 Opposite-Spin Energy      =      -1.2752913135086565 [Eh]
	 Correlation Energy        =      -1.6512125513081379 [Eh]
	 Total Energy              =    -365.9002980892150845 [Eh]

	 ================> DF-SCS-MP2 Energies <==================
	-----------------------------------------------------------
	 SCS Same-Spin Scale       =       0.3333333333333333 [-]
	 SCS Opposite-Spin Scale   =       1.2000000000000000 [-]
	 SCS Same-Spin Energy      =      -0.1253070792664938 [Eh]
	 SCS Opposite-Spin Energy  =      -1.5303495762103878 [Eh]
	 SCS Correlation Energy    =      -1.6556566554768817 [Eh]
	 SCS Total Energy          =    -365.9047421933838109 [Eh]
	-----------------------------------------------------------

  Dipole Moment: [D]
     X:    -1.2551      Y:    -2.6074      Z:     1.9091     Total:     3.4667

*** Psi4 exiting successfully. Buy a developer a beer!
