                               Psi4 1.4a3.dev225

  ==> Input File <==

--------------------------------------------------------------------------
#psi4
#
memory 32 gb

molecule  {
0 1
  O        0.8665680     1.1680080    -0.7351460
  N       -0.3660760    -0.5086790     0.1929010
  C       -1.6441200     0.0174450    -0.2761400
  C       -2.1412550     1.1442230     0.6252270
  C       -2.6427120    -1.1266550    -0.3840140
  C        0.8063460     0.1556180    -0.0295640
  C        2.0470467    -0.4404314     0.6630609
  C        3.2825740    -0.2523450    -0.1975960
  H       -1.4466230     0.4281070    -1.2709490
  H       -0.3785050    -1.2608410     0.8714320
  H       -3.0785860     1.5617170     0.2436050
  H       -2.3175770     0.7713190     1.6396860
  H       -1.3960540     1.9417130     0.6641920
  H       -2.2693050    -1.9092940    -1.0497770
  H       -3.5969080    -0.7634960    -0.7753550
  H       -2.8341330    -1.5678230     0.6011330
  H        2.1523320     0.0883960     1.6122110
  H        1.8656800    -1.4909910     0.8873090
  H        3.4076760     0.8004350    -0.4533700
  H        4.1701610    -0.5986810     0.3385000
  H        3.2011700    -0.8174180    -1.1296580
units angstrom
no_reorient  #important for SAPT in psi4, default
symmetry c1  #important for SAPT in psi4, default
}

set PROPERTIES_ORIGIN ["COM"]
properties('MP2/aug-cc-pvtz', properties = ['dipole'])
--------------------------------------------------------------------------

    Molecular point group: c1
  Charge       = 0
  Multiplicity = 1
  Basis Set: AUG-CC-PVTZ
    Blend: AUG-CC-PVTZ
  Basis Set: (AUG-CC-PVTZ AUX)
    Blend: AUG-CC-PVTZ-JKFIT

    Orbital Energies [Eh]
    ---------------------

    Doubly Occupied:

       1A    -20.511080     2A    -15.580659     3A    -11.344874
       4A    -11.266052     5A    -11.239602     6A    -11.224614
       7A    -11.215109     8A    -11.212574     9A     -1.365959
      10A     -1.229094    11A     -1.065666    12A     -1.031065
      13A     -0.940282    14A     -0.885964    15A     -0.810170
      16A     -0.780761    17A     -0.679727    18A     -0.658613
      19A     -0.626291    20A     -0.617117    21A     -0.592911
      22A     -0.578592    23A     -0.555553    24A     -0.545558
      25A     -0.526758    26A     -0.513298    27A     -0.510928
      28A     -0.498018    29A     -0.487669    30A     -0.477301
      31A     -0.412889    32A     -0.386657

  @DF-RHF Final Energy:  -364.24924982851400

   => Energetics <=

    Nuclear Repulsion Energy =            392.2615644553210927
    One-Electron Energy =               -1272.2788231121155604
    Two-Electron Energy =                 515.7680088282803581
    Total Energy =                       -364.2492498285140528
  Basis Set: (AUG-CC-PVTZ AUX)
    Blend: AUG-CC-PVTZ-RI
    Molecular point group: c1

    Geometry (in Angstrom), charge = 0, multiplicity = 1:

       Center              X                  Y                   Z               Mass
    ------------   -----------------  -----------------  -----------------  -----------------
         O            0.843208672520     1.144598082964    -0.717338012230    15.994914619570
         N           -0.389435327480    -0.532088917036     0.210708987770    14.003074004430
         C           -1.667479327480    -0.005964917036    -0.258332012230    12.000000000000
         C           -2.164614327480     1.120813082964     0.643034987770    12.000000000000
         C           -2.666071327480    -1.150064917036    -0.366206012230    12.000000000000
         C            0.782986672520     0.132208082964    -0.011756012230    12.000000000000
         C            2.023687372520    -0.463841317036     0.680868887770    12.000000000000
         C            3.259214672520    -0.275754917036    -0.179788012230    12.000000000000
         H           -1.469982327480     0.404697082964    -1.253141012230     1.007825032230
         H           -0.401864327480    -1.284250917036     0.889239987770     1.007825032230
         H           -3.101945327480     1.538307082964     0.261412987770     1.007825032230
         H           -2.340936327480     0.747909082964     1.657493987770     1.007825032230
         H           -1.419413327480     1.918303082964     0.681999987770     1.007825032230
         H           -2.292664327480    -1.932703917036    -1.031969012230     1.007825032230
         H           -3.620267327480    -0.786905917036    -0.757547012230     1.007825032230
         H           -2.857492327480    -1.591232917036     0.618940987770     1.007825032230
         H            2.128972672520     0.064986082964     1.630018987770     1.007825032230
         H            1.842320672520    -1.514400917036     0.905116987770     1.007825032230
         H            3.384316672520     0.777025082964    -0.435562012230     1.007825032230
         H            4.146801672520    -0.622090917036     0.356307987770     1.007825032230
         H            3.177810672520    -0.840827917036    -1.111850012230     1.007825032230

  Basis Set: AUG-CC-PVTZ
    Blend: AUG-CC-PVTZ
  Basis Set: (AUG-CC-PVTZ AUX)
    Blend: AUG-CC-PVTZ-JKFIT
	 Reference Energy          =    -364.2492498285139959 [Eh]
	 Singles Energy            =      -0.0000000000000000 [Eh]
	 Same-Spin Energy          =      -0.3758022920449583 [Eh]
	 Opposite-Spin Energy      =      -1.2751898456371278 [Eh]
	 Correlation Energy        =      -1.6509921376820862 [Eh]
	 Total Energy              =    -365.9002419661960630 [Eh]

	 ================> DF-SCS-MP2 Energies <==================
	-----------------------------------------------------------
	 SCS Same-Spin Scale       =       0.3333333333333333 [-]
	 SCS Opposite-Spin Scale   =       1.2000000000000000 [-]
	 SCS Same-Spin Energy      =      -0.1252674306816527 [Eh]
	 SCS Opposite-Spin Energy  =      -1.5302278147645534 [Eh]
	 SCS Correlation Energy    =      -1.6554952454462062 [Eh]
	 SCS Total Energy          =    -365.9047450739602141 [Eh]
	-----------------------------------------------------------

  Dipole Moment: [D]
     X:    -1.2959      Y:    -2.5953      Z:     1.8902     Total:     3.4624

*** Psi4 exiting successfully. Buy a developer a beer!
