                               Psi4 1.3.2 release

  ==> Input File <==

--------------------------------------------------------------------------
#psi4
#
memory 32 gb

molecule  {
0 1
  O        0.8686370    -1.1285810     0.6753960
  N       -0.4177227     0.5959883    -0.0906406
  C       -1.6800190    -0.0563620     0.2358630
  C       -2.0982710    -1.0659596    -0.8280251
  C       -2.7390930     1.0113430     0.4650240
  C        0.7808810    -0.0406060     0.0960010
  C        1.9924560     0.7166710    -0.4292430
  C        3.2969670     0.0166800    -0.0788280
  H       -1.4931140    -0.5968520     1.1678280
  H       -0.4432210     1.3965910    -0.7180680
  H       -3.0167340    -1.5709650    -0.5578120
  H       -2.2433890    -0.5581650    -1.7943680
  H       -1.3035910    -1.8142070    -0.9546500
  H       -2.4287380     1.7063800     1.2494310
  H       -3.6863690     0.5519340     0.7608270
  H       -2.9190420     1.5806020    -0.4540200
  H        1.8890940     0.8204890    -1.5196510
  H        1.9757950     1.7355060    -0.0222730
  H        3.3123780    -0.9936500    -0.4915720
  H        4.1482470     0.5747890    -0.4771690
  H        3.4100600    -0.0687260     1.0041520
units angstrom
no_reorient  #important for SAPT in psi4, default
symmetry c1  #important for SAPT in psi4, default
}

set PROPERTIES_ORIGIN ["COM"]
properties('MP2/aug-cc-pvtz', properties = ['dipole'])
--------------------------------------------------------------------------

    Molecular point group: c1
  Charge       = 0
  Multiplicity = 1
  Basis Set: AUG-CC-PVTZ
    Blend: AUG-CC-PVTZ
  Basis Set: (AUG-CC-PVTZ AUX)
    Blend: AUG-CC-PVTZ-JKFIT

    Orbital Energies [Eh]
    ---------------------

    Doubly Occupied:

       1A    -20.514176     2A    -15.578711     3A    -11.345360
       4A    -11.264760     5A    -11.240518     6A    -11.222917
       7A    -11.213671     8A    -11.212808     9A     -1.367406
      10A     -1.228278    11A     -1.066138    12A     -1.029948
      13A     -0.939582    14A     -0.888056    15A     -0.808098
      16A     -0.777474    17A     -0.682467    18A     -0.653206
      19A     -0.635581    20A     -0.613604    21A     -0.594042
      22A     -0.577757    23A     -0.550442    24A     -0.544541
      25A     -0.526971    26A     -0.512928    27A     -0.510113
      28A     -0.496210    29A     -0.486804    30A     -0.476523
      31A     -0.417786    32A     -0.386410

  @DF-RHF Final Energy:  -364.24882318284631

   => Energetics <=

    Nuclear Repulsion Energy =            392.3670734983044213
    One-Electron Energy =               -1272.5052185663016644
    Two-Electron Energy =                 515.8893218851509346
    Total Energy =                       -364.2488231828463086
  Basis Set: (AUG-CC-PVTZ AUX)
    Blend: AUG-CC-PVTZ-RI
    Molecular point group: c1

    Geometry (in Angstrom), charge = 0, multiplicity = 1:

       Center              X                  Y                   Z               Mass
    ------------   -----------------  -----------------  -----------------  -----------------
         O            0.869862881013    -1.129108026326     0.673364330663    15.994914619570
         N           -0.416496818987     0.595461273674    -0.092672269337    14.003074004430
         C           -1.678793118987    -0.056889026326     0.233831330663    12.000000000000
         C           -2.097045118987    -1.066486626326    -0.830056769337    12.000000000000
         C           -2.737867118987     1.010815973674     0.462992330663    12.000000000000
         C            0.782106881013    -0.041133026326     0.093969330663    12.000000000000
         C            1.993681881013     0.716143973674    -0.431274669337    12.000000000000
         C            3.298192881013     0.016152973674    -0.080859669337    12.000000000000
         H           -1.491888118987    -0.597379026326     1.165796330663     1.007825032230
         H           -0.441995118987     1.396063973674    -0.720099669337     1.007825032230
         H           -3.015508118987    -1.571492026326    -0.559843669337     1.007825032230
         H           -2.242163118987    -0.558692026326    -1.796399669337     1.007825032230
         H           -1.302365118987    -1.814734026326    -0.956681669337     1.007825032230
         H           -2.427512118987     1.705852973674     1.247399330663     1.007825032230
         H           -3.685143118987     0.551406973674     0.758795330663     1.007825032230
         H           -2.917816118987     1.580074973674    -0.456051669337     1.007825032230
         H            1.890319881013     0.819961973674    -1.521682669337     1.007825032230
         H            1.977020881013     1.734978973674    -0.024304669337     1.007825032230
         H            3.313603881013    -0.994177026326    -0.493603669337     1.007825032230
         H            4.149472881013     0.574261973674    -0.479200669337     1.007825032230
         H            3.411285881013    -0.069253026326     1.002120330663     1.007825032230

  Basis Set: AUG-CC-PVTZ
    Blend: AUG-CC-PVTZ
  Basis Set: (AUG-CC-PVTZ AUX)
    Blend: AUG-CC-PVTZ-JKFIT
	 Reference Energy          =    -364.2488231828463086 [Eh]
	 Singles Energy            =      -0.0000000000000000 [Eh]
	 Same-Spin Energy          =      -0.3757880097457044 [Eh]
	 Opposite-Spin Energy      =      -1.2752258325178503 [Eh]
	 Correlation Energy        =      -1.6510138422635547 [Eh]
	 Total Energy              =    -365.8998370251098891 [Eh]

	 ================> DF-SCS-MP2 Energies <==================
	-----------------------------------------------------------
	 SCS Same-Spin Scale       =       0.3333333333333333 [-]
	 SCS Opposite-Spin Scale   =       1.2000000000000000 [-]
	 SCS Same-Spin Energy      =      -0.1252626699152348 [Eh]
	 SCS Opposite-Spin Energy  =      -1.5302709990214203 [Eh]
	 SCS Correlation Energy    =      -1.6555336689366551 [Eh]
	 SCS Total Energy          =    -365.9043568517829499 [Eh]
	-----------------------------------------------------------

  Dipole Moment: [D]
     X:    -1.2698      Y:     2.6937      Z:    -1.6549     Total:     3.4069

*** Psi4 exiting successfully. Buy a developer a beer!
