                               Psi4 1.3.2 release

  ==> Input File <==

--------------------------------------------------------------------------
#psi4
#
memory 32 gb

molecule  {
0 1
  O        0.8686370    -1.1285810     0.6753960
  N       -0.4170490     0.5891890    -0.1013730
  C       -1.6800190    -0.0563620     0.2358630
  C       -2.0872990    -1.0630810    -0.8349870
  C       -2.7390930     1.0113430     0.4650240
  C        0.7344580     0.0159457     0.0644055
  C        1.9924560     0.7166710    -0.4292430
  C        3.3359719     0.0751280    -0.1163300
  H       -1.4931140    -0.5968520     1.1678280
  H       -0.4432210     1.3965910    -0.7180680
  H       -3.0167340    -1.5709650    -0.5578120
  H       -2.2433890    -0.5581650    -1.7943680
  H       -1.3035910    -1.8142070    -0.9546500
  H       -2.4287380     1.7063800     1.2494310
  H       -3.6863690     0.5519340     0.7608270
  H       -2.9190420     1.5806020    -0.4540200
  H        1.8890940     0.8204890    -1.5196510
  H        1.9757950     1.7355060    -0.0222730
  H        3.3123780    -0.9936500    -0.4915720
  H        4.1482470     0.5747890    -0.4771690
  H        3.4100600    -0.0687260     1.0041520
units angstrom
no_reorient  #important for SAPT in psi4, default
symmetry c1  #important for SAPT in psi4, default
}

set PROPERTIES_ORIGIN ["COM"]
properties('MP2/aug-cc-pvtz', properties = ['dipole'])
--------------------------------------------------------------------------

    Molecular point group: c1
  Charge       = 0
  Multiplicity = 1
  Basis Set: AUG-CC-PVTZ
    Blend: AUG-CC-PVTZ
  Basis Set: (AUG-CC-PVTZ AUX)
    Blend: AUG-CC-PVTZ-JKFIT

    Orbital Energies [Eh]
    ---------------------

    Doubly Occupied:

       1A    -20.495784     2A    -15.593606     3A    -11.343750
       4A    -11.272559     5A    -11.241573     6A    -11.228995
       7A    -11.216998     8A    -11.212918     9A     -1.339108
      10A     -1.236096    11A     -1.073228    12A     -1.033882
      13A     -0.944994    14A     -0.893508    15A     -0.818832
      16A     -0.794482    17A     -0.675727    18A     -0.659682
      19A     -0.636035    20A     -0.616858    21A     -0.586904
      22A     -0.572780    23A     -0.562848    24A     -0.550135
      25A     -0.527085    26A     -0.515238    27A     -0.498196
      28A     -0.492537    29A     -0.486637    30A     -0.465756
      31A     -0.405149    32A     -0.385389

  @DF-RHF Final Energy:  -364.22766736997391

   => Energetics <=

    Nuclear Repulsion Energy =            392.0910313823718525
    One-Electron Energy =               -1271.8828572223246738
    Two-Electron Energy =                 515.5641584699789064
    Total Energy =                       -364.2276673699739149
  Basis Set: (AUG-CC-PVTZ AUX)
    Blend: AUG-CC-PVTZ-RI
    Molecular point group: c1

    Geometry (in Angstrom), charge = 0, multiplicity = 1:

       Center              X                  Y                   Z               Mass
    ------------   -----------------  -----------------  -----------------  -----------------
         O            0.869410397952    -1.140570509182     0.682599795758    15.994914619570
         N           -0.416275602048     0.577199490818    -0.094169204242    14.003074004430
         C           -1.679245602048    -0.068351509182     0.243066795758    12.000000000000
         C           -2.086525602048    -1.075070509182    -0.827783204242    12.000000000000
         C           -2.738319602048     0.999353490818     0.472227795758    12.000000000000
         C            0.735231397952     0.003956190818     0.071609295758    12.000000000000
         C            1.993229397952     0.704681490818    -0.422039204242    12.000000000000
         C            3.336745297952     0.063138490818    -0.109126204242    12.000000000000
         H           -1.492340602048    -0.608841509182     1.175031795758     1.007825032230
         H           -0.442447602048     1.384601490818    -0.710864204242     1.007825032230
         H           -3.015960602048    -1.582954509182    -0.550608204242     1.007825032230
         H           -2.242615602048    -0.570154509182    -1.787164204242     1.007825032230
         H           -1.302817602048    -1.826196509182    -0.947446204242     1.007825032230
         H           -2.427964602048     1.694390490818     1.256634795758     1.007825032230
         H           -3.685595602048     0.539944490818     0.768030795758     1.007825032230
         H           -2.918268602048     1.568612490818    -0.446816204242     1.007825032230
         H            1.889867397952     0.808499490818    -1.512447204242     1.007825032230
         H            1.976568397952     1.723516490818    -0.015069204242     1.007825032230
         H            3.313151397952    -1.005639509182    -0.484368204242     1.007825032230
         H            4.149020397952     0.562799490818    -0.469965204242     1.007825032230
         H            3.410833397952    -0.080715509182     1.011355795758     1.007825032230

  Basis Set: AUG-CC-PVTZ
    Blend: AUG-CC-PVTZ
  Basis Set: (AUG-CC-PVTZ AUX)
    Blend: AUG-CC-PVTZ-JKFIT
	 Reference Energy          =    -364.2276673699739149 [Eh]
	 Singles Energy            =      -0.0000000000000000 [Eh]
	 Same-Spin Energy          =      -0.3770565256885385 [Eh]
	 Opposite-Spin Energy      =      -1.2776696363110047 [Eh]
	 Correlation Energy        =      -1.6547261619995433 [Eh]
	 Total Energy              =    -365.8823935319734346 [Eh]

	 ================> DF-SCS-MP2 Energies <==================
	-----------------------------------------------------------
	 SCS Same-Spin Scale       =       0.3333333333333333 [-]
	 SCS Opposite-Spin Scale   =       1.2000000000000000 [-]
	 SCS Same-Spin Energy      =      -0.1256855085628462 [Eh]
	 SCS Opposite-Spin Energy  =      -1.5332035635732055 [Eh]
	 SCS Correlation Energy    =      -1.6588890721360516 [Eh]
	 SCS Total Energy          =    -365.8865564421099634 [Eh]
	-----------------------------------------------------------

  Dipole Moment: [D]
     X:    -1.8209      Y:     3.1226      Z:    -1.8339     Total:     4.0534

*** Psi4 exiting successfully. Buy a developer a beer!
