                               Psi4 1.3.2 release

  ==> Input File <==

--------------------------------------------------------------------------
#psi4
#
memory 32 gb

molecule  {
0 1
  O        0.8686370    -1.1285810     0.6753960
  N       -0.4170490     0.5891890    -0.1013730
  C       -1.6800190    -0.0563620     0.2358630
  C       -2.0872990    -1.0630810    -0.8349870
  C       -2.7390930     1.0113430     0.4650240
  C        0.7495553    -0.0031261     0.0750920
  C        1.9924560     0.7166710    -0.4292430
  C        3.3233744     0.0554419    -0.1037289
  H       -1.4931140    -0.5968520     1.1678280
  H       -0.4432210     1.3965910    -0.7180680
  H       -3.0167340    -1.5709650    -0.5578120
  H       -2.2433890    -0.5581650    -1.7943680
  H       -1.3035910    -1.8142070    -0.9546500
  H       -2.4287380     1.7063800     1.2494310
  H       -3.6863690     0.5519340     0.7608270
  H       -2.9190420     1.5806020    -0.4540200
  H        1.8890940     0.8204890    -1.5196510
  H        1.9757950     1.7355060    -0.0222730
  H        3.3123780    -0.9936500    -0.4915720
  H        4.1482470     0.5747890    -0.4771690
  H        3.4100600    -0.0687260     1.0041520
units angstrom
no_reorient  #important for SAPT in psi4, default
symmetry c1  #important for SAPT in psi4, default
}

set PROPERTIES_ORIGIN ["COM"]
properties('MP2/aug-cc-pvtz', properties = ['dipole'])
--------------------------------------------------------------------------

    Molecular point group: c1
  Charge       = 0
  Multiplicity = 1
  Basis Set: AUG-CC-PVTZ
    Blend: AUG-CC-PVTZ
  Basis Set: (AUG-CC-PVTZ AUX)
    Blend: AUG-CC-PVTZ-JKFIT

    Orbital Energies [Eh]
    ---------------------

    Doubly Occupied:

       1A    -20.501687     2A    -15.588623     3A    -11.344271
       4A    -11.270013     5A    -11.240893     6A    -11.227158
       7A    -11.215495     8A    -11.212839     9A     -1.344943
      10A     -1.236252    11A     -1.070440    12A     -1.032738
      13A     -0.943289    14A     -0.891338    15A     -0.814968
      16A     -0.789031    17A     -0.677447    18A     -0.657569
      19A     -0.634981    20A     -0.616013    21A     -0.586546
      22A     -0.574716    23A     -0.559458    24A     -0.548507
      25A     -0.525377    26A     -0.514237    27A     -0.503688
      28A     -0.493263    29A     -0.487643    30A     -0.469968
      31A     -0.409993    32A     -0.386579

  @DF-RHF Final Energy:  -364.23880690376501

   => Energetics <=

    Nuclear Repulsion Energy =            392.2066748461505767
    One-Electron Energy =               -1272.1510444269754316
    Two-Electron Energy =                 515.7055626770599019
    Total Energy =                       -364.2388069037649529
  Basis Set: (AUG-CC-PVTZ AUX)
    Blend: AUG-CC-PVTZ-RI
    Molecular point group: c1

    Geometry (in Angstrom), charge = 0, multiplicity = 1:

       Center              X                  Y                   Z               Mass
    ------------   -----------------  -----------------  -----------------  -----------------
         O            0.869149775236    -1.136529710264     0.680171890508    15.994914619570
         N           -0.416536224764     0.581240289736    -0.096597109492    14.003074004430
         C           -1.679506224764    -0.064310710264     0.240638890508    12.000000000000
         C           -2.086786224764    -1.071029710264    -0.830211109492    12.000000000000
         C           -2.738580224764     1.003394289736     0.469799890508    12.000000000000
         C            0.750068075236    -0.011074810264     0.079867890508    12.000000000000
         C            1.992968775236     0.708722289736    -0.424467109492    12.000000000000
         C            3.323887175236     0.047493189736    -0.098953009492    12.000000000000
         H           -1.492601224764    -0.604800710264     1.172603890508     1.007825032230
         H           -0.442708224764     1.388642289736    -0.713292109492     1.007825032230
         H           -3.016221224764    -1.578913710264    -0.553036109492     1.007825032230
         H           -2.242876224764    -0.566113710264    -1.789592109492     1.007825032230
         H           -1.303078224764    -1.822155710264    -0.949874109492     1.007825032230
         H           -2.428225224764     1.698431289736     1.254206890508     1.007825032230
         H           -3.685856224764     0.543985289736     0.765602890508     1.007825032230
         H           -2.918529224764     1.572653289736    -0.449244109492     1.007825032230
         H            1.889606775236     0.812540289736    -1.514875109492     1.007825032230
         H            1.976307775236     1.727557289736    -0.017497109492     1.007825032230
         H            3.312890775236    -1.001598710264    -0.486796109492     1.007825032230
         H            4.148759775236     0.566840289736    -0.472393109492     1.007825032230
         H            3.410572775236    -0.076674710264     1.008927890508     1.007825032230

  Basis Set: AUG-CC-PVTZ
    Blend: AUG-CC-PVTZ
  Basis Set: (AUG-CC-PVTZ AUX)
    Blend: AUG-CC-PVTZ-JKFIT
	 Reference Energy          =    -364.2388069037650098 [Eh]
	 Singles Energy            =      -0.0000000000000000 [Eh]
	 Same-Spin Energy          =      -0.3765975350185854 [Eh]
	 Opposite-Spin Energy      =      -1.2767364693574172 [Eh]
	 Correlation Energy        =      -1.6533340043760028 [Eh]
	 Total Energy              =    -365.8921409081410161 [Eh]

	 ================> DF-SCS-MP2 Energies <==================
	-----------------------------------------------------------
	 SCS Same-Spin Scale       =       0.3333333333333333 [-]
	 SCS Opposite-Spin Scale   =       1.2000000000000000 [-]
	 SCS Same-Spin Energy      =      -0.1255325116728618 [Eh]
	 SCS Opposite-Spin Energy  =      -1.5320837632289006 [Eh]
	 SCS Correlation Energy    =      -1.6576162749017624 [Eh]
	 SCS Total Energy          =    -365.8964231786667938 [Eh]
	-----------------------------------------------------------

  Dipole Moment: [D]
     X:    -1.6476      Y:     2.9922      Z:    -1.7705     Total:     3.8475

*** Psi4 exiting successfully. Buy a developer a beer!
