                               Psi4 1.4a3.dev225

  ==> Input File <==

--------------------------------------------------------------------------
#psi4
#
memory 32 gb

molecule  {
0 1
  O        0.8665680     1.1680080    -0.7351460
  N       -0.3660760    -0.5086790     0.1929010
  C       -1.6003370    -0.0005789    -0.2600717
  C       -2.1412550     1.1442230     0.6252270
  C       -2.6427120    -1.1266550    -0.3840140
  C        0.8063460     0.1556180    -0.0295640
  C        2.0309430    -0.4326950     0.6540710
  C        3.2825740    -0.2523450    -0.1975960
  H       -1.4466230     0.4281070    -1.2709490
  H       -0.3785050    -1.2608410     0.8714320
  H       -3.0785860     1.5617170     0.2436050
  H       -2.3175770     0.7713190     1.6396860
  H       -1.3960540     1.9417130     0.6641920
  H       -2.2693050    -1.9092940    -1.0497770
  H       -3.5969080    -0.7634960    -0.7753550
  H       -2.8341330    -1.5678230     0.6011330
  H        2.1523320     0.0883960     1.6122110
  H        1.8656800    -1.4909910     0.8873090
  H        3.4076760     0.8004350    -0.4533700
  H        4.1701610    -0.5986810     0.3385000
  H        3.2011700    -0.8174180    -1.1296580
units angstrom
no_reorient  #important for SAPT in psi4, default
symmetry c1  #important for SAPT in psi4, default
}

set PROPERTIES_ORIGIN ["COM"]
properties('MP2/aug-cc-pvtz', properties = ['dipole'])
--------------------------------------------------------------------------

    Molecular point group: c1
  Charge       = 0
  Multiplicity = 1
  Basis Set: AUG-CC-PVTZ
    Blend: AUG-CC-PVTZ
  Basis Set: (AUG-CC-PVTZ AUX)
    Blend: AUG-CC-PVTZ-JKFIT

    Orbital Energies [Eh]
    ---------------------

    Doubly Occupied:

       1A    -20.513505     2A    -15.583193     3A    -11.346827
       4A    -11.264394     5A    -11.241483     6A    -11.223959
       7A    -11.216889     8A    -11.211151     9A     -1.370072
      10A     -1.241118    11A     -1.065393    12A     -1.027658
      13A     -0.936177    14A     -0.892071    15A     -0.812821
      16A     -0.785479    17A     -0.683660    18A     -0.662007
      19A     -0.628248    20A     -0.614267    21A     -0.595258
      22A     -0.578121    23A     -0.556956    24A     -0.543482
      25A     -0.529373    26A     -0.517853    27A     -0.510816
      28A     -0.496878    29A     -0.480616    30A     -0.471913
      31A     -0.418074    32A     -0.384972

  @DF-RHF Final Energy:  -364.24699287402518

   => Energetics <=

    Nuclear Repulsion Energy =            393.0863119634860254
    One-Electron Energy =               -1273.8572372724072466
    Two-Electron Energy =                 516.5239324348960963
    Total Energy =                       -364.2469928740251817
  Basis Set: (AUG-CC-PVTZ AUX)
    Blend: AUG-CC-PVTZ-RI
    Molecular point group: c1

    Geometry (in Angstrom), charge = 0, multiplicity = 1:

       Center              X                  Y                   Z               Mass
    ------------   -----------------  -----------------  -----------------  -----------------
         O            0.840322899929     1.145670631241    -0.718075987999    15.994914619570
         N           -0.392321100071    -0.531016368759     0.209971012001    14.003074004430
         C           -1.626582100071    -0.022916268759    -0.243001687999    12.000000000000
         C           -2.167500100071     1.121885631241     0.642297012001    12.000000000000
         C           -2.668957100071    -1.148992368759    -0.366943987999    12.000000000000
         C            0.780100899929     0.133280631241    -0.012493987999    12.000000000000
         C            2.004697899929    -0.455032368759     0.671141012001    12.000000000000
         C            3.256328899929    -0.274682368759    -0.180525987999    12.000000000000
         H           -1.472868100071     0.405769631241    -1.253878987999     1.007825032230
         H           -0.404750100071    -1.283178368759     0.888502012001     1.007825032230
         H           -3.104831100071     1.539379631241     0.260675012001     1.007825032230
         H           -2.343822100071     0.748981631241     1.656756012001     1.007825032230
         H           -1.422299100071     1.919375631241     0.681262012001     1.007825032230
         H           -2.295550100071    -1.931631368759    -1.032706987999     1.007825032230
         H           -3.623153100071    -0.785833368759    -0.758284987999     1.007825032230
         H           -2.860378100071    -1.590160368759     0.618203012001     1.007825032230
         H            2.126086899929     0.066058631241     1.629281012001     1.007825032230
         H            1.839434899929    -1.513328368759     0.904379012001     1.007825032230
         H            3.381430899929     0.778097631241    -0.436299987999     1.007825032230
         H            4.143915899929    -0.621018368759     0.355570012001     1.007825032230
         H            3.174924899929    -0.839755368759    -1.112587987999     1.007825032230

  Basis Set: AUG-CC-PVTZ
    Blend: AUG-CC-PVTZ
  Basis Set: (AUG-CC-PVTZ AUX)
    Blend: AUG-CC-PVTZ-JKFIT
	 Reference Energy          =    -364.2469928740251817 [Eh]
	 Singles Energy            =      -0.0000000000000000 [Eh]
	 Same-Spin Energy          =      -0.3760632300855054 [Eh]
	 Opposite-Spin Energy      =      -1.2753398055116236 [Eh]
	 Correlation Energy        =      -1.6514030355971290 [Eh]
	 Total Energy              =    -365.8983959096223089 [Eh]

	 ================> DF-SCS-MP2 Energies <==================
	-----------------------------------------------------------
	 SCS Same-Spin Scale       =       0.3333333333333333 [-]
	 SCS Opposite-Spin Scale   =       1.2000000000000000 [-]
	 SCS Same-Spin Energy      =      -0.1253544100285018 [Eh]
	 SCS Opposite-Spin Energy  =      -1.5304077666139484 [Eh]
	 SCS Correlation Energy    =      -1.6557621766424502 [Eh]
	 SCS Total Energy          =    -365.9027550506676221 [Eh]
	-----------------------------------------------------------

  Dipole Moment: [D]
     X:    -1.1047      Y:    -2.6257      Z:     1.9043     Total:     3.4265

*** Psi4 exiting successfully. Buy a developer a beer!
