                               Psi4 1.4a3.dev225

  ==> Input File <==

--------------------------------------------------------------------------
#psi4
#
memory 32 gb

molecule  {
0 1
  O        0.8665680     1.1680080    -0.7351460
  N       -0.3660760    -0.5086790     0.1929010
  C       -1.6441200     0.0174450    -0.2761400
  C       -2.1412550     1.1442230     0.6252270
  C       -2.6427120    -1.1266550    -0.3840140
  C        0.8073209     0.1720066    -0.0409860
  C        2.0309430    -0.4326950     0.6540710
  C        3.2825740    -0.2523450    -0.1975960
  H       -1.4466230     0.4281070    -1.2709490
  H       -0.3785050    -1.2608410     0.8714320
  H       -3.0785860     1.5617170     0.2436050
  H       -2.3175770     0.7713190     1.6396860
  H       -1.3960540     1.9417130     0.6641920
  H       -2.2693050    -1.9092940    -1.0497770
  H       -3.5969080    -0.7634960    -0.7753550
  H       -2.8341330    -1.5678230     0.6011330
  H        2.1523320     0.0883960     1.6122110
  H        1.8656800    -1.4909910     0.8873090
  H        3.4076760     0.8004350    -0.4533700
  H        4.1701610    -0.5986810     0.3385000
  H        3.2011700    -0.8174180    -1.1296580
units angstrom
no_reorient  #important for SAPT in psi4, default
symmetry c1  #important for SAPT in psi4, default
}

set PROPERTIES_ORIGIN ["COM"]
properties('MP2/aug-cc-pvtz', properties = ['dipole'])
--------------------------------------------------------------------------

    Molecular point group: c1
  Charge       = 0
  Multiplicity = 1
  Basis Set: AUG-CC-PVTZ
    Blend: AUG-CC-PVTZ
  Basis Set: (AUG-CC-PVTZ AUX)
    Blend: AUG-CC-PVTZ-JKFIT

    Orbital Energies [Eh]
    ---------------------

    Doubly Occupied:

       1A    -20.515088     2A    -15.577459     3A    -11.344004
       4A    -11.264647     5A    -11.239097     6A    -11.223669
       7A    -11.215392     8A    -11.211995     9A     -1.379133
      10A     -1.227575    11A     -1.064274    12A     -1.028697
      13A     -0.939549    14A     -0.885494    15A     -0.807767
      16A     -0.779026    17A     -0.683038    18A     -0.658042
      19A     -0.625306    20A     -0.615944    21A     -0.598719
      22A     -0.578904    23A     -0.555376    24A     -0.544768
      25A     -0.527381    26A     -0.515466    27A     -0.508773
      28A     -0.496728    29A     -0.487623    30A     -0.478474
      31A     -0.415343    32A     -0.386777

  @DF-RHF Final Energy:  -364.25035988088729

   => Energetics <=

    Nuclear Repulsion Energy =            392.6235327638763692
    One-Electron Energy =               -1272.9887327292640293
    Two-Electron Energy =                 516.1148400845004289
    Total Energy =                       -364.2503598808872312
  Basis Set: (AUG-CC-PVTZ AUX)
    Blend: AUG-CC-PVTZ-RI
    Molecular point group: c1

    Geometry (in Angstrom), charge = 0, multiplicity = 1:

       Center              X                  Y                   Z               Mass
    ------------   -----------------  -----------------  -----------------  -----------------
         O            0.844785962277     1.142082872544    -0.715209920062    15.994914619570
         N           -0.387858037723    -0.534604127456     0.212837079938    14.003074004430
         C           -1.665902037723    -0.008480127456    -0.256203920062    12.000000000000
         C           -2.163037037723     1.118297872544     0.645163079938    12.000000000000
         C           -2.664494037723    -1.152580127456    -0.364077920062    12.000000000000
         C            0.785538862277     0.146081472544    -0.021049920062    12.000000000000
         C            2.009160962277    -0.458620127456     0.674007079938    12.000000000000
         C            3.260791962277    -0.278270127456    -0.177659920062    12.000000000000
         H           -1.468405037723     0.402181872544    -1.251012920062     1.007825032230
         H           -0.400287037723    -1.286766127456     0.891368079938     1.007825032230
         H           -3.100368037723     1.535791872544     0.263541079938     1.007825032230
         H           -2.339359037723     0.745393872544     1.659622079938     1.007825032230
         H           -1.417836037723     1.915787872544     0.684128079938     1.007825032230
         H           -2.291087037723    -1.935219127456    -1.029840920062     1.007825032230
         H           -3.618690037723    -0.789421127456    -0.755418920062     1.007825032230
         H           -2.855915037723    -1.593748127456     0.621069079938     1.007825032230
         H            2.130549962277     0.062470872544     1.632147079938     1.007825032230
         H            1.843897962277    -1.516916127456     0.907245079938     1.007825032230
         H            3.385893962277     0.774509872544    -0.433433920062     1.007825032230
         H            4.148378962277    -0.624606127456     0.358436079938     1.007825032230
         H            3.179387962277    -0.843343127456    -1.109721920062     1.007825032230

  Basis Set: AUG-CC-PVTZ
    Blend: AUG-CC-PVTZ
  Basis Set: (AUG-CC-PVTZ AUX)
    Blend: AUG-CC-PVTZ-JKFIT
	 Reference Energy          =    -364.2503598808872880 [Eh]
	 Singles Energy            =      -0.0000000000000000 [Eh]
	 Same-Spin Energy          =      -0.3754444689922089 [Eh]
	 Opposite-Spin Energy      =      -1.2744542646783046 [Eh]
	 Correlation Energy        =      -1.6498987336705135 [Eh]
	 Total Energy              =    -365.9002586145577993 [Eh]

	 ================> DF-SCS-MP2 Energies <==================
	-----------------------------------------------------------
	 SCS Same-Spin Scale       =       0.3333333333333333 [-]
	 SCS Opposite-Spin Scale   =       1.2000000000000000 [-]
	 SCS Same-Spin Energy      =      -0.1251481563307363 [Eh]
	 SCS Opposite-Spin Energy  =      -1.5293451176139654 [Eh]
	 SCS Correlation Energy    =      -1.6544932739447018 [Eh]
	 SCS Total Energy          =    -365.9048531548319829 [Eh]
	-----------------------------------------------------------

  Dipole Moment: [D]
     X:    -1.2130      Y:    -2.4996      Z:     1.8362     Total:     3.3303

*** Psi4 exiting successfully. Buy a developer a beer!
