                               Psi4 1.3.2 release

  ==> Input File <==

--------------------------------------------------------------------------
#psi4
#
memory 32 gb

molecule  {
0 1
  O        0.8900596    -1.1279221     0.6729871
  N       -0.4170490     0.5891890    -0.1013730
  C       -1.6800190    -0.0563620     0.2358630
  C       -2.0872990    -1.0630810    -0.8349870
  C       -2.7390930     1.0113430     0.4650240
  C        0.7808810    -0.0406060     0.0960010
  C        2.0082000     0.6972479    -0.4202580
  C        3.2969670     0.0166800    -0.0788280
  H       -1.4931140    -0.5968520     1.1678280
  H       -0.4432210     1.3965910    -0.7180680
  H       -3.0167340    -1.5709650    -0.5578120
  H       -2.2433890    -0.5581650    -1.7943680
  H       -1.3035910    -1.8142070    -0.9546500
  H       -2.4287380     1.7063800     1.2494310
  H       -3.6863690     0.5519340     0.7608270
  H       -2.9190420     1.5806020    -0.4540200
  H        1.8890940     0.8204890    -1.5196510
  H        1.9757950     1.7355060    -0.0222730
  H        3.3123780    -0.9936500    -0.4915720
  H        4.1482470     0.5747890    -0.4771690
  H        3.4100600    -0.0687260     1.0041520
units angstrom
no_reorient  #important for SAPT in psi4, default
symmetry c1  #important for SAPT in psi4, default
}

set PROPERTIES_ORIGIN ["COM"]
properties('MP2/aug-cc-pvtz', properties = ['dipole'])
--------------------------------------------------------------------------

    Molecular point group: c1
  Charge       = 0
  Multiplicity = 1
  Basis Set: AUG-CC-PVTZ
    Blend: AUG-CC-PVTZ
  Basis Set: (AUG-CC-PVTZ AUX)
    Blend: AUG-CC-PVTZ-JKFIT

    Orbital Energies [Eh]
    ---------------------

    Doubly Occupied:

       1A    -20.513082     2A    -15.579716     3A    -11.344772
       4A    -11.265985     5A    -11.240639     6A    -11.224103
       7A    -11.213122     8A    -11.211698     9A     -1.366864
      10A     -1.229887    11A     -1.066845    12A     -1.032424
      13A     -0.940529    14A     -0.887501    15A     -0.808009
      16A     -0.778340    17A     -0.681887    18A     -0.653884
      19A     -0.633833    20A     -0.614204    21A     -0.593596
      22A     -0.578792    23A     -0.552848    24A     -0.545982
      25A     -0.526113    26A     -0.514570    27A     -0.510364
      28A     -0.495576    29A     -0.486772    30A     -0.475239
      31A     -0.416066    32A     -0.386620

  @DF-RHF Final Energy:  -364.24815154989432

   => Energetics <=

    Nuclear Repulsion Energy =            392.5392815986652408
    One-Electron Energy =               -1272.8351416206066915
    Two-Electron Energy =                 516.0477084720471339
    Total Energy =                       -364.2481515498943736
  Basis Set: (AUG-CC-PVTZ AUX)
    Blend: AUG-CC-PVTZ-RI
    Molecular point group: c1

    Geometry (in Angstrom), charge = 0, multiplicity = 1:

       Center              X                  Y                   Z               Mass
    ------------   -----------------  -----------------  -----------------  -----------------
         O            0.885441169978    -1.125988598477     0.672384969760    15.994914619570
         N           -0.421667430022     0.591122501523    -0.101975130240    14.003074004430
         C           -1.684637430022    -0.054428498477     0.235260869760    12.000000000000
         C           -2.091917430022    -1.061147498477    -0.835589130240    12.000000000000
         C           -2.743711430022     1.013276501523     0.464421869760    12.000000000000
         C            0.776262569978    -0.038672498477     0.095398869760    12.000000000000
         C            2.003581569978     0.699181401523    -0.420860130240    12.000000000000
         C            3.292348569978     0.018613501523    -0.079430130240    12.000000000000
         H           -1.497732430022    -0.594918498477     1.167225869760     1.007825032230
         H           -0.447839430022     1.398524501523    -0.718670130240     1.007825032230
         H           -3.021352430022    -1.569031498477    -0.558414130240     1.007825032230
         H           -2.248007430022    -0.556231498477    -1.794970130240     1.007825032230
         H           -1.308209430022    -1.812273498477    -0.955252130240     1.007825032230
         H           -2.433356430022     1.708313501523     1.248828869760     1.007825032230
         H           -3.690987430022     0.553867501523     0.760224869760     1.007825032230
         H           -2.923660430022     1.582535501523    -0.454622130240     1.007825032230
         H            1.884475569978     0.822422501523    -1.520253130240     1.007825032230
         H            1.971176569978     1.737439501523    -0.022875130240     1.007825032230
         H            3.307759569978    -0.991716498477    -0.492174130240     1.007825032230
         H            4.143628569978     0.576722501523    -0.477771130240     1.007825032230
         H            3.405441569978    -0.066792498477     1.003549869760     1.007825032230

  Basis Set: AUG-CC-PVTZ
    Blend: AUG-CC-PVTZ
  Basis Set: (AUG-CC-PVTZ AUX)
    Blend: AUG-CC-PVTZ-JKFIT
	 Reference Energy          =    -364.2481515498943168 [Eh]
	 Singles Energy            =      -0.0000000000000000 [Eh]
	 Same-Spin Energy          =      -0.3758898126172699 [Eh]
	 Opposite-Spin Energy      =      -1.2752306096136723 [Eh]
	 Correlation Energy        =      -1.6511204222309424 [Eh]
	 Total Energy              =    -365.8992719721252342 [Eh]

	 ================> DF-SCS-MP2 Energies <==================
	-----------------------------------------------------------
	 SCS Same-Spin Scale       =       0.3333333333333333 [-]
	 SCS Opposite-Spin Scale   =       1.2000000000000000 [-]
	 SCS Same-Spin Energy      =      -0.1252966042057566 [Eh]
	 SCS Opposite-Spin Energy  =      -1.5302767315364068 [Eh]
	 SCS Correlation Energy    =      -1.6555733357421634 [Eh]
	 SCS Total Energy          =    -365.9037248856365068 [Eh]
	-----------------------------------------------------------

  Dipole Moment: [D]
     X:    -1.3563      Y:     2.7152      Z:    -1.6325     Total:     3.4463

*** Psi4 exiting successfully. Buy a developer a beer!
