                               Psi4 1.3.2 release

  ==> Input File <==

--------------------------------------------------------------------------
#psi4
#
memory 32 gb

molecule  {
0 1
  O        0.9113620    -1.1273677     0.6695975
  N       -0.3938395     0.6246287    -0.1233827
  C       -1.6800190    -0.0563620     0.2358630
  C       -2.0872990    -1.0630810    -0.8349870
  C       -2.7390930     1.0113430     0.4650240
  C        0.7808810    -0.0406060     0.0960010
  C        1.9924560     0.7166710    -0.4292430
  C        3.2969670     0.0166800    -0.0788280
  H       -1.4931140    -0.5968520     1.1678280
  H       -0.4432210     1.3965910    -0.7180680
  H       -3.0167340    -1.5709650    -0.5578120
  H       -2.2433890    -0.5581650    -1.7943680
  H       -1.3035910    -1.8142070    -0.9546500
  H       -2.4287380     1.7063800     1.2494310
  H       -3.6863690     0.5519340     0.7608270
  H       -2.9190420     1.5806020    -0.4540200
  H        1.8890940     0.8204890    -1.5196510
  H        1.9757950     1.7355060    -0.0222730
  H        3.3123780    -0.9936500    -0.4915720
  H        4.1482470     0.5747890    -0.4771690
  H        3.4100600    -0.0687260     1.0041520
units angstrom
no_reorient  #important for SAPT in psi4, default
symmetry c1  #important for SAPT in psi4, default
}

set PROPERTIES_ORIGIN ["COM"]
properties('MP2/aug-cc-pvtz', properties = ['dipole'])
--------------------------------------------------------------------------

    Molecular point group: c1
  Charge       = 0
  Multiplicity = 1
  Basis Set: AUG-CC-PVTZ
    Blend: AUG-CC-PVTZ
  Basis Set: (AUG-CC-PVTZ AUX)
    Blend: AUG-CC-PVTZ-JKFIT

    Orbital Energies [Eh]
    ---------------------

    Doubly Occupied:

       1A    -20.515795     2A    -15.577918     3A    -11.345423
       4A    -11.269937     5A    -11.235334     6A    -11.224933
       7A    -11.215195     8A    -11.210342     9A     -1.366224
      10A     -1.229309    11A     -1.065711    12A     -1.029351
      13A     -0.941485    14A     -0.884582    15A     -0.807076
      16A     -0.787279    17A     -0.680948    18A     -0.653513
      19A     -0.633518    20A     -0.614051    21A     -0.595827
      22A     -0.580072    23A     -0.548500    24A     -0.546909
      25A     -0.526187    26A     -0.510239    27A     -0.504401
      28A     -0.495877    29A     -0.488965    30A     -0.478451
      31A     -0.415240    32A     -0.391174

  @DF-RHF Final Energy:  -364.24620329944941

   => Energetics <=

    Nuclear Repulsion Energy =            391.8357012606451235
    One-Electron Energy =               -1271.4242761247305680
    Two-Electron Energy =                 515.3423715646360961
    Total Energy =                       -364.2462032994493484
  Basis Set: (AUG-CC-PVTZ AUX)
    Blend: AUG-CC-PVTZ-RI
    Molecular point group: c1

    Geometry (in Angstrom), charge = 0, multiplicity = 1:

       Center              X                  Y                   Z               Mass
    ------------   -----------------  -----------------  -----------------  -----------------
         O            0.902601019154    -1.131847850575     0.673080869228    15.994914619570
         N           -0.402600480846     0.620148549425    -0.119899330772    14.003074004430
         C           -1.688779980846    -0.060842150575     0.239346369228    12.000000000000
         C           -2.096059980846    -1.067561150575    -0.831503630772    12.000000000000
         C           -2.747853980846     1.006862849425     0.468507369228    12.000000000000
         C            0.772120019154    -0.045086150575     0.099484369228    12.000000000000
         C            1.983695019154     0.712190849425    -0.425759630772    12.000000000000
         C            3.288206019154     0.012199849425    -0.075344630772    12.000000000000
         H           -1.501874980846    -0.601332150575     1.171311369228     1.007825032230
         H           -0.451981980846     1.392110849425    -0.714584630772     1.007825032230
         H           -3.025494980846    -1.575445150575    -0.554328630772     1.007825032230
         H           -2.252149980846    -0.562645150575    -1.790884630772     1.007825032230
         H           -1.312351980846    -1.818687150575    -0.951166630772     1.007825032230
         H           -2.437498980846     1.701899849425     1.252914369228     1.007825032230
         H           -3.695129980846     0.547453849425     0.764310369228     1.007825032230
         H           -2.927802980846     1.576121849425    -0.450536630772     1.007825032230
         H            1.880333019154     0.816008849425    -1.516167630772     1.007825032230
         H            1.967034019154     1.731025849425    -0.018789630772     1.007825032230
         H            3.303617019154    -0.998130150575    -0.488088630772     1.007825032230
         H            4.139486019154     0.570308849425    -0.473685630772     1.007825032230
         H            3.401299019154    -0.073206150575     1.007635369228     1.007825032230

  Basis Set: AUG-CC-PVTZ
    Blend: AUG-CC-PVTZ
  Basis Set: (AUG-CC-PVTZ AUX)
    Blend: AUG-CC-PVTZ-JKFIT
	 Reference Energy          =    -364.2462032994494052 [Eh]
	 Singles Energy            =      -0.0000000000000000 [Eh]
	 Same-Spin Energy          =      -0.3753895403490320 [Eh]
	 Opposite-Spin Energy      =      -1.2749238844072917 [Eh]
	 Correlation Energy        =      -1.6503134247563236 [Eh]
	 Total Energy              =    -365.8965167242057532 [Eh]

	 ================> DF-SCS-MP2 Energies <==================
	-----------------------------------------------------------
	 SCS Same-Spin Scale       =       0.3333333333333333 [-]
	 SCS Opposite-Spin Scale   =       1.2000000000000000 [-]
	 SCS Same-Spin Energy      =      -0.1251298467830106 [Eh]
	 SCS Opposite-Spin Energy  =      -1.5299086612887500 [Eh]
	 SCS Correlation Energy    =      -1.6550385080717607 [Eh]
	 SCS Total Energy          =    -365.9012418075211599 [Eh]
	-----------------------------------------------------------

  Dipole Moment: [D]
     X:    -1.5447      Y:     2.6443      Z:    -1.6050     Total:     3.4575

*** Psi4 exiting successfully. Buy a developer a beer!
