                               Psi4 1.3.2 release

  ==> Input File <==

--------------------------------------------------------------------------
#psi4
#
memory 32 gb

molecule  {
0 1
  O        0.8686370    -1.1285810     0.6753960
  N       -0.4170490     0.5891890    -0.1013730
  C       -1.6736470    -0.0666461     0.2398004
  C       -2.0872990    -1.0630810    -0.8349870
  C       -2.7390930     1.0113430     0.4650240
  C        0.7751068    -0.0501344     0.1002817
  C        1.9924560     0.7166710    -0.4292430
  C        3.2969670     0.0166800    -0.0788280
  H       -1.4931140    -0.5968520     1.1678280
  H       -0.4432210     1.3965910    -0.7180680
  H       -3.0167340    -1.5709650    -0.5578120
  H       -2.2433890    -0.5581650    -1.7943680
  H       -1.3035910    -1.8142070    -0.9546500
  H       -2.4287380     1.7063800     1.2494310
  H       -3.6863690     0.5519340     0.7608270
  H       -2.9190420     1.5806020    -0.4540200
  H        1.8890940     0.8204890    -1.5196510
  H        1.9757950     1.7355060    -0.0222730
  H        3.3123780    -0.9936500    -0.4915720
  H        4.1482470     0.5747890    -0.4771690
  H        3.4100600    -0.0687260     1.0041520
units angstrom
no_reorient  #important for SAPT in psi4, default
symmetry c1  #important for SAPT in psi4, default
}

set PROPERTIES_ORIGIN ["COM"]
properties('MP2/aug-cc-pvtz', properties = ['dipole'])
--------------------------------------------------------------------------

    Molecular point group: c1
  Charge       = 0
  Multiplicity = 1
  Basis Set: AUG-CC-PVTZ
    Blend: AUG-CC-PVTZ
  Basis Set: (AUG-CC-PVTZ AUX)
    Blend: AUG-CC-PVTZ-JKFIT

    Orbital Energies [Eh]
    ---------------------

    Doubly Occupied:

       1A    -20.514917     2A    -15.577649     3A    -11.343997
       4A    -11.264438     5A    -11.239497     6A    -11.223459
       7A    -11.212928     8A    -11.212550     9A     -1.373308
      10A     -1.229497    11A     -1.064161    12A     -1.028339
      13A     -0.939221    14A     -0.885802    15A     -0.808605
      16A     -0.779081    17A     -0.682044    18A     -0.654691
      19A     -0.634810    20A     -0.612628    21A     -0.595675
      22A     -0.578904    23A     -0.548917    24A     -0.545403
      25A     -0.526526    26A     -0.513040    27A     -0.509044
      28A     -0.496957    29A     -0.486826    30A     -0.479832
      31A     -0.416500    32A     -0.386698

  @DF-RHF Final Energy:  -364.24983176041172

   => Energetics <=

    Nuclear Repulsion Energy =            392.5802909393897835
    One-Electron Energy =               -1272.9283592730523651
    Two-Electron Energy =                 516.0982365732509152
    Total Energy =                       -364.2498317604116664
  Basis Set: (AUG-CC-PVTZ AUX)
    Blend: AUG-CC-PVTZ-RI
    Molecular point group: c1

    Geometry (in Angstrom), charge = 0, multiplicity = 1:

       Center              X                  Y                   Z               Mass
    ------------   -----------------  -----------------  -----------------  -----------------
         O            0.868574680845    -1.126515336122     0.674539070258    15.994914619570
         N           -0.417111319155     0.591254663878    -0.102229929742    14.003074004430
         C           -1.673709319155    -0.064580436122     0.238943470258    12.000000000000
         C           -2.087361319155    -1.061015336122    -0.835843929742    12.000000000000
         C           -2.739155319155     1.013408663878     0.464167070258    12.000000000000
         C            0.775044480845    -0.048068736122     0.099424770258    12.000000000000
         C            1.992393680845     0.718736663878    -0.430099929742    12.000000000000
         C            3.296904680845     0.018745663878    -0.079684929742    12.000000000000
         H           -1.493176319155    -0.594786336122     1.166971070258     1.007825032230
         H           -0.443283319155     1.398656663878    -0.718924929742     1.007825032230
         H           -3.016796319155    -1.568899336122    -0.558668929742     1.007825032230
         H           -2.243451319155    -0.556099336122    -1.795224929742     1.007825032230
         H           -1.303653319155    -1.812141336122    -0.955506929742     1.007825032230
         H           -2.428800319155     1.708445663878     1.248574070258     1.007825032230
         H           -3.686431319155     0.553999663878     0.759970070258     1.007825032230
         H           -2.919104319155     1.582667663878    -0.454876929742     1.007825032230
         H            1.889031680845     0.822554663878    -1.520507929742     1.007825032230
         H            1.975732680845     1.737571663878    -0.023129929742     1.007825032230
         H            3.312315680845    -0.991584336122    -0.492428929742     1.007825032230
         H            4.148184680845     0.576854663878    -0.478025929742     1.007825032230
         H            3.409997680845    -0.066660336122     1.003295070258     1.007825032230

  Basis Set: AUG-CC-PVTZ
    Blend: AUG-CC-PVTZ
  Basis Set: (AUG-CC-PVTZ AUX)
    Blend: AUG-CC-PVTZ-JKFIT
	 Reference Energy          =    -364.2498317604117233 [Eh]
	 Singles Energy            =      -0.0000000000000000 [Eh]
	 Same-Spin Energy          =      -0.3754734044387720 [Eh]
	 Opposite-Spin Energy      =      -1.2746265704598507 [Eh]
	 Correlation Energy        =      -1.6500999748986227 [Eh]
	 Total Energy              =    -365.8999317353103606 [Eh]

	 ================> DF-SCS-MP2 Energies <==================
	-----------------------------------------------------------
	 SCS Same-Spin Scale       =       0.3333333333333333 [-]
	 SCS Opposite-Spin Scale   =       1.2000000000000000 [-]
	 SCS Same-Spin Energy      =      -0.1251578014795907 [Eh]
	 SCS Opposite-Spin Energy  =      -1.5295518845518208 [Eh]
	 SCS Correlation Energy    =      -1.6547096860314114 [Eh]
	 SCS Total Energy          =    -365.9045414464431474 [Eh]
	-----------------------------------------------------------

  Dipole Moment: [D]
     X:    -1.3049      Y:     2.6719      Z:    -1.6196     Total:     3.3860

*** Psi4 exiting successfully. Buy a developer a beer!
