                               Psi4 1.3.2 release

  ==> Input File <==

--------------------------------------------------------------------------
#psi4
#
memory 32 gb

molecule  {
0 1
  O        0.8686370    -1.1285810     0.6753960
  N       -0.4170490     0.5891890    -0.1013730
  C       -1.7156926    -0.0047905     0.1923455
  C       -2.0872990    -1.0630810    -0.8349870
  C       -2.7390930     1.0113430     0.4650240
  C        0.7808810    -0.0406060     0.0960010
  C        1.9924560     0.7166710    -0.4292430
  C        3.2969670     0.0166800    -0.0788280
  H       -1.4931140    -0.5968520     1.1678280
  H       -0.4961105     1.3912942    -0.7204628
  H       -3.0167340    -1.5709650    -0.5578120
  H       -2.2433890    -0.5581650    -1.7943680
  H       -1.3035910    -1.8142070    -0.9546500
  H       -2.4287380     1.7063800     1.2494310
  H       -3.6863690     0.5519340     0.7608270
  H       -2.9190420     1.5806020    -0.4540200
  H        1.8890940     0.8204890    -1.5196510
  H        1.9757950     1.7355060    -0.0222730
  H        3.3123780    -0.9936500    -0.4915720
  H        4.1482470     0.5747890    -0.4771690
  H        3.4100600    -0.0687260     1.0041520
units angstrom
no_reorient  #important for SAPT in psi4, default
symmetry c1  #important for SAPT in psi4, default
}

set PROPERTIES_ORIGIN ["COM"]
properties('MP2/aug-cc-pvtz', properties = ['dipole'])
--------------------------------------------------------------------------

    Molecular point group: c1
  Charge       = 0
  Multiplicity = 1
  Basis Set: AUG-CC-PVTZ
    Blend: AUG-CC-PVTZ
  Basis Set: (AUG-CC-PVTZ AUX)
    Blend: AUG-CC-PVTZ-JKFIT

    Orbital Energies [Eh]
    ---------------------

    Doubly Occupied:

       1A    -20.514349     2A    -15.578757     3A    -11.347310
       4A    -11.266700     5A    -11.240490     6A    -11.223382
       7A    -11.213506     8A    -11.213322     9A     -1.367231
      10A     -1.230005    11A     -1.069997    12A     -1.033384
      13A     -0.945516    14A     -0.889235    15A     -0.802849
      16A     -0.778019    17A     -0.684077    18A     -0.647864
      19A     -0.636065    20A     -0.620116    21A     -0.594184
      22A     -0.581099    23A     -0.551707    24A     -0.545793
      25A     -0.525873    26A     -0.512642    27A     -0.509395
      28A     -0.504668    29A     -0.488356    30A     -0.460288
      31A     -0.418145    32A     -0.385152

  @DF-RHF Final Energy:  -364.24030114771040

   => Energetics <=

    Nuclear Repulsion Energy =            392.5910929964875891
    One-Electron Energy =               -1272.9038298980592572
    Two-Electron Energy =                 516.0724357538613276
    Total Energy =                       -364.2403011477103973
  Basis Set: (AUG-CC-PVTZ AUX)
    Blend: AUG-CC-PVTZ-RI
    Molecular point group: c1

    Geometry (in Angstrom), charge = 0, multiplicity = 1:

       Center              X                  Y                   Z               Mass
    ------------   -----------------  -----------------  -----------------  -----------------
         O            0.872819349618    -1.133911268940     0.679953859900    15.994914619570
         N           -0.412866650382     0.583858731060    -0.096815140100    14.003074004430
         C           -1.711510250382    -0.010120768940     0.196903359900    12.000000000000
         C           -2.083116650382    -1.068411268940    -0.830429140100    12.000000000000
         C           -2.734910650382     1.006012731060     0.469581859900    12.000000000000
         C            0.785063349618    -0.045936268940     0.100558859900    12.000000000000
         C            1.996638349618     0.711340731060    -0.424685140100    12.000000000000
         C            3.301149349618     0.011349731060    -0.074270140100    12.000000000000
         H           -1.488931650382    -0.602182268940     1.172385859900     1.007825032230
         H           -0.491928150382     1.385963931060    -0.715904940100     1.007825032230
         H           -3.012551650382    -1.576295268940    -0.553254140100     1.007825032230
         H           -2.239206650382    -0.563495268940    -1.789810140100     1.007825032230
         H           -1.299408650382    -1.819537268940    -0.950092140100     1.007825032230
         H           -2.424555650382     1.701049731060     1.253988859900     1.007825032230
         H           -3.682186650382     0.546603731060     0.765384859900     1.007825032230
         H           -2.914859650382     1.575271731060    -0.449462140100     1.007825032230
         H            1.893276349618     0.815158731060    -1.515093140100     1.007825032230
         H            1.979977349618     1.730175731060    -0.017715140100     1.007825032230
         H            3.316560349618    -0.998980268940    -0.487014140100     1.007825032230
         H            4.152429349618     0.569458731060    -0.472611140100     1.007825032230
         H            3.414242349618    -0.074056268940     1.008709859900     1.007825032230

  Basis Set: AUG-CC-PVTZ
    Blend: AUG-CC-PVTZ
  Basis Set: (AUG-CC-PVTZ AUX)
    Blend: AUG-CC-PVTZ-JKFIT
	 Reference Energy          =    -364.2403011477103973 [Eh]
	 Singles Energy            =      -0.0000000000000000 [Eh]
	 Same-Spin Energy          =      -0.3765523622322915 [Eh]
	 Opposite-Spin Energy      =      -1.2763843135613275 [Eh]
	 Correlation Energy        =      -1.6529366757936190 [Eh]
	 Total Energy              =    -365.8932378235040233 [Eh]

	 ================> DF-SCS-MP2 Energies <==================
	-----------------------------------------------------------
	 SCS Same-Spin Scale       =       0.3333333333333333 [-]
	 SCS Opposite-Spin Scale   =       1.2000000000000000 [-]
	 SCS Same-Spin Energy      =      -0.1255174540774305 [Eh]
	 SCS Opposite-Spin Energy  =      -1.5316611762735930 [Eh]
	 SCS Correlation Energy    =      -1.6571786303510234 [Eh]
	 SCS Total Energy          =    -365.8974797780614381 [Eh]
	-----------------------------------------------------------

  Dipole Moment: [D]
     X:    -1.3428      Y:     2.7431      Z:    -1.6495     Total:     3.4711

*** Psi4 exiting successfully. Buy a developer a beer!
