                               Psi4 1.3.2 release

  ==> Input File <==

--------------------------------------------------------------------------
#psi4
#
memory 32 gb

molecule  {
0 1
  O        0.8686370    -1.1285810     0.6753960
  N       -0.4170490     0.5891890    -0.1013730
  C       -1.6800190    -0.0563620     0.2358630
  C       -2.0872990    -1.0630810    -0.8349870
  C       -2.7390930     1.0113430     0.4650240
  C        0.7761141    -0.0414435     0.0836299
  C        1.9924560     0.7166710    -0.4292430
  C        3.2969670     0.0166800    -0.0788280
  H       -1.4931140    -0.5968520     1.1678280
  H       -0.4432210     1.3965910    -0.7180680
  H       -3.0167340    -1.5709650    -0.5578120
  H       -2.2433890    -0.5581650    -1.7943680
  H       -1.3035910    -1.8142070    -0.9546500
  H       -2.4287380     1.7063800     1.2494310
  H       -3.6863690     0.5519340     0.7608270
  H       -2.9190420     1.5806020    -0.4540200
  H        1.8807505     0.8157539    -1.5192687
  H        1.9757950     1.7355060    -0.0222730
  H        3.3123780    -0.9936500    -0.4915720
  H        4.1482470     0.5747890    -0.4771690
  H        3.4100600    -0.0687260     1.0041520
units angstrom
no_reorient  #important for SAPT in psi4, default
symmetry c1  #important for SAPT in psi4, default
}

set PROPERTIES_ORIGIN ["COM"]
properties('MP2/aug-cc-pvtz', properties = ['dipole'])
--------------------------------------------------------------------------

    Molecular point group: c1
  Charge       = 0
  Multiplicity = 1
  Basis Set: AUG-CC-PVTZ
    Blend: AUG-CC-PVTZ
  Basis Set: (AUG-CC-PVTZ AUX)
    Blend: AUG-CC-PVTZ-JKFIT

    Orbital Energies [Eh]
    ---------------------

    Doubly Occupied:

       1A    -20.512000     2A    -15.579557     3A    -11.344571
       4A    -11.265509     5A    -11.240357     6A    -11.223938
       7A    -11.213436     8A    -11.212938     9A     -1.363821
      10A     -1.229905    11A     -1.066600    12A     -1.030198
      13A     -0.940344    14A     -0.888308    15A     -0.808930
      16A     -0.779238    17A     -0.681268    18A     -0.653929
      19A     -0.635730    20A     -0.614327    21A     -0.591583
      22A     -0.578352    23A     -0.550267    24A     -0.545789
      25A     -0.525379    26A     -0.511977    27A     -0.509613
      28A     -0.497127    29A     -0.488002    30A     -0.476668
      31A     -0.416298    32A     -0.386210

  @DF-RHF Final Energy:  -364.24870436921935

   => Energetics <=

    Nuclear Repulsion Energy =            392.5174890191700570
    One-Electron Energy =               -1272.8080470934030473
    Two-Electron Energy =                 516.0418537050136365
    Total Energy =                       -364.2487043692193538
  Basis Set: (AUG-CC-PVTZ AUX)
    Blend: AUG-CC-PVTZ-RI
    Molecular point group: c1

    Geometry (in Angstrom), charge = 0, multiplicity = 1:

       Center              X                  Y                   Z               Mass
    ------------   -----------------  -----------------  -----------------  -----------------
         O            0.869207047213    -1.128452159767     0.676682299810    15.994914619570
         N           -0.416478952787     0.589317840233    -0.100086700190    14.003074004430
         C           -1.679448952787    -0.056233159767     0.237149299810    12.000000000000
         C           -2.086728952787    -1.062952159767    -0.833700700190    12.000000000000
         C           -2.738522952787     1.011471840233     0.466310299810    12.000000000000
         C            0.776684147213    -0.041314659767     0.084916199810    12.000000000000
         C            1.993026047213     0.716799840233    -0.427956700190    12.000000000000
         C            3.297537047213     0.016808840233    -0.077541700190    12.000000000000
         H           -1.492543952787    -0.596723159767     1.169114299810     1.007825032230
         H           -0.442650952787     1.396719840233    -0.716781700190     1.007825032230
         H           -3.016163952787    -1.570836159767    -0.556525700190     1.007825032230
         H           -2.242818952787    -0.558036159767    -1.793081700190     1.007825032230
         H           -1.303020952787    -1.814078159767    -0.953363700190     1.007825032230
         H           -2.428167952787     1.706508840233     1.250717299810     1.007825032230
         H           -3.685798952787     0.552062840233     0.762113299810     1.007825032230
         H           -2.918471952787     1.580730840233    -0.452733700190     1.007825032230
         H            1.881320547213     0.815882740233    -1.517982400190     1.007825032230
         H            1.976365047213     1.735634840233    -0.020986700190     1.007825032230
         H            3.312948047213    -0.993521159767    -0.490285700190     1.007825032230
         H            4.148817047213     0.574917840233    -0.475882700190     1.007825032230
         H            3.410630047213    -0.068597159767     1.005438299810     1.007825032230

  Basis Set: AUG-CC-PVTZ
    Blend: AUG-CC-PVTZ
  Basis Set: (AUG-CC-PVTZ AUX)
    Blend: AUG-CC-PVTZ-JKFIT
	 Reference Energy          =    -364.2487043692193538 [Eh]
	 Singles Energy            =      -0.0000000000000000 [Eh]
	 Same-Spin Energy          =      -0.3758845575905434 [Eh]
	 Opposite-Spin Energy      =      -1.2753563490005113 [Eh]
	 Correlation Energy        =      -1.6512409065910547 [Eh]
	 Total Energy              =    -365.8999452758104098 [Eh]

	 ================> DF-SCS-MP2 Energies <==================
	-----------------------------------------------------------
	 SCS Same-Spin Scale       =       0.3333333333333333 [-]
	 SCS Opposite-Spin Scale   =       1.2000000000000000 [-]
	 SCS Same-Spin Energy      =      -0.1252948525301811 [Eh]
	 SCS Opposite-Spin Energy  =      -1.5304276188006136 [Eh]
	 SCS Correlation Energy    =      -1.6557224713307948 [Eh]
	 SCS Total Energy          =    -365.9044268405501725 [Eh]
	-----------------------------------------------------------

  Dipole Moment: [D]
     X:    -1.3375      Y:     2.7524      Z:    -1.6593     Total:     3.4811

*** Psi4 exiting successfully. Buy a developer a beer!
