                               Psi4 1.3.2 release

  ==> Input File <==

--------------------------------------------------------------------------
#psi4
#
memory 32 gb

molecule  {
0 1
  O        0.8686370    -1.1285810     0.6753960
  N       -0.4170490     0.5891890    -0.1013730
  C       -1.6800190    -0.0563620     0.2358630
  C       -2.0872990    -1.0630810    -0.8349870
  C       -2.7390930     1.0113430     0.4650240
  C        0.7808810    -0.0406060     0.0960010
  C        1.9924560     0.7166710    -0.4292430
  C        3.2969670     0.0166800    -0.0788280
  H       -1.4931140    -0.5968520     1.1678280
  H       -0.4380706     1.2377028    -0.5967089
  H       -3.0167340    -1.5709650    -0.5578120
  H       -2.2433890    -0.5581650    -1.7943680
  H       -1.3035910    -1.8142070    -0.9546500
  H       -2.4287380     1.7063800     1.2494310
  H       -3.6863690     0.5519340     0.7608270
  H       -2.9190420     1.5806020    -0.4540200
  H        1.8890940     0.8204890    -1.5196510
  H        1.9757950     1.7355060    -0.0222730
  H        3.3123780    -0.9936500    -0.4915720
  H        4.1482470     0.5747890    -0.4771690
  H        3.4100600    -0.0687260     1.0041520
units angstrom
no_reorient  #important for SAPT in psi4, default
symmetry c1  #important for SAPT in psi4, default
}

set PROPERTIES_ORIGIN ["COM"]
properties('MP2/aug-cc-pvtz', properties = ['dipole'])
--------------------------------------------------------------------------

    Molecular point group: c1
  Charge       = 0
  Multiplicity = 1
  Basis Set: AUG-CC-PVTZ
    Blend: AUG-CC-PVTZ
  Basis Set: (AUG-CC-PVTZ AUX)
    Blend: AUG-CC-PVTZ-JKFIT

    Orbital Energies [Eh]
    ---------------------

    Doubly Occupied:

       1A    -20.514314     2A    -15.556516     3A    -11.345573
       4A    -11.264801     5A    -11.241270     6A    -11.223766
       7A    -11.214297     8A    -11.213002     9A     -1.370486
      10A     -1.258701    11A     -1.068793    12A     -1.035434
      13A     -0.940835    14A     -0.891788    15A     -0.833793
      16A     -0.800801    17A     -0.685496    18A     -0.660965
      19A     -0.636997    20A     -0.614550    21A     -0.598478
      22A     -0.582276    23A     -0.550206    24A     -0.545697
      25A     -0.526540    26A     -0.513551    27A     -0.511746
      28A     -0.497554    29A     -0.488661    30A     -0.477747
      31A     -0.418642    32A     -0.389367

  @DF-RHF Final Energy:  -364.20687702958173

   => Energetics <=

    Nuclear Repulsion Energy =            393.8751408177666349
    One-Electron Energy =               -1275.2187469724228777
    Two-Electron Energy =                 517.1367291250745666
    Total Energy =                       -364.2068770295817330
  Basis Set: (AUG-CC-PVTZ AUX)
    Blend: AUG-CC-PVTZ-RI
    Molecular point group: c1

    Geometry (in Angstrom), charge = 0, multiplicity = 1:

       Center              X                  Y                   Z               Mass
    ------------   -----------------  -----------------  -----------------  -----------------
         O            0.868591908498    -1.127189694832     0.674333235352    15.994914619570
         N           -0.417094091502     0.590580305168    -0.102435764648    14.003074004430
         C           -1.680064091502    -0.054970694832     0.234800235352    12.000000000000
         C           -2.087344091502    -1.061689694832    -0.836049764648    12.000000000000
         C           -2.739138091502     1.012734305168     0.463961235352    12.000000000000
         C            0.780835908498    -0.039214694832     0.094938235352    12.000000000000
         C            1.992410908498     0.718062305168    -0.430305764648    12.000000000000
         C            3.296921908498     0.018071305168    -0.079890764648    12.000000000000
         H           -1.493159091502    -0.595460694832     1.166765235352     1.007825032230
         H           -0.438115691502     1.239094105168    -0.597771664648     1.007825032230
         H           -3.016779091502    -1.569573694832    -0.558874764648     1.007825032230
         H           -2.243434091502    -0.556773694832    -1.795430764648     1.007825032230
         H           -1.303636091502    -1.812815694832    -0.955712764648     1.007825032230
         H           -2.428783091502     1.707771305168     1.248368235352     1.007825032230
         H           -3.686414091502     0.553325305168     0.759764235352     1.007825032230
         H           -2.919087091502     1.581993305168    -0.455082764648     1.007825032230
         H            1.889048908498     0.821880305168    -1.520713764648     1.007825032230
         H            1.975749908498     1.736897305168    -0.023335764648     1.007825032230
         H            3.312332908498    -0.992258694832    -0.492634764648     1.007825032230
         H            4.148201908498     0.576180305168    -0.478231764648     1.007825032230
         H            3.410014908498    -0.067334694832     1.003089235352     1.007825032230

  Basis Set: AUG-CC-PVTZ
    Blend: AUG-CC-PVTZ
  Basis Set: (AUG-CC-PVTZ AUX)
    Blend: AUG-CC-PVTZ-JKFIT
	 Reference Energy          =    -364.2068770295817330 [Eh]
	 Singles Energy            =      -0.0000000000000000 [Eh]
	 Same-Spin Energy          =      -0.3743692943089845 [Eh]
	 Opposite-Spin Energy      =      -1.2723613633807691 [Eh]
	 Correlation Energy        =      -1.6467306576897536 [Eh]
	 Total Energy              =    -365.8536076872715057 [Eh]

	 ================> DF-SCS-MP2 Energies <==================
	-----------------------------------------------------------
	 SCS Same-Spin Scale       =       0.3333333333333333 [-]
	 SCS Opposite-Spin Scale   =       1.2000000000000000 [-]
	 SCS Same-Spin Energy      =      -0.1247897647696615 [Eh]
	 SCS Opposite-Spin Energy  =      -1.5268336360569228 [Eh]
	 SCS Correlation Energy    =      -1.6516234008265842 [Eh]
	 SCS Total Energy          =    -365.8585004304082986 [Eh]
	-----------------------------------------------------------

  Dipole Moment: [D]
     X:    -1.2429      Y:     2.6230      Z:    -1.5717     Total:     3.3008

*** Psi4 exiting successfully. Buy a developer a beer!
