                               Psi4 1.3.2 release

  ==> Input File <==

--------------------------------------------------------------------------
#psi4
#
memory 32 gb

molecule  {
0 1
  O        0.8686370    -1.1285810     0.6753960
  N       -0.4170490     0.5891890    -0.1013730
  C       -1.6161870    -0.0381481     0.1914856
  C       -2.0872990    -1.0630810    -0.8349870
  C       -2.7390930     1.0113430     0.4650240
  C        0.7808810    -0.0406060     0.0960010
  C        1.9924560     0.7166710    -0.4292430
  C        3.2969670     0.0166800    -0.0788280
  H       -1.4931140    -0.5968520     1.1678280
  H       -0.4432210     1.3965910    -0.7180680
  H       -3.0133478    -1.6006294    -0.6067395
  H       -2.2433890    -0.5581650    -1.7943680
  H       -1.3035910    -1.8142070    -0.9546500
  H       -2.4287380     1.7063800     1.2494310
  H       -3.6863690     0.5519340     0.7608270
  H       -2.9190420     1.5806020    -0.4540200
  H        1.8890940     0.8204890    -1.5196510
  H        1.9757950     1.7355060    -0.0222730
  H        3.3123780    -0.9936500    -0.4915720
  H        4.1482470     0.5747890    -0.4771690
  H        3.4100600    -0.0687260     1.0041520
units angstrom
no_reorient  #important for SAPT in psi4, default
symmetry c1  #important for SAPT in psi4, default
}

set PROPERTIES_ORIGIN ["COM"]
properties('MP2/aug-cc-pvtz', properties = ['dipole'])
--------------------------------------------------------------------------

    Molecular point group: c1
  Charge       = 0
  Multiplicity = 1
  Basis Set: AUG-CC-PVTZ
    Blend: AUG-CC-PVTZ
  Basis Set: (AUG-CC-PVTZ AUX)
    Blend: AUG-CC-PVTZ-JKFIT

    Orbital Energies [Eh]
    ---------------------

    Doubly Occupied:

       1A    -20.517605     2A    -15.582483     3A    -11.348639
       4A    -11.263991     5A    -11.242849     6A    -11.222446
       7A    -11.215304     8A    -11.210255     9A     -1.372792
      10A     -1.247114    11A     -1.065238    12A     -1.026048
      13A     -0.935901    14A     -0.894521    15A     -0.811649
      16A     -0.785290    17A     -0.685461    18A     -0.656748
      19A     -0.639891    20A     -0.612773    21A     -0.596781
      22A     -0.579516    23A     -0.552769    24A     -0.540912
      25A     -0.526413    26A     -0.518808    27A     -0.514658
      28A     -0.494984    29A     -0.480850    30A     -0.461891
      31A     -0.422122    32A     -0.385709

  @DF-RHF Final Energy:  -364.24132094169079

   => Energetics <=

    Nuclear Repulsion Energy =            393.3591006409508282
    One-Electron Energy =               -1274.3760252075530843
    Two-Electron Energy =                 516.7756036249114686
    Total Energy =                       -364.2413209416907875
  Basis Set: (AUG-CC-PVTZ AUX)
    Blend: AUG-CC-PVTZ-RI
    Molecular point group: c1

    Geometry (in Angstrom), charge = 0, multiplicity = 1:

       Center              X                  Y                   Z               Mass
    ------------   -----------------  -----------------  -----------------  -----------------
         O            0.861952395955    -1.130220126170     0.680450956008    15.994914619570
         N           -0.423733604045     0.587549873830    -0.096318043992    14.003074004430
         C           -1.622871604045    -0.039787226170     0.196540556008    12.000000000000
         C           -2.093983604045    -1.064720126170    -0.829932043992    12.000000000000
         C           -2.745777604045     1.009703873830     0.470078956008    12.000000000000
         C            0.774196395955    -0.042245126170     0.101055956008    12.000000000000
         C            1.985771395955     0.715031873830    -0.424188043992    12.000000000000
         C            3.290282395955     0.015040873830    -0.073773043992    12.000000000000
         H           -1.499798604045    -0.598491126170     1.172882956008     1.007825032230
         H           -0.449905604045     1.394951873830    -0.713013043992     1.007825032230
         H           -3.020032404045    -1.602268526170    -0.601684543992     1.007825032230
         H           -2.250073604045    -0.559804126170    -1.789313043992     1.007825032230
         H           -1.310275604045    -1.815846126170    -0.949595043992     1.007825032230
         H           -2.435422604045     1.704740873830     1.254485956008     1.007825032230
         H           -3.693053604045     0.550294873830     0.765881956008     1.007825032230
         H           -2.925726604045     1.578962873830    -0.448965043992     1.007825032230
         H            1.882409395955     0.818849873830    -1.514596043992     1.007825032230
         H            1.969110395955     1.733866873830    -0.017218043992     1.007825032230
         H            3.305693395955    -0.995289126170    -0.486517043992     1.007825032230
         H            4.141562395955     0.573149873830    -0.472114043992     1.007825032230
         H            3.403375395955    -0.070365126170     1.009206956008     1.007825032230

  Basis Set: AUG-CC-PVTZ
    Blend: AUG-CC-PVTZ
  Basis Set: (AUG-CC-PVTZ AUX)
    Blend: AUG-CC-PVTZ-JKFIT
	 Reference Energy          =    -364.2413209416907875 [Eh]
	 Singles Energy            =      -0.0000000000000000 [Eh]
	 Same-Spin Energy          =      -0.3763246283692312 [Eh]
	 Opposite-Spin Energy      =      -1.2757065654668951 [Eh]
	 Correlation Energy        =      -1.6520311938361263 [Eh]
	 Total Energy              =    -365.8933521355269249 [Eh]

	 ================> DF-SCS-MP2 Energies <==================
	-----------------------------------------------------------
	 SCS Same-Spin Scale       =       0.3333333333333333 [-]
	 SCS Opposite-Spin Scale   =       1.2000000000000000 [-]
	 SCS Same-Spin Energy      =      -0.1254415427897437 [Eh]
	 SCS Opposite-Spin Energy  =      -1.5308478785602742 [Eh]
	 SCS Correlation Energy    =      -1.6562894213500179 [Eh]
	 SCS Total Energy          =    -365.8976103630408261 [Eh]
	-----------------------------------------------------------

  Dipole Moment: [D]
     X:    -1.0242      Y:     2.7211      Z:    -1.6728     Total:     3.3544

*** Psi4 exiting successfully. Buy a developer a beer!
