                               Psi4 1.3.2 release

  ==> Input File <==

--------------------------------------------------------------------------
#psi4
#
memory 32 gb

molecule  {
0 1
  O        0.8686370    -1.1285810     0.6753960
  N       -0.4117746     0.5842037    -0.0909233
  C       -1.6800190    -0.0563620     0.2358630
  C       -2.0872990    -1.0630810    -0.8349870
  C       -2.7390930     1.0113430     0.4650240
  C        0.7808810    -0.0406060     0.0960010
  C        1.9924560     0.7166710    -0.4292430
  C        3.2969670     0.0166800    -0.0788280
  H       -1.4840878    -0.5937578     1.1677634
  H       -0.4432210     1.3965910    -0.7180680
  H       -3.0167340    -1.5709650    -0.5578120
  H       -2.2433890    -0.5581650    -1.7943680
  H       -1.3035910    -1.8142070    -0.9546500
  H       -2.4287380     1.7063800     1.2494310
  H       -3.6863690     0.5519340     0.7608270
  H       -2.9190420     1.5806020    -0.4540200
  H        1.8890940     0.8204890    -1.5196510
  H        1.9757950     1.7355060    -0.0222730
  H        3.3123780    -0.9936500    -0.4915720
  H        4.1482470     0.5747890    -0.4771690
  H        3.4100600    -0.0687260     1.0041520
units angstrom
no_reorient  #important for SAPT in psi4, default
symmetry c1  #important for SAPT in psi4, default
}

set PROPERTIES_ORIGIN ["COM"]
properties('MP2/aug-cc-pvtz', properties = ['dipole'])
--------------------------------------------------------------------------

    Molecular point group: c1
  Charge       = 0
  Multiplicity = 1
  Basis Set: AUG-CC-PVTZ
    Blend: AUG-CC-PVTZ
  Basis Set: (AUG-CC-PVTZ AUX)
    Blend: AUG-CC-PVTZ-JKFIT

    Orbital Energies [Eh]
    ---------------------

    Doubly Occupied:

       1A    -20.511860     2A    -15.579360     3A    -11.343528
       4A    -11.265229     5A    -11.240102     6A    -11.223979
       7A    -11.213288     8A    -11.213025     9A     -1.367144
      10A     -1.229021    11A     -1.066518    12A     -1.030072
      13A     -0.940242    14A     -0.887997    15A     -0.808833
      16A     -0.777326    17A     -0.682274    18A     -0.652400
      19A     -0.635597    20A     -0.614528    21A     -0.592347
      22A     -0.578156    23A     -0.550281    24A     -0.545696
      25A     -0.525887    26A     -0.512311    27A     -0.509044
      28A     -0.496888    29A     -0.488082    30A     -0.477446
      31A     -0.416744    32A     -0.385868

  @DF-RHF Final Energy:  -364.24891741361944

   => Energetics <=

    Nuclear Repulsion Energy =            392.6305816651562282
    One-Electron Energy =               -1273.0368505270464539
    Two-Electron Energy =                 516.1573514482707878
    Total Energy =                       -364.2489174136194379
  Basis Set: (AUG-CC-PVTZ AUX)
    Blend: AUG-CC-PVTZ-RI
    Molecular point group: c1

    Geometry (in Angstrom), charge = 0, multiplicity = 1:

       Center              X                  Y                   Z               Mass
    ------------   -----------------  -----------------  -----------------  -----------------
         O            0.867916286126    -1.128001516073     0.674125119474    15.994914619570
         N           -0.412495313874     0.584783183927    -0.092194180526    14.003074004430
         C           -1.680739713874    -0.055782516073     0.234592119474    12.000000000000
         C           -2.088019713874    -1.062501516073    -0.836257880526    12.000000000000
         C           -2.739813713874     1.011922483927     0.463753119474    12.000000000000
         C            0.780160286126    -0.040026516073     0.094730119474    12.000000000000
         C            1.991735286126     0.717250483927    -0.430513880526    12.000000000000
         C            3.296246286126     0.017259483927    -0.080098880526    12.000000000000
         H           -1.484808513874    -0.593178316073     1.166492519474     1.007825032230
         H           -0.443941713874     1.397170483927    -0.719338880526     1.007825032230
         H           -3.017454713874    -1.570385516073    -0.559082880526     1.007825032230
         H           -2.244109713874    -0.557585516073    -1.795638880526     1.007825032230
         H           -1.304311713874    -1.813627516073    -0.955920880526     1.007825032230
         H           -2.429458713874     1.706959483927     1.248160119474     1.007825032230
         H           -3.687089713874     0.552513483927     0.759556119474     1.007825032230
         H           -2.919762713874     1.581181483927    -0.455290880526     1.007825032230
         H            1.888373286126     0.821068483927    -1.520921880526     1.007825032230
         H            1.975074286126     1.736085483927    -0.023543880526     1.007825032230
         H            3.311657286126    -0.993070516073    -0.492842880526     1.007825032230
         H            4.147526286126     0.575368483927    -0.478439880526     1.007825032230
         H            3.409339286126    -0.068146516073     1.002881119474     1.007825032230

  Basis Set: AUG-CC-PVTZ
    Blend: AUG-CC-PVTZ
  Basis Set: (AUG-CC-PVTZ AUX)
    Blend: AUG-CC-PVTZ-JKFIT
	 Reference Energy          =    -364.2489174136194379 [Eh]
	 Singles Energy            =      -0.0000000000000000 [Eh]
	 Same-Spin Energy          =      -0.3758317763543845 [Eh]
	 Opposite-Spin Energy      =      -1.2752029339240210 [Eh]
	 Correlation Energy        =      -1.6510347102784055 [Eh]
	 Total Energy              =    -365.8999521238978332 [Eh]

	 ================> DF-SCS-MP2 Energies <==================
	-----------------------------------------------------------
	 SCS Same-Spin Scale       =       0.3333333333333333 [-]
	 SCS Opposite-Spin Scale   =       1.2000000000000000 [-]
	 SCS Same-Spin Energy      =      -0.1252772587847948 [Eh]
	 SCS Opposite-Spin Energy  =      -1.5302435207088252 [Eh]
	 SCS Correlation Energy    =      -1.6555207794936200 [Eh]
	 SCS Total Energy          =    -365.9044381931130374 [Eh]
	-----------------------------------------------------------

  Dipole Moment: [D]
     X:    -1.3336      Y:     2.7433      Z:    -1.6618     Total:     3.4736

*** Psi4 exiting successfully. Buy a developer a beer!
