                               Psi4 1.3.2 release

  ==> Input File <==

--------------------------------------------------------------------------
#psi4
#
memory 32 gb

molecule  {
0 1
  O       -2.3004000     0.0048630     0.0003410
  N       -0.3010450    -1.1173380    -0.0002690
  C        1.1207170     1.2010130     0.0000540
  C        1.8075300    -0.0461910     0.0000640
  C        1.0639000    -1.1911280     0.0001230
  C       -1.0661860     0.0622010    -0.0003390
  C       -0.2467720     1.2588117     0.2998370
  H        1.6948200     2.1249460     0.0001000
  H        2.8897160    -0.0994500     0.0003790
  H        1.4903610    -2.1891700     0.0001730
  H       -0.7789320     2.2044920     0.0000230
  H       -0.8600860    -1.9666840     0.0000480
units angstrom
no_reorient  #important for SAPT in psi4, default
symmetry c1  #important for SAPT in psi4, default
}

set PROPERTIES_ORIGIN ["COM"]
properties('MP2/aug-cc-pvtz', properties = ['dipole'])
--------------------------------------------------------------------------

    Molecular point group: c1
  Charge       = 0
  Multiplicity = 1
  Basis Set: AUG-CC-PVTZ
    Blend: AUG-CC-PVTZ
  Basis Set: (AUG-CC-PVTZ AUX)
    Blend: AUG-CC-PVTZ-JKFIT

    Orbital Energies [Eh]
    ---------------------

    Doubly Occupied:

       1A    -20.513869     2A    -15.629814     3A    -11.359721
       4A    -11.322152     5A    -11.284885     6A    -11.248093
       7A    -11.247034     8A     -1.372774     9A     -1.275863
      10A     -1.106023    11A     -1.028930    12A     -0.886118
      13A     -0.859812    14A     -0.755129    15A     -0.692271
      16A     -0.678052    17A     -0.633536    18A     -0.614668
      19A     -0.601154    20A     -0.557901    21A     -0.529797
      22A     -0.485718    23A     -0.424744    24A     -0.422381
      25A     -0.318317

  @DF-RHF Final Energy:  -321.65628225848172

   => Energetics <=

    Nuclear Repulsion Energy =            273.5564179169138015
    One-Electron Energy =                -978.7278876799498448
    Two-Electron Energy =                 383.5151875045543193
    Total Energy =                       -321.6562822584817241
  Basis Set: (AUG-CC-PVTZ AUX)
    Blend: AUG-CC-PVTZ-RI
    Molecular point group: c1

    Geometry (in Angstrom), charge = 0, multiplicity = 1:

       Center              X                  Y                   Z               Mass
    ------------   -----------------  -----------------  -----------------  -----------------
         O           -2.254213842471     0.005675197763    -0.037531405349    15.994914619570
         N           -0.254858842471    -1.116525802237    -0.038141405349    14.003074004430
         C            1.166903157529     1.201825197763    -0.037818405349    12.000000000000
         C            1.853716157529    -0.045378802237    -0.037808405349    12.000000000000
         C            1.110086157529    -1.190315802237    -0.037749405349    12.000000000000
         C           -1.019999842471     0.063013197763    -0.038211405349    12.000000000000
         C           -0.200585842471     1.259623897763     0.261964594651    12.000000000000
         H            1.741006157529     2.125758197763    -0.037772405349     1.007825032230
         H            2.935902157529    -0.098637802237    -0.037493405349     1.007825032230
         H            1.536547157529    -2.188357802237    -0.037699405349     1.007825032230
         H           -0.732745842471     2.205304197763    -0.037849405349     1.007825032230
         H           -0.813899842471    -1.965871802237    -0.037824405349     1.007825032230

  Basis Set: AUG-CC-PVTZ
    Blend: AUG-CC-PVTZ
  Basis Set: (AUG-CC-PVTZ AUX)
    Blend: AUG-CC-PVTZ-JKFIT
	 Reference Energy          =    -321.6562822584817241 [Eh]
	 Singles Energy            =      -0.0000000000000000 [Eh]
	 Same-Spin Energy          =      -0.3365332003705226 [Eh]
	 Opposite-Spin Energy      =      -1.0302906209754643 [Eh]
	 Correlation Energy        =      -1.3668238213459869 [Eh]
	 Total Energy              =    -323.0231060798276985 [Eh]

	 ================> DF-SCS-MP2 Energies <==================
	-----------------------------------------------------------
	 SCS Same-Spin Scale       =       0.3333333333333333 [-]
	 SCS Opposite-Spin Scale   =       1.2000000000000000 [-]
	 SCS Same-Spin Energy      =      -0.1121777334568409 [Eh]
	 SCS Opposite-Spin Energy  =      -1.2363487451705570 [Eh]
	 SCS Correlation Energy    =      -1.3485264786273978 [Eh]
	 SCS Total Energy          =    -323.0048087371091015 [Eh]
	-----------------------------------------------------------

  Dipole Moment: [D]
     X:     4.1005      Y:    -1.4690      Z:    -0.1823     Total:     4.3595

*** Psi4 exiting successfully. Buy a developer a beer!
