                               Psi4 1.3.2 release

  ==> Input File <==

--------------------------------------------------------------------------
#psi4
#
memory 32 gb

molecule  {
0 1
  O       -2.3004000     0.0048630     0.0003410
  N       -0.3010450    -1.1173380    -0.0002690
  C        1.1207170     1.2010130     0.0000540
  C        1.8075300    -0.0461910     0.0000640
  C        1.0639000    -1.1911280     0.0001230
  C       -1.0661860     0.0622010    -0.0003390
  C       -0.2468550     1.2588270    -0.0001630
  H        1.6948200     2.1249460     0.0001000
  H        2.8897160    -0.0994500     0.0003790
  H        1.4904107    -2.1891901    -0.2498270
  H       -0.7789320     2.2044920     0.0000230
  H       -0.8600860    -1.9666840     0.0000480
units angstrom
no_reorient  #important for SAPT in psi4, default
symmetry c1  #important for SAPT in psi4, default
}

set PROPERTIES_ORIGIN ["COM"]
properties('MP2/aug-cc-pvtz', properties = ['dipole'])
--------------------------------------------------------------------------

    Molecular point group: c1
  Charge       = 0
  Multiplicity = 1
  Basis Set: AUG-CC-PVTZ
    Blend: AUG-CC-PVTZ
  Basis Set: (AUG-CC-PVTZ AUX)
    Blend: AUG-CC-PVTZ-JKFIT

    Orbital Energies [Eh]
    ---------------------

    Doubly Occupied:

       1A    -20.512170     2A    -15.628398     3A    -11.357205
       4A    -11.319116     5A    -11.276905     6A    -11.246978
       7A    -11.243842     8A     -1.372469     9A     -1.274352
      10A     -1.109543    11A     -1.031908    12A     -0.888229
      13A     -0.861941    14A     -0.755001    15A     -0.694911
      16A     -0.677041    17A     -0.639254    18A     -0.614032
      19A     -0.603038    20A     -0.560595    21A     -0.539573
      22A     -0.485019    23A     -0.426857    24A     -0.426410
      25A     -0.316715

  @DF-RHF Final Energy:  -321.67694620771670

   => Energetics <=

    Nuclear Repulsion Energy =            274.4258816662367622
    One-Electron Energy =                -980.4826558687835814
    Two-Electron Energy =                 384.3798279948301797
    Total Energy =                       -321.6769462077166963
  Basis Set: (AUG-CC-PVTZ AUX)
    Blend: AUG-CC-PVTZ-RI
    Molecular point group: c1

    Geometry (in Angstrom), charge = 0, multiplicity = 1:

       Center              X                  Y                   Z               Mass
    ------------   -----------------  -----------------  -----------------  -----------------
         O           -2.254203889401     0.005673479038     0.002999668298    15.994914619570
         N           -0.254848889401    -1.116527520962     0.002389668298    14.003074004430
         C            1.166913110599     1.201823479038     0.002712668298    12.000000000000
         C            1.853726110599    -0.045380520962     0.002722668298    12.000000000000
         C            1.110096110599    -1.190317520962     0.002781668298    12.000000000000
         C           -1.019989889401     0.063011479038     0.002319668298    12.000000000000
         C           -0.200658889401     1.259637479038     0.002495668298    12.000000000000
         H            1.741016110599     2.125756479038     0.002758668298     1.007825032230
         H            2.935912110599    -0.098639520962     0.003037668298     1.007825032230
         H            1.536606810599    -2.188379620962    -0.247168331702     1.007825032230
         H           -0.732735889401     2.205302479038     0.002681668298     1.007825032230
         H           -0.813889889401    -1.965873520962     0.002706668298     1.007825032230

  Basis Set: AUG-CC-PVTZ
    Blend: AUG-CC-PVTZ
  Basis Set: (AUG-CC-PVTZ AUX)
    Blend: AUG-CC-PVTZ-JKFIT
	 Reference Energy          =    -321.6769462077166963 [Eh]
	 Singles Energy            =      -0.0000000000000000 [Eh]
	 Same-Spin Energy          =      -0.3359127391396369 [Eh]
	 Opposite-Spin Energy      =      -1.0280750946028796 [Eh]
	 Correlation Energy        =      -1.3639878337425164 [Eh]
	 Total Energy              =    -323.0409340414591952 [Eh]

	 ================> DF-SCS-MP2 Energies <==================
	-----------------------------------------------------------
	 SCS Same-Spin Scale       =       0.3333333333333333 [-]
	 SCS Opposite-Spin Scale   =       1.2000000000000000 [-]
	 SCS Same-Spin Energy      =      -0.1119709130465456 [Eh]
	 SCS Opposite-Spin Energy  =      -1.2336901135234555 [Eh]
	 SCS Correlation Energy    =      -1.3456610265700011 [Eh]
	 SCS Total Energy          =    -323.0226072342866814 [Eh]
	-----------------------------------------------------------

  Dipole Moment: [D]
     X:     4.0751      Y:    -1.2428      Z:    -0.1741     Total:     4.2640

*** Psi4 exiting successfully. Buy a developer a beer!
