                               Psi4 1.3.2 release

  ==> Input File <==

--------------------------------------------------------------------------
#psi4
#
memory 32 gb

molecule  {
0 1
  O       -2.3004000     0.0048630     0.0003410
  N       -0.3010450    -1.1173380    -0.0002690
  C        1.1207170     1.2010130     0.0000540
  C        1.8075300    -0.0461910     0.0000640
  C        1.0639000    -1.1911280     0.0001230
  C       -1.0661860     0.0622010    -0.0003390
  C       -0.2468550     1.2588270    -0.0001630
  H        1.6948200     2.1249460     0.0001000
  H        2.8897160    -0.0994500     0.0003790
  H        1.4903610    -2.1891700     0.0001730
  H       -0.7789320     2.2044920     0.0000230
  H       -0.8601027    -1.9666571     0.1500480
units angstrom
no_reorient  #important for SAPT in psi4, default
symmetry c1  #important for SAPT in psi4, default
}

set PROPERTIES_ORIGIN ["COM"]
properties('MP2/aug-cc-pvtz', properties = ['dipole'])
--------------------------------------------------------------------------

    Molecular point group: c1
  Charge       = 0
  Multiplicity = 1
  Basis Set: AUG-CC-PVTZ
    Blend: AUG-CC-PVTZ
  Basis Set: (AUG-CC-PVTZ AUX)
    Blend: AUG-CC-PVTZ-JKFIT

    Orbital Energies [Eh]
    ---------------------

    Doubly Occupied:

       1A    -20.512185     2A    -15.629137     3A    -11.357017
       4A    -11.316839     5A    -11.276661     6A    -11.246105
       7A    -11.243135     8A     -1.372199     9A     -1.273827
      10A     -1.108656    11A     -1.032531    12A     -0.888083
      13A     -0.862361    14A     -0.754484    15A     -0.695960
      16A     -0.678919    17A     -0.639841    18A     -0.613259
      19A     -0.605017    20A     -0.559753    21A     -0.539995
      22A     -0.485744    23A     -0.427817    24A     -0.425396
      25A     -0.316593

  @DF-RHF Final Energy:  -321.67996211995012

   => Energetics <=

    Nuclear Repulsion Energy =            274.4798991541338182
    One-Electron Energy =                -980.5966954729038889
    Two-Electron Energy =                 384.4368341988199518
    Total Energy =                       -321.6799621199501189
  Basis Set: (AUG-CC-PVTZ AUX)
    Blend: AUG-CC-PVTZ-RI
    Molecular point group: c1

    Geometry (in Angstrom), charge = 0, multiplicity = 1:

       Center              X                  Y                   Z               Mass
    ------------   -----------------  -----------------  -----------------  -----------------
         O           -2.254203185259     0.005672980624    -0.001242148365    15.994914619570
         N           -0.254848185259    -1.116528019376    -0.001852148365    14.003074004430
         C            1.166913814741     1.201822980624    -0.001529148365    12.000000000000
         C            1.853726814741    -0.045381019376    -0.001519148365    12.000000000000
         C            1.110096814741    -1.190318019376    -0.001460148365    12.000000000000
         C           -1.019989185259     0.063010980624    -0.001922148365    12.000000000000
         C           -0.200658185259     1.259636980624    -0.001746148365    12.000000000000
         H            1.741016814741     2.125755980624    -0.001483148365     1.007825032230
         H            2.935912814741    -0.098640019376    -0.001204148365     1.007825032230
         H            1.536557814741    -2.188360019376    -0.001410148365     1.007825032230
         H           -0.732735185259     2.205301980624    -0.001560148365     1.007825032230
         H           -0.813905885259    -1.965847119376     0.148464851635     1.007825032230

  Basis Set: AUG-CC-PVTZ
    Blend: AUG-CC-PVTZ
  Basis Set: (AUG-CC-PVTZ AUX)
    Blend: AUG-CC-PVTZ-JKFIT
	 Reference Energy          =    -321.6799621199501189 [Eh]
	 Singles Energy            =      -0.0000000000000000 [Eh]
	 Same-Spin Energy          =      -0.3357076799635319 [Eh]
	 Opposite-Spin Energy      =      -1.0276889693907785 [Eh]
	 Correlation Energy        =      -1.3633966493543104 [Eh]
	 Total Energy              =    -323.0433587693044046 [Eh]

	 ================> DF-SCS-MP2 Energies <==================
	-----------------------------------------------------------
	 SCS Same-Spin Scale       =       0.3333333333333333 [-]
	 SCS Opposite-Spin Scale   =       1.2000000000000000 [-]
	 SCS Same-Spin Energy      =      -0.1119025599878440 [Eh]
	 SCS Opposite-Spin Energy  =      -1.2332267632689342 [Eh]
	 SCS Correlation Energy    =      -1.3451293232567783 [Eh]
	 SCS Total Energy          =    -323.0250914432069180 [Eh]
	-----------------------------------------------------------

  Dipole Moment: [D]
     X:     4.0869      Y:    -1.2864      Z:     0.1956     Total:     4.2891

*** Psi4 exiting successfully. Buy a developer a beer!
