                               Psi4 1.3.2 release

  ==> Input File <==

--------------------------------------------------------------------------
#psi4
#
memory 32 gb

molecule  {
0 1
  O       -2.3004000     0.0048630     0.0003410
  N       -0.3010450    -1.1173380    -0.0002690
  C        1.1207170     1.2010130     0.0000540
  C        1.8075300    -0.0461910     0.0000640
  C        1.0639000    -1.1911280     0.0001230
  C       -1.0661860     0.0622010    -0.0003390
  C       -0.2468550     1.2588270    -0.0001630
  H        1.6948200     2.1249460     0.0001000
  H        2.8897160    -0.0994500     0.0003790
  H        1.4903709    -2.1891740    -0.0498270
  H       -0.7789320     2.2044920     0.0000230
  H       -0.8600860    -1.9666840     0.0000480
units angstrom
no_reorient  #important for SAPT in psi4, default
symmetry c1  #important for SAPT in psi4, default
}

set PROPERTIES_ORIGIN ["COM"]
properties('MP2/aug-cc-pvtz', properties = ['dipole'])
--------------------------------------------------------------------------

    Molecular point group: c1
  Charge       = 0
  Multiplicity = 1
  Basis Set: AUG-CC-PVTZ
    Blend: AUG-CC-PVTZ
  Basis Set: (AUG-CC-PVTZ AUX)
    Blend: AUG-CC-PVTZ-JKFIT

    Orbital Energies [Eh]
    ---------------------

    Doubly Occupied:

       1A    -20.512008     2A    -15.628715     3A    -11.357046
       4A    -11.317177     5A    -11.276588     6A    -11.246087
       7A    -11.243114     8A     -1.372387     9A     -1.274598
      10A     -1.109154    11A     -1.032589    12A     -0.888984
      13A     -0.862768    14A     -0.756318    15A     -0.696111
      16A     -0.679211    17A     -0.639875    18A     -0.613152
      19A     -0.605609    20A     -0.560261    21A     -0.540250
      22A     -0.485784    23A     -0.426871    24A     -0.426304
      25A     -0.316497

  @DF-RHF Final Energy:  -321.68102476144236

   => Energetics <=

    Nuclear Repulsion Energy =            274.5293248865601186
    One-Electron Energy =                -980.6857807680976293
    Two-Electron Energy =                 384.4754311200952088
    Total Energy =                       -321.6810247614423588
  Basis Set: (AUG-CC-PVTZ AUX)
    Blend: AUG-CC-PVTZ-RI
    Molecular point group: c1

    Geometry (in Angstrom), charge = 0, multiplicity = 1:

       Center              X                  Y                   Z               Mass
    ------------   -----------------  -----------------  -----------------  -----------------
         O           -2.254203467340     0.005673308304     0.000878759967    15.994914619570
         N           -0.254848467340    -1.116527691696     0.000268759967    14.003074004430
         C            1.166913532660     1.201823308304     0.000591759967    12.000000000000
         C            1.853726532660    -0.045380691696     0.000601759967    12.000000000000
         C            1.110096532660    -1.190317691696     0.000660759967    12.000000000000
         C           -1.019989467340     0.063011308304     0.000198759967    12.000000000000
         C           -0.200658467340     1.259637308304     0.000374759967    12.000000000000
         H            1.741016532660     2.125756308304     0.000637759967     1.007825032230
         H            2.935912532660    -0.098639691696     0.000916759967     1.007825032230
         H            1.536567432660    -2.188363691696    -0.049289240033     1.007825032230
         H           -0.732735467340     2.205302308304     0.000560759967     1.007825032230
         H           -0.813889467340    -1.965873691696     0.000585759967     1.007825032230

  Basis Set: AUG-CC-PVTZ
    Blend: AUG-CC-PVTZ
  Basis Set: (AUG-CC-PVTZ AUX)
    Blend: AUG-CC-PVTZ-JKFIT
	 Reference Energy          =    -321.6810247614423588 [Eh]
	 Singles Energy            =      -0.0000000000000000 [Eh]
	 Same-Spin Energy          =      -0.3356442316335921 [Eh]
	 Opposite-Spin Energy      =      -1.0274723876104759 [Eh]
	 Correlation Energy        =      -1.3631166192440680 [Eh]
	 Total Energy              =    -323.0441413806864261 [Eh]

	 ================> DF-SCS-MP2 Energies <==================
	-----------------------------------------------------------
	 SCS Same-Spin Scale       =       0.3333333333333333 [-]
	 SCS Opposite-Spin Scale   =       1.2000000000000000 [-]
	 SCS Same-Spin Energy      =      -0.1118814105445307 [Eh]
	 SCS Opposite-Spin Energy  =      -1.2329668651325709 [Eh]
	 SCS Correlation Energy    =      -1.3448482756771016 [Eh]
	 SCS Total Energy          =    -323.0258730371194815 [Eh]
	-----------------------------------------------------------

  Dipole Moment: [D]
     X:     4.0873      Y:    -1.2973      Z:    -0.0355     Total:     4.2884

*** Psi4 exiting successfully. Buy a developer a beer!
