                               Psi4 1.3.2 release

  ==> Input File <==

--------------------------------------------------------------------------
#psi4
#
memory 32 gb

molecule  {
0 1
  O       -2.3004000     0.0048630     0.0003410
  N       -0.3010450    -1.1173380    -0.0002690
  C        1.1207170     1.2010130     0.0000540
  C        1.8075300    -0.0461910     0.0000640
  C        1.0639000    -1.1911280     0.0001230
  C       -1.0661860     0.0622010    -0.0003390
  C       -0.2467997     1.2588168     0.1998370
  H        1.6948200     2.1249460     0.0001000
  H        2.8897160    -0.0994500     0.0003790
  H        1.4903610    -2.1891700     0.0001730
  H       -0.7789320     2.2044920     0.0000230
  H       -0.8600860    -1.9666840     0.0000480
units angstrom
no_reorient  #important for SAPT in psi4, default
symmetry c1  #important for SAPT in psi4, default
}

set PROPERTIES_ORIGIN ["COM"]
properties('MP2/aug-cc-pvtz', properties = ['dipole'])
--------------------------------------------------------------------------

    Molecular point group: c1
  Charge       = 0
  Multiplicity = 1
  Basis Set: AUG-CC-PVTZ
    Blend: AUG-CC-PVTZ
  Basis Set: (AUG-CC-PVTZ AUX)
    Blend: AUG-CC-PVTZ-JKFIT

    Orbital Energies [Eh]
    ---------------------

    Doubly Occupied:

       1A    -20.512797     2A    -15.629181     3A    -11.358286
       4A    -11.319323     5A    -11.280356     6A    -11.246454
       7A    -11.245378     8A     -1.372530     9A     -1.275137
      10A     -1.107646    11A     -1.031036    12A     -0.887637
      13A     -0.861383    14A     -0.755641    15A     -0.694055
      16A     -0.679020    17A     -0.636639    18A     -0.614088
      19A     -0.603284    20A     -0.559217    21A     -0.535940
      22A     -0.485754    23A     -0.426037    24A     -0.424398
      25A     -0.317259

  @DF-RHF Final Energy:  -321.67026335817843

   => Energetics <=

    Nuclear Repulsion Energy =            274.0925713578804448
    One-Electron Energy =                -979.8087206234154110
    Two-Electron Energy =                 384.0458859073565918
    Total Energy =                       -321.6702633581784312
  Basis Set: (AUG-CC-PVTZ AUX)
    Blend: AUG-CC-PVTZ-RI
    Molecular point group: c1

    Geometry (in Angstrom), charge = 0, multiplicity = 1:

       Center              X                  Y                   Z               Mass
    ------------   -----------------  -----------------  -----------------  -----------------
         O           -2.254210344890     0.005674553804    -0.024904759271    15.994914619570
         N           -0.254855344890    -1.116526446196    -0.025514759271    14.003074004430
         C            1.166906655110     1.201824553804    -0.025191759271    12.000000000000
         C            1.853719655110    -0.045379446196    -0.025181759271    12.000000000000
         C            1.110089655110    -1.190316446196    -0.025122759271    12.000000000000
         C           -1.019996344890     0.063012553804    -0.025584759271    12.000000000000
         C           -0.200610044890     1.259628353804     0.174591240729    12.000000000000
         H            1.741009655110     2.125757553804    -0.025145759271     1.007825032230
         H            2.935905655110    -0.098638446196    -0.024866759271     1.007825032230
         H            1.536550655110    -2.188358446196    -0.025072759271     1.007825032230
         H           -0.732742344890     2.205303553804    -0.025222759271     1.007825032230
         H           -0.813896344890    -1.965872446196    -0.025197759271     1.007825032230

  Basis Set: AUG-CC-PVTZ
    Blend: AUG-CC-PVTZ
  Basis Set: (AUG-CC-PVTZ AUX)
    Blend: AUG-CC-PVTZ-JKFIT
	 Reference Energy          =    -321.6702633581784312 [Eh]
	 Singles Energy            =      -0.0000000000000000 [Eh]
	 Same-Spin Energy          =      -0.3360329696158341 [Eh]
	 Opposite-Spin Energy      =      -1.0286274022233917 [Eh]
	 Correlation Energy        =      -1.3646603718392258 [Eh]
	 Total Energy              =    -323.0349237300176810 [Eh]

	 ================> DF-SCS-MP2 Energies <==================
	-----------------------------------------------------------
	 SCS Same-Spin Scale       =       0.3333333333333333 [-]
	 SCS Opposite-Spin Scale   =       1.2000000000000000 [-]
	 SCS Same-Spin Energy      =      -0.1120109898719447 [Eh]
	 SCS Opposite-Spin Energy  =      -1.2343528826680699 [Eh]
	 SCS Correlation Energy    =      -1.3463638725400147 [Eh]
	 SCS Total Energy          =    -323.0166272307184272 [Eh]
	-----------------------------------------------------------

  Dipole Moment: [D]
     X:     4.0946      Y:    -1.3755      Z:    -0.1152     Total:     4.3211

*** Psi4 exiting successfully. Buy a developer a beer!
