                               Psi4 1.3.2 release

  ==> Input File <==

--------------------------------------------------------------------------
#psi4
#
memory 32 gb

molecule  {
0 1
  O       -2.3004000     0.0048630     0.0003410
  N       -0.3010450    -1.1173380    -0.0002690
  C        1.1207170     1.2010130     0.0000540
  C        1.8075300    -0.0461910     0.0000640
  C        1.0639000    -1.1911280     0.0001230
  C       -1.0661860     0.0622010    -0.0003390
  C       -0.2468550     1.2588270    -0.0001630
  H        1.6948575     2.1249529    -0.2999000
  H        2.8897160    -0.0994500     0.0003790
  H        1.4903610    -2.1891700     0.0001730
  H       -0.7789320     2.2044920     0.0000230
  H       -0.8600860    -1.9666840     0.0000480
units angstrom
no_reorient  #important for SAPT in psi4, default
symmetry c1  #important for SAPT in psi4, default
}

set PROPERTIES_ORIGIN ["COM"]
properties('MP2/aug-cc-pvtz', properties = ['dipole'])
--------------------------------------------------------------------------

    Molecular point group: c1
  Charge       = 0
  Multiplicity = 1
  Basis Set: AUG-CC-PVTZ
    Blend: AUG-CC-PVTZ
  Basis Set: (AUG-CC-PVTZ AUX)
    Blend: AUG-CC-PVTZ-JKFIT

    Orbital Energies [Eh]
    ---------------------

    Doubly Occupied:

       1A    -20.512563     2A    -15.628933     3A    -11.357570
       4A    -11.317107     5A    -11.280374     6A    -11.246282
       7A    -11.244195     8A     -1.372845     9A     -1.274893
      10A     -1.108603    11A     -1.032906    12A     -0.887069
      13A     -0.861767    14A     -0.756650    15A     -0.696208
      16A     -0.674306    17A     -0.638040    18A     -0.613353
      19A     -0.605994    20A     -0.558307    21A     -0.539164
      22A     -0.485852    23A     -0.431111    24A     -0.420520
      25A     -0.316811

  @DF-RHF Final Energy:  -321.67462325270185

   => Energetics <=

    Nuclear Repulsion Energy =            274.3845784969605575
    One-Electron Energy =                -980.3955567518448788
    Two-Electron Energy =                 384.3363550021824722
    Total Energy =                       -321.6746232527018492
  Basis Set: (AUG-CC-PVTZ AUX)
    Blend: AUG-CC-PVTZ-RI
    Molecular point group: c1

    Geometry (in Angstrom), charge = 0, multiplicity = 1:

       Center              X                  Y                   Z               Mass
    ------------   -----------------  -----------------  -----------------  -----------------
         O           -2.254203760025     0.005673192715     0.003529895381    15.994914619570
         N           -0.254848760025    -1.116527807285     0.002919895381    14.003074004430
         C            1.166913239975     1.201823192715     0.003242895381    12.000000000000
         C            1.853726239975    -0.045380807285     0.003252895381    12.000000000000
         C            1.110096239975    -1.190317807285     0.003311895381    12.000000000000
         C           -1.019989760025     0.063011192715     0.002849895381    12.000000000000
         C           -0.200658760025     1.259637192715     0.003025895381    12.000000000000
         H            1.741053739975     2.125763092715    -0.296711104619     1.007825032230
         H            2.935912239975    -0.098639807285     0.003567895381     1.007825032230
         H            1.536557239975    -2.188359807285     0.003361895381     1.007825032230
         H           -0.732735760025     2.205302192715     0.003211895381     1.007825032230
         H           -0.813889760025    -1.965873807285     0.003236895381     1.007825032230

  Basis Set: AUG-CC-PVTZ
    Blend: AUG-CC-PVTZ
  Basis Set: (AUG-CC-PVTZ AUX)
    Blend: AUG-CC-PVTZ-JKFIT
	 Reference Energy          =    -321.6746232527018492 [Eh]
	 Singles Energy            =      -0.0000000000000000 [Eh]
	 Same-Spin Energy          =      -0.3359709025886268 [Eh]
	 Opposite-Spin Energy      =      -1.0282983249002262 [Eh]
	 Correlation Energy        =      -1.3642692274888530 [Eh]
	 Total Energy              =    -323.0388924801907251 [Eh]

	 ================> DF-SCS-MP2 Energies <==================
	-----------------------------------------------------------
	 SCS Same-Spin Scale       =       0.3333333333333333 [-]
	 SCS Opposite-Spin Scale   =       1.2000000000000000 [-]
	 SCS Same-Spin Energy      =      -0.1119903008628756 [Eh]
	 SCS Opposite-Spin Energy  =      -1.2339579898802715 [Eh]
	 SCS Correlation Energy    =      -1.3459482907431470 [Eh]
	 SCS Total Energy          =    -323.0205715434449871 [Eh]
	-----------------------------------------------------------

  Dipole Moment: [D]
     X:     4.0414      Y:    -1.3462      Z:    -0.1754     Total:     4.2633

*** Psi4 exiting successfully. Buy a developer a beer!
