                               Psi4 1.3.2 release

  ==> Input File <==

--------------------------------------------------------------------------
#psi4
#
memory 32 gb

molecule  {
0 1
  O       -2.3004000     0.0048630     0.0003410
  N       -0.3010450    -1.1173380    -0.0002690
  C        1.1207170     1.2010130     0.0000540
  C        1.8075300    -0.0461910     0.0000640
  C        1.0639000    -1.1911280     0.0001230
  C       -1.0661860     0.0622010    -0.0003390
  C       -0.2468550     1.2588270    -0.0001630
  H        1.6948200     2.1249460     0.0001000
  H        2.8897160    -0.0994500     0.0003790
  H        1.4903610    -2.1891700     0.0001730
  H       -0.7789024     2.2045387    -0.2999770
  H       -0.8600860    -1.9666840     0.0000480
units angstrom
no_reorient  #important for SAPT in psi4, default
symmetry c1  #important for SAPT in psi4, default
}

set PROPERTIES_ORIGIN ["COM"]
properties('MP2/aug-cc-pvtz', properties = ['dipole'])
--------------------------------------------------------------------------

    Molecular point group: c1
  Charge       = 0
  Multiplicity = 1
  Basis Set: AUG-CC-PVTZ
    Blend: AUG-CC-PVTZ
  Basis Set: (AUG-CC-PVTZ AUX)
    Blend: AUG-CC-PVTZ-JKFIT

    Orbital Energies [Eh]
    ---------------------

    Doubly Occupied:

       1A    -20.512264     2A    -15.629130     3A    -11.357253
       4A    -11.317981     5A    -11.277375     6A    -11.246461
       7A    -11.246309     8A     -1.372560     9A     -1.275024
      10A     -1.109173    11A     -1.032257    12A     -0.888365
      13A     -0.862338    14A     -0.754621    15A     -0.696218
      16A     -0.679380    17A     -0.635842    18A     -0.612920
      19A     -0.605303    20A     -0.560444    21A     -0.535556
      22A     -0.485876    23A     -0.428792    24A     -0.423450
      25A     -0.316579

  @DF-RHF Final Energy:  -321.67521674839026

   => Energetics <=

    Nuclear Repulsion Energy =            274.3772077940948293
    One-Electron Energy =                -980.3819100090855727
    Two-Electron Energy =                 384.3294854666004881
    Total Energy =                       -321.6752167483902554
  Basis Set: (AUG-CC-PVTZ AUX)
    Blend: AUG-CC-PVTZ-RI
    Molecular point group: c1

    Geometry (in Angstrom), charge = 0, multiplicity = 1:

       Center              X                  Y                   Z               Mass
    ------------   -----------------  -----------------  -----------------  -----------------
         O           -2.254203676249     0.005672770654     0.003529895381    15.994914619570
         N           -0.254848676249    -1.116528229346     0.002919895381    14.003074004430
         C            1.166913323751     1.201822770654     0.003242895381    12.000000000000
         C            1.853726323751    -0.045381229346     0.003252895381    12.000000000000
         C            1.110096323751    -1.190318229346     0.003311895381    12.000000000000
         C           -1.019989676249     0.063010770654     0.002849895381    12.000000000000
         C           -0.200658676249     1.259636770654     0.003025895381    12.000000000000
         H            1.741016323751     2.125755770654     0.003288895381     1.007825032230
         H            2.935912323751    -0.098640229346     0.003567895381     1.007825032230
         H            1.536557323751    -2.188360229346     0.003361895381     1.007825032230
         H           -0.732706076249     2.205348470654    -0.296788104619     1.007825032230
         H           -0.813889676249    -1.965874229346     0.003236895381     1.007825032230

  Basis Set: AUG-CC-PVTZ
    Blend: AUG-CC-PVTZ
  Basis Set: (AUG-CC-PVTZ AUX)
    Blend: AUG-CC-PVTZ-JKFIT
	 Reference Energy          =    -321.6752167483902554 [Eh]
	 Singles Energy            =      -0.0000000000000000 [Eh]
	 Same-Spin Energy          =      -0.3358698253120694 [Eh]
	 Opposite-Spin Energy      =      -1.0280114615784715 [Eh]
	 Correlation Energy        =      -1.3638812868905408 [Eh]
	 Total Energy              =    -323.0390980352808015 [Eh]

	 ================> DF-SCS-MP2 Energies <==================
	-----------------------------------------------------------
	 SCS Same-Spin Scale       =       0.3333333333333333 [-]
	 SCS Opposite-Spin Scale   =       1.2000000000000000 [-]
	 SCS Same-Spin Energy      =      -0.1119566084373565 [Eh]
	 SCS Opposite-Spin Energy  =      -1.2336137538941656 [Eh]
	 SCS Correlation Energy    =      -1.3455703623315221 [Eh]
	 SCS Total Energy          =    -323.0207871107217557 [Eh]
	-----------------------------------------------------------

  Dipole Moment: [D]
     X:     4.1069      Y:    -1.3525      Z:    -0.1899     Total:     4.3280

*** Psi4 exiting successfully. Buy a developer a beer!
