                               Psi4 1.3.2 release

  ==> Input File <==

--------------------------------------------------------------------------
#psi4
#
memory 32 gb

molecule  {
0 1
  O       -2.3004000     0.0048630     0.0003410
  N       -0.3010450    -1.1173380    -0.0002690
  C        1.1207170     1.2010130     0.0000540
  C        1.8075300    -0.0461910     0.0000640
  C        1.0639000    -1.1911280     0.0001230
  C       -1.0661860     0.0622010    -0.0003390
  C       -0.2468550     1.2588270    -0.0001630
  H        1.6948200     2.1249460     0.0001000
  H        2.8897160    -0.0994500     0.0003790
  H        1.4904007    -2.1891861    -0.1998270
  H       -0.7789320     2.2044920     0.0000230
  H       -0.8600860    -1.9666840     0.0000480
units angstrom
no_reorient  #important for SAPT in psi4, default
symmetry c1  #important for SAPT in psi4, default
}

set PROPERTIES_ORIGIN ["COM"]
properties('MP2/aug-cc-pvtz', properties = ['dipole'])
--------------------------------------------------------------------------

    Molecular point group: c1
  Charge       = 0
  Multiplicity = 1
  Basis Set: AUG-CC-PVTZ
    Blend: AUG-CC-PVTZ
  Basis Set: (AUG-CC-PVTZ AUX)
    Blend: AUG-CC-PVTZ-JKFIT

    Orbital Energies [Eh]
    ---------------------

    Doubly Occupied:

       1A    -20.512108     2A    -15.628511     3A    -11.357144
       4A    -11.318399     5A    -11.276786     6A    -11.246648
       7A    -11.243572     8A     -1.372436     9A     -1.274440
      10A     -1.109398    11A     -1.032149    12A     -0.888489
      13A     -0.862242    14A     -0.755459    15A     -0.695300
      16A     -0.677874    17A     -0.639499    18A     -0.613763
      19A     -0.603941    20A     -0.560470    21A     -0.539841
      22A     -0.485302    23A     -0.426850    24A     -0.426383
      25A     -0.316633

  @DF-RHF Final Energy:  -321.67854519163905

   => Energetics <=

    Nuclear Repulsion Energy =            274.4639816804918837
    One-Electron Energy =                -980.5577777117481446
    Two-Electron Energy =                 384.4152508396172152
    Total Energy =                       -321.6785451916390457
  Basis Set: (AUG-CC-PVTZ AUX)
    Blend: AUG-CC-PVTZ-RI
    Molecular point group: c1

    Geometry (in Angstrom), charge = 0, multiplicity = 1:

       Center              X                  Y                   Z               Mass
    ------------   -----------------  -----------------  -----------------  -----------------
         O           -2.254203783355     0.005673436619     0.002469441215    15.994914619570
         N           -0.254848783355    -1.116527563381     0.001859441215    14.003074004430
         C            1.166913216645     1.201823436619     0.002182441215    12.000000000000
         C            1.853726216645    -0.045380563381     0.002192441215    12.000000000000
         C            1.110096216645    -1.190317563381     0.002251441215    12.000000000000
         C           -1.019989783355     0.063011436619     0.001789441215    12.000000000000
         C           -0.200658783355     1.259637436619     0.001965441215    12.000000000000
         H            1.741016216645     2.125756436619     0.002228441215     1.007825032230
         H            2.935912216645    -0.098639563381     0.002507441215     1.007825032230
         H            1.536596916645    -2.188375663381    -0.197698558785     1.007825032230
         H           -0.732735783355     2.205302436619     0.002151441215     1.007825032230
         H           -0.813889783355    -1.965873563381     0.002176441215     1.007825032230

  Basis Set: AUG-CC-PVTZ
    Blend: AUG-CC-PVTZ
  Basis Set: (AUG-CC-PVTZ AUX)
    Blend: AUG-CC-PVTZ-JKFIT
	 Reference Energy          =    -321.6785451916390457 [Eh]
	 Singles Energy            =      -0.0000000000000000 [Eh]
	 Same-Spin Energy          =      -0.3358129000489586 [Eh]
	 Opposite-Spin Energy      =      -1.0278388543310966 [Eh]
	 Correlation Energy        =      -1.3636517543800553 [Eh]
	 Total Energy              =    -323.0421969460190894 [Eh]

	 ================> DF-SCS-MP2 Energies <==================
	-----------------------------------------------------------
	 SCS Same-Spin Scale       =       0.3333333333333333 [-]
	 SCS Opposite-Spin Scale   =       1.2000000000000000 [-]
	 SCS Same-Spin Energy      =      -0.1119376333496529 [Eh]
	 SCS Opposite-Spin Energy  =      -1.2334066251973159 [Eh]
	 SCS Correlation Energy    =      -1.3453442585469688 [Eh]
	 SCS Total Energy          =    -323.0238894501860045 [Eh]
	-----------------------------------------------------------

  Dipole Moment: [D]
     X:     4.0798      Y:    -1.2629      Z:    -0.1401     Total:     4.2731

*** Psi4 exiting successfully. Buy a developer a beer!
