                               Psi4 1.3.2 release

  ==> Input File <==

--------------------------------------------------------------------------
#psi4
#
memory 32 gb

molecule  {
0 1
  O       -2.3004000     0.0048630     0.0003410
  N       -0.3010450    -1.1173380    -0.0002690
  C        1.1207170     1.2010130     0.0000540
  C        1.8075300    -0.0461910     0.0000640
  C        1.0639000    -1.1911280     0.0001230
  C       -1.0661860     0.0622010    -0.0003390
  C       -0.2467859     1.2588143     0.2498370
  H        1.6948200     2.1249460     0.0001000
  H        2.8897160    -0.0994500     0.0003790
  H        1.4903610    -2.1891700     0.0001730
  H       -0.7789320     2.2044920     0.0000230
  H       -0.8600860    -1.9666840     0.0000480
units angstrom
no_reorient  #important for SAPT in psi4, default
symmetry c1  #important for SAPT in psi4, default
}

set PROPERTIES_ORIGIN ["COM"]
properties('MP2/aug-cc-pvtz', properties = ['dipole'])
--------------------------------------------------------------------------

    Molecular point group: c1
  Charge       = 0
  Multiplicity = 1
  Basis Set: AUG-CC-PVTZ
    Blend: AUG-CC-PVTZ
  Basis Set: (AUG-CC-PVTZ AUX)
    Blend: AUG-CC-PVTZ-JKFIT

    Orbital Energies [Eh]
    ---------------------

    Doubly Occupied:

       1A    -20.513269     2A    -15.629458     3A    -11.358948
       4A    -11.320593     5A    -11.282425     6A    -11.246710
       7A    -11.246618     8A     -1.372632     9A     -1.275457
      10A     -1.106883    11A     -1.030106    12A     -0.886931
      13A     -0.860648    14A     -0.755361    15A     -0.693126
      16A     -0.678678    17A     -0.635113    18A     -0.614413
      19A     -0.602227    20A     -0.558631    21A     -0.533265
      22A     -0.485734    23A     -0.425473    24A     -0.423460
      25A     -0.317723

  @DF-RHF Final Energy:  -321.66401129430022

   => Energetics <=

    Nuclear Repulsion Energy =            273.8491775613462664
    One-Electron Energy =                -979.3186103375995799
    Two-Electron Energy =                 383.8054214819531467
    Total Energy =                       -321.6640112943002237
  Basis Set: (AUG-CC-PVTZ AUX)
    Blend: AUG-CC-PVTZ-RI
    Molecular point group: c1

    Geometry (in Angstrom), charge = 0, multiplicity = 1:

       Center              X                  Y                   Z               Mass
    ------------   -----------------  -----------------  -----------------  -----------------
         O           -2.254212087367     0.005674869470    -0.031218082310    15.994914619570
         N           -0.254857087367    -1.116526130530    -0.031828082310    14.003074004430
         C            1.166904912633     1.201824869470    -0.031505082310    12.000000000000
         C            1.853717912633    -0.045379130530    -0.031495082310    12.000000000000
         C            1.110087912633    -1.190316130530    -0.031436082310    12.000000000000
         C           -1.019998087367     0.063012869470    -0.031898082310    12.000000000000
         C           -0.200597987367     1.259626169470     0.218277917690    12.000000000000
         H            1.741007912633     2.125757869470    -0.031459082310     1.007825032230
         H            2.935903912633    -0.098638130530    -0.031180082310     1.007825032230
         H            1.536548912633    -2.188358130530    -0.031386082310     1.007825032230
         H           -0.732744087367     2.205303869470    -0.031536082310     1.007825032230
         H           -0.813898087367    -1.965872130530    -0.031511082310     1.007825032230

  Basis Set: AUG-CC-PVTZ
    Blend: AUG-CC-PVTZ
  Basis Set: (AUG-CC-PVTZ AUX)
    Blend: AUG-CC-PVTZ-JKFIT
	 Reference Energy          =    -321.6640112943002237 [Eh]
	 Singles Energy            =      -0.0000000000000000 [Eh]
	 Same-Spin Energy          =      -0.3362597884761007 [Eh]
	 Opposite-Spin Energy      =      -1.0293730022930683 [Eh]
	 Correlation Energy        =      -1.3656327907691690 [Eh]
	 Total Energy              =    -323.0296440850693784 [Eh]

	 ================> DF-SCS-MP2 Energies <==================
	-----------------------------------------------------------
	 SCS Same-Spin Scale       =       0.3333333333333333 [-]
	 SCS Opposite-Spin Scale   =       1.2000000000000000 [-]
	 SCS Same-Spin Energy      =      -0.1120865961587002 [Eh]
	 SCS Opposite-Spin Energy  =      -1.2352476027516819 [Eh]
	 SCS Correlation Energy    =      -1.3473341989103822 [Eh]
	 SCS Total Energy          =    -323.0113454932106265 [Eh]
	-----------------------------------------------------------

  Dipole Moment: [D]
     X:     4.0976      Y:    -1.4177      Z:    -0.1477     Total:     4.3384

*** Psi4 exiting successfully. Buy a developer a beer!
