                               Psi4 1.3.2 release

  ==> Input File <==

--------------------------------------------------------------------------
#psi4
#
memory 32 gb

molecule  {
0 1
  O       -2.3004000     0.0048630     0.0003410
  N       -0.3010450    -1.1173380    -0.0002690
  C        1.1207170     1.2010130     0.0000540
  C        1.8075300    -0.0461910     0.0000640
  C        1.0639000    -1.1911280     0.0001230
  C       -1.0661860     0.0622010    -0.0003390
  C       -0.2468550     1.2588270    -0.0001630
  H        1.6948200     2.1249460     0.0001000
  H        2.8897000    -0.0994467     0.1003790
  H        1.4903610    -2.1891700     0.0001730
  H       -0.7789320     2.2044920     0.0000230
  H       -0.8600860    -1.9666840     0.0000480
units angstrom
no_reorient  #important for SAPT in psi4, default
symmetry c1  #important for SAPT in psi4, default
}

set PROPERTIES_ORIGIN ["COM"]
properties('MP2/aug-cc-pvtz', properties = ['dipole'])
--------------------------------------------------------------------------

    Molecular point group: c1
  Charge       = 0
  Multiplicity = 1
  Basis Set: AUG-CC-PVTZ
    Blend: AUG-CC-PVTZ
  Basis Set: (AUG-CC-PVTZ AUX)
    Blend: AUG-CC-PVTZ-JKFIT

    Orbital Energies [Eh]
    ---------------------

    Doubly Occupied:

       1A    -20.512110     2A    -15.628832     3A    -11.357124
       4A    -11.317246     5A    -11.276585     6A    -11.246403
       7A    -11.243100     8A     -1.372478     9A     -1.274704
      10A     -1.109105    11A     -1.032574    12A     -0.889019
      13A     -0.862720    14A     -0.756038    15A     -0.696111
      16A     -0.679327    17A     -0.639699    18A     -0.613049
      19A     -0.605702    20A     -0.559805    21A     -0.540235
      22A     -0.485735    23A     -0.426960    24A     -0.426246
      25A     -0.316534

  @DF-RHF Final Energy:  -321.68062008442297

   => Energetics <=

    Nuclear Repulsion Energy =            274.5165061812778617
    One-Electron Energy =                -980.6593707229624215
    Two-Electron Energy =                 384.4622444572615336
    Total Energy =                       -321.6806200844229693
  Basis Set: (AUG-CC-PVTZ AUX)
    Blend: AUG-CC-PVTZ-RI
    Molecular point group: c1

    Geometry (in Angstrom), charge = 0, multiplicity = 1:

       Center              X                  Y                   Z               Mass
    ------------   -----------------  -----------------  -----------------  -----------------
         O           -2.254203192682     0.005673230891    -0.000711921282    15.994914619570
         N           -0.254848192682    -1.116527769109    -0.001321921282    14.003074004430
         C            1.166913807318     1.201823230891    -0.000998921282    12.000000000000
         C            1.853726807318    -0.045380769109    -0.000988921282    12.000000000000
         C            1.110096807318    -1.190317769109    -0.000929921282    12.000000000000
         C           -1.019989192682     0.063011230891    -0.001391921282    12.000000000000
         C           -0.200658192682     1.259637230891    -0.001215921282    12.000000000000
         H            1.741016807318     2.125756230891    -0.000952921282     1.007825032230
         H            2.935896807318    -0.098636469109     0.099326078718     1.007825032230
         H            1.536557807318    -2.188359769109    -0.000879921282     1.007825032230
         H           -0.732735192682     2.205302230891    -0.001029921282     1.007825032230
         H           -0.813889192682    -1.965873769109    -0.001004921282     1.007825032230

  Basis Set: AUG-CC-PVTZ
    Blend: AUG-CC-PVTZ
  Basis Set: (AUG-CC-PVTZ AUX)
    Blend: AUG-CC-PVTZ-JKFIT
	 Reference Energy          =    -321.6806200844229693 [Eh]
	 Singles Energy            =      -0.0000000000000000 [Eh]
	 Same-Spin Energy          =      -0.3356510791421308 [Eh]
	 Opposite-Spin Energy      =      -1.0274970670225576 [Eh]
	 Correlation Energy        =      -1.3631481461646884 [Eh]
	 Total Energy              =    -323.0437682305876592 [Eh]

	 ================> DF-SCS-MP2 Energies <==================
	-----------------------------------------------------------
	 SCS Same-Spin Scale       =       0.3333333333333333 [-]
	 SCS Opposite-Spin Scale   =       1.2000000000000000 [-]
	 SCS Same-Spin Energy      =      -0.1118836930473769 [Eh]
	 SCS Opposite-Spin Energy  =      -1.2329964804270690 [Eh]
	 SCS Correlation Energy    =      -1.3448801734744460 [Eh]
	 SCS Total Energy          =    -323.0255002578974199 [Eh]
	-----------------------------------------------------------

  Dipole Moment: [D]
     X:     4.0772      Y:    -1.2998      Z:     0.0736     Total:     4.2800

*** Psi4 exiting successfully. Buy a developer a beer!
