                               Psi4 1.3.2 release

  ==> Input File <==

--------------------------------------------------------------------------
#psi4
#
memory 32 gb

molecule  {
0 1
  O       -2.3004000     0.0048630     0.0003410
  N       -0.3010450    -1.1173380    -0.0002690
  C        1.1207170     1.2010130     0.0000540
  C        1.8075300    -0.0461910     0.0000640
  C        1.0639000    -1.1911280     0.0001230
  C       -1.0661860     0.0622010    -0.0003390
  C       -0.2468550     1.2588270    -0.0001630
  H        1.6948200     2.1249460     0.0001000
  H        2.8897160    -0.0994500     0.0003790
  H        1.4903610    -2.1891700     0.0001730
  H       -0.7789172     2.2045154    -0.1499770
  H       -0.8600860    -1.9666840     0.0000480
units angstrom
no_reorient  #important for SAPT in psi4, default
symmetry c1  #important for SAPT in psi4, default
}

set PROPERTIES_ORIGIN ["COM"]
properties('MP2/aug-cc-pvtz', properties = ['dipole'])
--------------------------------------------------------------------------

    Molecular point group: c1
  Charge       = 0
  Multiplicity = 1
  Basis Set: AUG-CC-PVTZ
    Blend: AUG-CC-PVTZ
  Basis Set: (AUG-CC-PVTZ AUX)
    Blend: AUG-CC-PVTZ-JKFIT

    Orbital Energies [Eh]
    ---------------------

    Doubly Occupied:

       1A    -20.512069     2A    -15.628828     3A    -11.357089
       4A    -11.317318     5A    -11.276773     6A    -11.246150
       7A    -11.243906     8A     -1.372428     9A     -1.274712
      10A     -1.109139    11A     -1.032517    12A     -0.888831
      13A     -0.862675    14A     -0.755893    15A     -0.696177
      16A     -0.679307    17A     -0.638807    18A     -0.613057
      19A     -0.605628    20A     -0.560287    21A     -0.539141
      22A     -0.485832    23A     -0.427796    24A     -0.425134
      25A     -0.316507

  @DF-RHF Final Energy:  -321.67982160801552

   => Energetics <=

    Nuclear Repulsion Energy =            274.4934168293017933
    One-Electron Energy =                -980.6144795155980773
    Two-Electron Energy =                 384.4412410782807115
    Total Energy =                       -321.6798216080155157
  Basis Set: (AUG-CC-PVTZ AUX)
    Blend: AUG-CC-PVTZ-RI
    Molecular point group: c1

    Geometry (in Angstrom), charge = 0, multiplicity = 1:

       Center              X                  Y                   Z               Mass
    ------------   -----------------  -----------------  -----------------  -----------------
         O           -2.254203519302     0.005673017740     0.001939214132    15.994914619570
         N           -0.254848519302    -1.116527982260     0.001329214132    14.003074004430
         C            1.166913480698     1.201823017740     0.001652214132    12.000000000000
         C            1.853726480698    -0.045380982260     0.001662214132    12.000000000000
         C            1.110096480698    -1.190317982260     0.001721214132    12.000000000000
         C           -1.019989519302     0.063011017740     0.001259214132    12.000000000000
         C           -0.200658519302     1.259637017740     0.001435214132    12.000000000000
         H            1.741016480698     2.125756017740     0.001698214132     1.007825032230
         H            2.935912480698    -0.098639982260     0.001977214132     1.007825032230
         H            1.536557480698    -2.188359982260     0.001771214132     1.007825032230
         H           -0.732720719302     2.205325417740    -0.148378785868     1.007825032230
         H           -0.813889519302    -1.965873982260     0.001646214132     1.007825032230

  Basis Set: AUG-CC-PVTZ
    Blend: AUG-CC-PVTZ
  Basis Set: (AUG-CC-PVTZ AUX)
    Blend: AUG-CC-PVTZ-JKFIT
	 Reference Energy          =    -321.6798216080155157 [Eh]
	 Singles Energy            =      -0.0000000000000000 [Eh]
	 Same-Spin Energy          =      -0.3356925512843008 [Eh]
	 Opposite-Spin Energy      =      -1.0275702035160208 [Eh]
	 Correlation Energy        =      -1.3632627548003216 [Eh]
	 Total Energy              =    -323.0430843628158186 [Eh]

	 ================> DF-SCS-MP2 Energies <==================
	-----------------------------------------------------------
	 SCS Same-Spin Scale       =       0.3333333333333333 [-]
	 SCS Opposite-Spin Scale   =       1.2000000000000000 [-]
	 SCS Same-Spin Energy      =      -0.1118975170947669 [Eh]
	 SCS Opposite-Spin Energy  =      -1.2330842442192249 [Eh]
	 SCS Correlation Energy    =      -1.3449817613139918 [Eh]
	 SCS Total Energy          =    -323.0248033693295042 [Eh]
	-----------------------------------------------------------

  Dipole Moment: [D]
     X:     4.0927      Y:    -1.3132      Z:    -0.0964     Total:     4.2993

*** Psi4 exiting successfully. Buy a developer a beer!
