                               Psi4 1.3.2 release

  ==> Input File <==

--------------------------------------------------------------------------
#psi4
#
memory 32 gb

molecule  {
0 1
  O       -2.3004000     0.0048630     0.0003410
  N       -0.3010450    -1.1173380    -0.0002690
  C        1.1207170     1.2010130     0.0000540
  C        1.8075300    -0.0461910     0.0000640
  C        1.0639000    -1.1911280     0.0001230
  C       -1.0661860     0.0622010    -0.0003390
  C       -0.2468550     1.2588270    -0.0001630
  H        1.6948200     2.1249460     0.0001000
  H        2.8896761    -0.0994418     0.2503790
  H        1.4903610    -2.1891700     0.0001730
  H       -0.7789320     2.2044920     0.0000230
  H       -0.8600860    -1.9666840     0.0000480
units angstrom
no_reorient  #important for SAPT in psi4, default
symmetry c1  #important for SAPT in psi4, default
}

set PROPERTIES_ORIGIN ["COM"]
properties('MP2/aug-cc-pvtz', properties = ['dipole'])
--------------------------------------------------------------------------

    Molecular point group: c1
  Charge       = 0
  Multiplicity = 1
  Basis Set: AUG-CC-PVTZ
    Blend: AUG-CC-PVTZ
  Basis Set: (AUG-CC-PVTZ AUX)
    Blend: AUG-CC-PVTZ-JKFIT

    Orbital Energies [Eh]
    ---------------------

    Doubly Occupied:

       1A    -20.512675     2A    -15.629366     3A    -11.357557
       4A    -11.318030     5A    -11.276658     6A    -11.248232
       7A    -11.243206     8A     -1.372961     9A     -1.275198
      10A     -1.108963    11A     -1.032364    12A     -0.889035
      13A     -0.862332    14A     -0.754410    15A     -0.695818
      16A     -0.679490    17A     -0.638753    18A     -0.612827
      19A     -0.605524    20A     -0.557487    21A     -0.539952
      22A     -0.485307    23A     -0.427425    24A     -0.425964
      25A     -0.316775

  @DF-RHF Final Energy:  -321.67737198291485

   => Energetics <=

    Nuclear Repulsion Energy =            274.4286334882407914
    One-Electron Energy =                -980.4793940539474306
    Two-Electron Energy =                 384.3733885827918471
    Total Energy =                       -321.6773719829148490
  Basis Set: (AUG-CC-PVTZ AUX)
    Blend: AUG-CC-PVTZ-RI
    Molecular point group: c1

    Geometry (in Angstrom), charge = 0, multiplicity = 1:

       Center              X                  Y                   Z               Mass
    ------------   -----------------  -----------------  -----------------  -----------------
         O           -2.254202939234     0.005673178929    -0.002302602531    15.994914619570
         N           -0.254847939234    -1.116527821071    -0.002912602531    14.003074004430
         C            1.166914060766     1.201823178929    -0.002589602531    12.000000000000
         C            1.853727060766    -0.045380821071    -0.002579602531    12.000000000000
         C            1.110097060766    -1.190317821071    -0.002520602531    12.000000000000
         C           -1.019988939234     0.063011178929    -0.002982602531    12.000000000000
         C           -0.200657939234     1.259637178929    -0.002806602531    12.000000000000
         H            1.741017060766     2.125756178929    -0.002543602531     1.007825032230
         H            2.935873160766    -0.098631621071     0.247735397469     1.007825032230
         H            1.536558060766    -2.188359821071    -0.002470602531     1.007825032230
         H           -0.732734939234     2.205302178929    -0.002620602531     1.007825032230
         H           -0.813888939234    -1.965873821071    -0.002595602531     1.007825032230

  Basis Set: AUG-CC-PVTZ
    Blend: AUG-CC-PVTZ
  Basis Set: (AUG-CC-PVTZ AUX)
    Blend: AUG-CC-PVTZ-JKFIT
	 Reference Energy          =    -321.6773719829148490 [Eh]
	 Singles Energy            =      -0.0000000000000000 [Eh]
	 Same-Spin Energy          =      -0.3357462856716490 [Eh]
	 Opposite-Spin Energy      =      -1.0277992433871668 [Eh]
	 Correlation Energy        =      -1.3635455290588157 [Eh]
	 Total Energy              =    -323.0409175119736460 [Eh]

	 ================> DF-SCS-MP2 Energies <==================
	-----------------------------------------------------------
	 SCS Same-Spin Scale       =       0.3333333333333333 [-]
	 SCS Opposite-Spin Scale   =       1.2000000000000000 [-]
	 SCS Same-Spin Energy      =      -0.1119154285572163 [Eh]
	 SCS Opposite-Spin Energy  =      -1.2333590920646000 [Eh]
	 SCS Correlation Energy    =      -1.3452745206218164 [Eh]
	 SCS Total Energy          =    -323.0226465035366914 [Eh]
	-----------------------------------------------------------

  Dipole Moment: [D]
     X:     4.0228      Y:    -1.3003      Z:     0.1817     Total:     4.2316

*** Psi4 exiting successfully. Buy a developer a beer!
