                               Psi4 1.3.2 release

  ==> Input File <==

--------------------------------------------------------------------------
#psi4
#
memory 32 gb

molecule  {
0 1
  O       -2.3004000     0.0048630     0.0003410
  N       -0.3010450    -1.1173380    -0.0002690
  C        1.1207170     1.2010130     0.0000540
  C        1.8075300    -0.0461910     0.0000640
  C        1.0639000    -1.1911280     0.0001230
  C       -1.0661860     0.0622010    -0.0003390
  C       -0.2468135     1.2588194     0.1498370
  H        1.6948200     2.1249460     0.0001000
  H        2.8897160    -0.0994500     0.0003790
  H        1.4903610    -2.1891700     0.0001730
  H       -0.7789320     2.2044920     0.0000230
  H       -0.8600860    -1.9666840     0.0000480
units angstrom
no_reorient  #important for SAPT in psi4, default
symmetry c1  #important for SAPT in psi4, default
}

set PROPERTIES_ORIGIN ["COM"]
properties('MP2/aug-cc-pvtz', properties = ['dipole'])
--------------------------------------------------------------------------

    Molecular point group: c1
  Charge       = 0
  Multiplicity = 1
  Basis Set: AUG-CC-PVTZ
    Blend: AUG-CC-PVTZ
  Basis Set: (AUG-CC-PVTZ AUX)
    Blend: AUG-CC-PVTZ-JKFIT

    Orbital Energies [Eh]
    ---------------------

    Doubly Occupied:

       1A    -20.512442     2A    -15.628976     3A    -11.357751
       4A    -11.318341     5A    -11.278714     6A    -11.246268
       7A    -11.244385     8A     -1.372460     9A     -1.274899
      10A     -1.108277    11A     -1.031739    12A     -0.888217
      13A     -0.861986    14A     -0.755922    15A     -0.694913
      16A     -0.679187    17A     -0.637977    18A     -0.613737
      19A     -0.604246    20A     -0.559668    21A     -0.537906
      22A     -0.485777    23A     -0.426447    24A     -0.425172
      25A     -0.316913

  @DF-RHF Final Energy:  -321.67507318076770

   => Energetics <=

    Nuclear Repulsion Energy =            274.2843259100200726
    One-Electron Energy =                -980.1941588022497172
    Two-Electron Energy =                 384.2347597114618907
    Total Energy =                       -321.6750731807676971
  Basis Set: (AUG-CC-PVTZ AUX)
    Blend: AUG-CC-PVTZ-RI
    Molecular point group: c1

    Geometry (in Angstrom), charge = 0, multiplicity = 1:

       Center              X                  Y                   Z               Mass
    ------------   -----------------  -----------------  -----------------  -----------------
         O           -2.254208602413     0.005674225511    -0.018591436233    15.994914619570
         N           -0.254853602413    -1.116526774489    -0.019201436233    14.003074004430
         C            1.166908397587     1.201824225511    -0.018878436233    12.000000000000
         C            1.853721397587    -0.045379774489    -0.018868436233    12.000000000000
         C            1.110091397587    -1.190316774489    -0.018809436233    12.000000000000
         C           -1.019994602413     0.063012225511    -0.019271436233    12.000000000000
         C           -0.200622102413     1.259630625511     0.130904563767    12.000000000000
         H            1.741011397587     2.125757225511    -0.018832436233     1.007825032230
         H            2.935907397587    -0.098638774489    -0.018553436233     1.007825032230
         H            1.536552397587    -2.188358774489    -0.018759436233     1.007825032230
         H           -0.732740602413     2.205303225511    -0.018909436233     1.007825032230
         H           -0.813894602413    -1.965872774489    -0.018884436233     1.007825032230

  Basis Set: AUG-CC-PVTZ
    Blend: AUG-CC-PVTZ
  Basis Set: (AUG-CC-PVTZ AUX)
    Blend: AUG-CC-PVTZ-JKFIT
	 Reference Energy          =    -321.6750731807676971 [Eh]
	 Singles Energy            =      -0.0000000000000000 [Eh]
	 Same-Spin Energy          =      -0.3358559128899310 [Eh]
	 Opposite-Spin Energy      =      -1.0280644625120532 [Eh]
	 Correlation Energy        =      -1.3639203754019842 [Eh]
	 Total Energy              =    -323.0389935561696575 [Eh]

	 ================> DF-SCS-MP2 Energies <==================
	-----------------------------------------------------------
	 SCS Same-Spin Scale       =       0.3333333333333333 [-]
	 SCS Opposite-Spin Scale   =       1.2000000000000000 [-]
	 SCS Same-Spin Energy      =      -0.1119519709633103 [Eh]
	 SCS Opposite-Spin Energy  =      -1.2336773550144637 [Eh]
	 SCS Correlation Energy    =      -1.3456293259777741 [Eh]
	 SCS Total Energy          =    -323.0207025067454651 [Eh]
	-----------------------------------------------------------

  Dipole Moment: [D]
     X:     4.0920      Y:    -1.3425      Z:    -0.0846     Total:     4.3074

*** Psi4 exiting successfully. Buy a developer a beer!
