                               Psi4 1.3.2 release

  ==> Input File <==

--------------------------------------------------------------------------
#psi4
#
memory 32 gb

molecule  {
0 1
  O       -2.3004000     0.0048630     0.0003410
  N       -0.3010450    -1.1173380    -0.0002690
  C        1.1207170     1.2010130     0.0000540
  C        1.8075300    -0.0461910     0.0000640
  C        1.0639000    -1.1911280     0.0001230
  C       -1.0661860     0.0622010    -0.0003390
  C       -0.2468550     1.2588270    -0.0001630
  H        1.6948200     2.1249460     0.0001000
  H        2.8896920    -0.0994451     0.1503790
  H        1.4903610    -2.1891700     0.0001730
  H       -0.7789320     2.2044920     0.0000230
  H       -0.8600860    -1.9666840     0.0000480
units angstrom
no_reorient  #important for SAPT in psi4, default
symmetry c1  #important for SAPT in psi4, default
}

set PROPERTIES_ORIGIN ["COM"]
properties('MP2/aug-cc-pvtz', properties = ['dipole'])
--------------------------------------------------------------------------

    Molecular point group: c1
  Charge       = 0
  Multiplicity = 1
  Basis Set: AUG-CC-PVTZ
    Blend: AUG-CC-PVTZ
  Basis Set: (AUG-CC-PVTZ AUX)
    Blend: AUG-CC-PVTZ-JKFIT

    Orbital Energies [Eh]
    ---------------------

    Doubly Occupied:

       1A    -20.512246     2A    -15.628960     3A    -11.357228
       4A    -11.317434     5A    -11.276600     6A    -11.246843
       7A    -11.243124     8A     -1.372594     9A     -1.274822
      10A     -1.109068    11A     -1.032519    12A     -0.889019
      13A     -0.862620    14A     -0.755625    15A     -0.696036
      16A     -0.679364    17A     -0.639460    18A     -0.612993
      19A     -0.605660    20A     -0.559252    21A     -0.540180
      22A     -0.485633    23A     -0.427073    24A     -0.426177
      25A     -0.316591

  @DF-RHF Final Energy:  -321.67989131959291

   => Energetics <=

    Nuclear Repulsion Energy =            274.4951750196781290
    One-Electron Energy =                -980.6158934471533257
    Two-Electron Energy =                 384.4408271078822281
    Total Energy =                       -321.6798913195929117
  Basis Set: (AUG-CC-PVTZ AUX)
    Blend: AUG-CC-PVTZ-RI
    Molecular point group: c1

    Geometry (in Angstrom), charge = 0, multiplicity = 1:

       Center              X                  Y                   Z               Mass
    ------------   -----------------  -----------------  -----------------  -----------------
         O           -2.254203107846     0.005673213924    -0.001242148365    15.994914619570
         N           -0.254848107846    -1.116527786076    -0.001852148365    14.003074004430
         C            1.166913892154     1.201823213924    -0.001529148365    12.000000000000
         C            1.853726892154    -0.045380786076    -0.001519148365    12.000000000000
         C            1.110096892154    -1.190317786076    -0.001460148365    12.000000000000
         C           -1.019989107846     0.063011213924    -0.001922148365    12.000000000000
         C           -0.200658107846     1.259637213924    -0.001746148365    12.000000000000
         H            1.741016892154     2.125756213924    -0.001483148365     1.007825032230
         H            2.935888892154    -0.098634886076     0.148795851635     1.007825032230
         H            1.536557892154    -2.188359786076    -0.001410148365     1.007825032230
         H           -0.732735107846     2.205302213924    -0.001560148365     1.007825032230
         H           -0.813889107846    -1.965873786076    -0.001535148365     1.007825032230

  Basis Set: AUG-CC-PVTZ
    Blend: AUG-CC-PVTZ
  Basis Set: (AUG-CC-PVTZ AUX)
    Blend: AUG-CC-PVTZ-JKFIT
	 Reference Energy          =    -321.6798913195929117 [Eh]
	 Singles Energy            =      -0.0000000000000000 [Eh]
	 Same-Spin Energy          =      -0.3356738777495369 [Eh]
	 Opposite-Spin Energy      =      -1.0275623736859270 [Eh]
	 Correlation Energy        =      -1.3632362514354639 [Eh]
	 Total Energy              =    -323.0431275710283785 [Eh]

	 ================> DF-SCS-MP2 Energies <==================
	-----------------------------------------------------------
	 SCS Same-Spin Scale       =       0.3333333333333333 [-]
	 SCS Opposite-Spin Scale   =       1.2000000000000000 [-]
	 SCS Same-Spin Energy      =      -0.1118912925831790 [Eh]
	 SCS Opposite-Spin Energy  =      -1.2330748484231122 [Eh]
	 SCS Correlation Energy    =      -1.3449661410062912 [Eh]
	 SCS Total Energy          =    -323.0248574605992076 [Eh]
	-----------------------------------------------------------

  Dipole Moment: [D]
     X:     4.0640      Y:    -1.3000      Z:     0.1101     Total:     4.2683

*** Psi4 exiting successfully. Buy a developer a beer!
