                               Psi4 1.3.2 release

  ==> Input File <==

--------------------------------------------------------------------------
#psi4
#
memory 32 gb

molecule  {
0 1
  O       -2.3004000     0.0048630     0.0003410
  N       -0.3010450    -1.1173380    -0.0002690
  C        1.1207170     1.2010130     0.0000540
  C        1.8075300    -0.0461910     0.0000640
  C        1.0639000    -1.1911280     0.0001230
  C       -1.0661860     0.0622010    -0.0003390
  C       -0.2468550     1.2588270    -0.0001630
  H        1.6948200     2.1249460     0.0001000
  H        2.8897160    -0.0994500     0.0003790
  H        1.4903610    -2.1891700     0.0001730
  H       -0.7789320     2.2044920     0.0000230
  H       -0.8601194    -1.9666302     0.3000480
units angstrom
no_reorient  #important for SAPT in psi4, default
symmetry c1  #important for SAPT in psi4, default
}

set PROPERTIES_ORIGIN ["COM"]
properties('MP2/aug-cc-pvtz', properties = ['dipole'])
--------------------------------------------------------------------------

    Molecular point group: c1
  Charge       = 0
  Multiplicity = 1
  Basis Set: AUG-CC-PVTZ
    Blend: AUG-CC-PVTZ
  Basis Set: (AUG-CC-PVTZ AUX)
    Blend: AUG-CC-PVTZ-JKFIT

    Orbital Energies [Eh]
    ---------------------

    Doubly Occupied:

       1A    -20.512679     2A    -15.630303     3A    -11.356951
       4A    -11.316131     5A    -11.276899     6A    -11.246263
       7A    -11.243282     8A     -1.371694     9A     -1.271660
      10A     -1.107344    11A     -1.032282    12A     -0.885680
      13A     -0.861091    14A     -0.749178    15A     -0.695341
      16A     -0.677627    17A     -0.639516    18A     -0.613577
      19A     -0.603233    20A     -0.558325    21A     -0.539030
      22A     -0.485523    23A     -0.428977    24A     -0.424331
      25A     -0.316876

  @DF-RHF Final Energy:  -321.67549132088220

   => Energetics <=

    Nuclear Repulsion Energy =            274.3260888926390066
    One-Electron Energy =                -980.3155699295753038
    Two-Electron Energy =                 384.3139897160540386
    Total Energy =                       -321.6754913208822018
  Basis Set: (AUG-CC-PVTZ AUX)
    Blend: AUG-CC-PVTZ-RI
    Molecular point group: c1

    Geometry (in Angstrom), charge = 0, multiplicity = 1:

       Center              X                  Y                   Z               Mass
    ------------   -----------------  -----------------  -----------------  -----------------
         O           -2.254203008163     0.005672695362    -0.002832829614    15.994914619570
         N           -0.254848008163    -1.116528304638    -0.003442829614    14.003074004430
         C            1.166913991837     1.201822695362    -0.003119829614    12.000000000000
         C            1.853726991837    -0.045381304638    -0.003109829614    12.000000000000
         C            1.110096991837    -1.190318304638    -0.003050829614    12.000000000000
         C           -1.019989008163     0.063010695362    -0.003512829614    12.000000000000
         C           -0.200658008163     1.259636695362    -0.003336829614    12.000000000000
         H            1.741016991837     2.125755695362    -0.003073829614     1.007825032230
         H            2.935912991837    -0.098640304638    -0.002794829614     1.007825032230
         H            1.536557991837    -2.188360304638    -0.003000829614     1.007825032230
         H           -0.732735008163     2.205301695362    -0.003150829614     1.007825032230
         H           -0.813922408163    -1.965820504638     0.296874170386     1.007825032230

  Basis Set: AUG-CC-PVTZ
    Blend: AUG-CC-PVTZ
  Basis Set: (AUG-CC-PVTZ AUX)
    Blend: AUG-CC-PVTZ-JKFIT
	 Reference Energy          =    -321.6754913208822018 [Eh]
	 Singles Energy            =      -0.0000000000000000 [Eh]
	 Same-Spin Energy          =      -0.3359296833052056 [Eh]
	 Opposite-Spin Energy      =      -1.0284110598679987 [Eh]
	 Correlation Energy        =      -1.3643407431732042 [Eh]
	 Total Energy              =    -323.0398320640554175 [Eh]

	 ================> DF-SCS-MP2 Energies <==================
	-----------------------------------------------------------
	 SCS Same-Spin Scale       =       0.3333333333333333 [-]
	 SCS Opposite-Spin Scale   =       1.2000000000000000 [-]
	 SCS Same-Spin Energy      =      -0.1119765611017352 [Eh]
	 SCS Opposite-Spin Energy  =      -1.2340932718415984 [Eh]
	 SCS Correlation Energy    =      -1.3460698329433336 [Eh]
	 SCS Total Energy          =    -323.0215611538255303 [Eh]
	-----------------------------------------------------------

  Dipole Moment: [D]
     X:     4.0848      Y:    -1.2491      Z:     0.3893     Total:     4.2892

*** Psi4 exiting successfully. Buy a developer a beer!
