                               Psi4 1.3.2 release

  ==> Input File <==

--------------------------------------------------------------------------
#psi4
#
memory 32 gb

molecule  {
0 1
  O       -2.3004000     0.0048630     0.0003410
  N       -0.3010450    -1.1173380    -0.0002690
  C        1.1207170     1.2010130     0.0000540
  C        1.8075300    -0.0461910     0.0000640
  C        1.0639000    -1.1911280     0.0001230
  C       -1.0661860     0.0622010    -0.0003390
  C       -0.2468550     1.2588270    -0.0001630
  H        1.6948200     2.1249460     0.0001000
  H        2.8897160    -0.0994500     0.0003790
  H        1.4903809    -2.1891780    -0.0998270
  H       -0.7789320     2.2044920     0.0000230
  H       -0.8600860    -1.9666840     0.0000480
units angstrom
no_reorient  #important for SAPT in psi4, default
symmetry c1  #important for SAPT in psi4, default
}

set PROPERTIES_ORIGIN ["COM"]
properties('MP2/aug-cc-pvtz', properties = ['dipole'])
--------------------------------------------------------------------------

    Molecular point group: c1
  Charge       = 0
  Multiplicity = 1
  Basis Set: AUG-CC-PVTZ
    Blend: AUG-CC-PVTZ
  Basis Set: (AUG-CC-PVTZ AUX)
    Blend: AUG-CC-PVTZ-JKFIT

    Orbital Energies [Eh]
    ---------------------

    Doubly Occupied:

       1A    -20.512027     2A    -15.628672     3A    -11.357065
       4A    -11.317424     5A    -11.276628     6A    -11.246200
       7A    -11.243207     8A     -1.372397     9A     -1.274565
      10A     -1.109203    11A     -1.032497    12A     -0.888879
      13A     -0.862660    14A     -0.756136    15A     -0.695931
      16A     -0.678950    17A     -0.639803    18A     -0.613297
      19A     -0.605252    20A     -0.560303    21A     -0.540172
      22A     -0.485687    23A     -0.426864    24A     -0.426322
      25A     -0.316525

  @DF-RHF Final Energy:  -321.68054869278717

   => Energetics <=

    Nuclear Repulsion Energy =            274.5160601182349751
    One-Electron Energy =                -980.6598831504187501
    Two-Electron Energy =                 384.4632743393965484
    Total Energy =                       -321.6805486927871698
  Basis Set: (AUG-CC-PVTZ AUX)
    Blend: AUG-CC-PVTZ-RI
    Molecular point group: c1

    Geometry (in Angstrom), charge = 0, multiplicity = 1:

       Center              X                  Y                   Z               Mass
    ------------   -----------------  -----------------  -----------------  -----------------
         O           -2.254203573385     0.005673350723     0.001408987050    15.994914619570
         N           -0.254848573385    -1.116527649277     0.000798987050    14.003074004430
         C            1.166913426615     1.201823350723     0.001121987050    12.000000000000
         C            1.853726426615    -0.045380649277     0.001131987050    12.000000000000
         C            1.110096426615    -1.190317649277     0.001190987050    12.000000000000
         C           -1.019989573385     0.063011350723     0.000728987050    12.000000000000
         C           -0.200658573385     1.259637350723     0.000904987050    12.000000000000
         H            1.741016426615     2.125756350723     0.001167987050     1.007825032230
         H            2.935912426615    -0.098639649277     0.001446987050     1.007825032230
         H            1.536577326615    -2.188367649277    -0.098759012950     1.007825032230
         H           -0.732735573385     2.205302350723     0.001090987050     1.007825032230
         H           -0.813889573385    -1.965873649277     0.001115987050     1.007825032230

  Basis Set: AUG-CC-PVTZ
    Blend: AUG-CC-PVTZ
  Basis Set: (AUG-CC-PVTZ AUX)
    Blend: AUG-CC-PVTZ-JKFIT
	 Reference Energy          =    -321.6805486927871698 [Eh]
	 Singles Energy            =      -0.0000000000000000 [Eh]
	 Same-Spin Energy          =      -0.3356781397933162 [Eh]
	 Opposite-Spin Energy      =      -1.0275414131874701 [Eh]
	 Correlation Energy        =      -1.3632195529807862 [Eh]
	 Total Energy              =    -323.0437682457679784 [Eh]

	 ================> DF-SCS-MP2 Energies <==================
	-----------------------------------------------------------
	 SCS Same-Spin Scale       =       0.3333333333333333 [-]
	 SCS Opposite-Spin Scale   =       1.2000000000000000 [-]
	 SCS Same-Spin Energy      =      -0.1118927132644387 [Eh]
	 SCS Opposite-Spin Energy  =      -1.2330496958249639 [Eh]
	 SCS Correlation Energy    =      -1.3449424090894027 [Eh]
	 SCS Total Energy          =    -323.0254911018765824 [Eh]
	-----------------------------------------------------------

  Dipole Moment: [D]
     X:     4.0858      Y:    -1.2904      Z:    -0.0707     Total:     4.2853

*** Psi4 exiting successfully. Buy a developer a beer!
