                               Psi4 1.3.2 release

  ==> Input File <==

--------------------------------------------------------------------------
#psi4
#
memory 32 gb

molecule  {
0 1
  O       -2.3004000     0.0048630     0.0003410
  N       -0.3010450    -1.1173380    -0.0002690
  C        1.1207170     1.2010130     0.0000540
  C        1.8075300    -0.0461910     0.0000640
  C        1.0639000    -1.1911280     0.0001230
  C       -1.0661860     0.0622010    -0.0003390
  C       -0.2468550     1.2588270    -0.0001630
  H        1.6948200     2.1249460     0.0001000
  H        2.8896681    -0.0994402     0.3003790
  H        1.4903610    -2.1891700     0.0001730
  H       -0.7789320     2.2044920     0.0000230
  H       -0.8600860    -1.9666840     0.0000480
units angstrom
no_reorient  #important for SAPT in psi4, default
symmetry c1  #important for SAPT in psi4, default
}

set PROPERTIES_ORIGIN ["COM"]
properties('MP2/aug-cc-pvtz', properties = ['dipole'])
--------------------------------------------------------------------------

    Molecular point group: c1
  Charge       = 0
  Multiplicity = 1
  Basis Set: AUG-CC-PVTZ
    Blend: AUG-CC-PVTZ
  Basis Set: (AUG-CC-PVTZ AUX)
    Blend: AUG-CC-PVTZ-JKFIT

    Orbital Energies [Eh]
    ---------------------

    Doubly Occupied:

       1A    -20.512965     2A    -15.629642     3A    -11.357781
       4A    -11.318434     5A    -11.276704     6A    -11.249167
       7A    -11.243266     8A     -1.373210     9A     -1.275453
      10A     -1.108902    11A     -1.032273    12A     -0.889057
      13A     -0.862160    14A     -0.753660    15A     -0.695685
      16A     -0.679578    17A     -0.638317    18A     -0.612724
      19A     -0.605432    20A     -0.556288    21A     -0.539741
      22A     -0.485083    23A     -0.427663    24A     -0.425821
      25A     -0.316904

  @DF-RHF Final Energy:  -321.67549378796775

   => Energetics <=

    Nuclear Repulsion Energy =            274.3843182882729934
    One-Electron Energy =                -980.3878031106099797
    Two-Electron Energy =                 384.3279910343692336
    Total Energy =                       -321.6754937879677527
  Basis Set: (AUG-CC-PVTZ AUX)
    Blend: AUG-CC-PVTZ-RI
    Molecular point group: c1

    Geometry (in Angstrom), charge = 0, multiplicity = 1:

       Center              X                  Y                   Z               Mass
    ------------   -----------------  -----------------  -----------------  -----------------
         O           -2.254202854397     0.005673161962    -0.002832829614    15.994914619570
         N           -0.254847854397    -1.116527838038    -0.003442829614    14.003074004430
         C            1.166914145603     1.201823161962    -0.003119829614    12.000000000000
         C            1.853727145603    -0.045380838038    -0.003109829614    12.000000000000
         C            1.110097145603    -1.190317838038    -0.003050829614    12.000000000000
         C           -1.019988854397     0.063011161962    -0.003512829614    12.000000000000
         C           -0.200657854397     1.259637161962    -0.003336829614    12.000000000000
         H            1.741017145603     2.125756161962    -0.003073829614     1.007825032230
         H            2.935865245603    -0.098630038038     0.297205170386     1.007825032230
         H            1.536558145603    -2.188359838038    -0.003000829614     1.007825032230
         H           -0.732734854397     2.205302161962    -0.003150829614     1.007825032230
         H           -0.813888854397    -1.965873838038    -0.003125829614     1.007825032230

  Basis Set: AUG-CC-PVTZ
    Blend: AUG-CC-PVTZ
  Basis Set: (AUG-CC-PVTZ AUX)
    Blend: AUG-CC-PVTZ-JKFIT
	 Reference Energy          =    -321.6754937879677527 [Eh]
	 Singles Energy            =      -0.0000000000000000 [Eh]
	 Same-Spin Energy          =      -0.3357951094732253 [Eh]
	 Opposite-Spin Energy      =      -1.0279759359525684 [Eh]
	 Correlation Energy        =      -1.3637710454257936 [Eh]
	 Total Energy              =    -323.0392648333935313 [Eh]

	 ================> DF-SCS-MP2 Energies <==================
	-----------------------------------------------------------
	 SCS Same-Spin Scale       =       0.3333333333333333 [-]
	 SCS Opposite-Spin Scale   =       1.2000000000000000 [-]
	 SCS Same-Spin Energy      =      -0.1119317031577418 [Eh]
	 SCS Opposite-Spin Energy  =      -1.2335711231430821 [Eh]
	 SCS Correlation Energy    =      -1.3455028263008240 [Eh]
	 SCS Total Energy          =    -323.0209966142685971 [Eh]
	-----------------------------------------------------------

  Dipole Moment: [D]
     X:     3.9951      Y:    -1.3004      Z:     0.2166     Total:     4.2069

*** Psi4 exiting successfully. Buy a developer a beer!
