                               Psi4 1.3.2 release

  ==> Input File <==

--------------------------------------------------------------------------
#psi4
#
memory 32 gb

molecule  {
0 1
  O       -2.3004000     0.0048630     0.0003410
  N       -0.3010450    -1.1173380    -0.0002690
  C        1.1207170     1.2010130     0.0000540
  C        1.8075300    -0.0461910     0.0000640
  C        1.0639000    -1.1911280     0.0001230
  C       -1.0661860     0.0622010    -0.0003390
  C       -0.2468550     1.2588270    -0.0001630
  H        1.6948325     2.1249483    -0.0999000
  H        2.8897160    -0.0994500     0.0003790
  H        1.4903610    -2.1891700     0.0001730
  H       -0.7789320     2.2044920     0.0000230
  H       -0.8600860    -1.9666840     0.0000480
units angstrom
no_reorient  #important for SAPT in psi4, default
symmetry c1  #important for SAPT in psi4, default
}

set PROPERTIES_ORIGIN ["COM"]
properties('MP2/aug-cc-pvtz', properties = ['dipole'])
--------------------------------------------------------------------------

    Molecular point group: c1
  Charge       = 0
  Multiplicity = 1
  Basis Set: AUG-CC-PVTZ
    Blend: AUG-CC-PVTZ
  Basis Set: (AUG-CC-PVTZ AUX)
    Blend: AUG-CC-PVTZ-JKFIT

    Orbital Energies [Eh]
    ---------------------

    Doubly Occupied:

       1A    -20.512063     2A    -15.628750     3A    -11.357098
       4A    -11.317093     5A    -11.277007     6A    -11.246071
       7A    -11.243206     8A     -1.372435     9A     -1.274639
      10A     -1.109069    11A     -1.032649    12A     -0.888769
      13A     -0.862685    14A     -0.756409    15A     -0.696164
      16A     -0.678686    17A     -0.639703    18A     -0.613125
      19A     -0.605761    20A     -0.560022    21A     -0.540176
      22A     -0.485818    23A     -0.428274    24A     -0.424717
      25A     -0.316523

  @DF-RHF Final Energy:  -321.68051710717134

   => Energetics <=

    Nuclear Repulsion Energy =            274.5165567815050736
    One-Electron Energy =                -980.6603287418387254
    Two-Electron Energy =                 384.4632548531623115
    Total Energy =                       -321.6805171071713403
  Basis Set: (AUG-CC-PVTZ AUX)
    Blend: AUG-CC-PVTZ-RI
    Molecular point group: c1

    Geometry (in Angstrom), charge = 0, multiplicity = 1:

       Center              X                  Y                   Z               Mass
    ------------   -----------------  -----------------  -----------------  -----------------
         O           -2.254203494912     0.005673241496     0.001408987050    15.994914619570
         N           -0.254848494912    -1.116527758504     0.000798987050    14.003074004430
         C            1.166913505088     1.201823241496     0.001121987050    12.000000000000
         C            1.853726505088    -0.045380758504     0.001131987050    12.000000000000
         C            1.110096505088    -1.190317758504     0.001190987050    12.000000000000
         C           -1.019989494912     0.063011241496     0.000728987050    12.000000000000
         C           -0.200658494912     1.259637241496     0.000904987050    12.000000000000
         H            1.741029005088     2.125758541496    -0.098832012950     1.007825032230
         H            2.935912505088    -0.098639758504     0.001446987050     1.007825032230
         H            1.536557505088    -2.188359758504     0.001240987050     1.007825032230
         H           -0.732735494912     2.205302241496     0.001090987050     1.007825032230
         H           -0.813889494912    -1.965873758504     0.001115987050     1.007825032230

  Basis Set: AUG-CC-PVTZ
    Blend: AUG-CC-PVTZ
  Basis Set: (AUG-CC-PVTZ AUX)
    Blend: AUG-CC-PVTZ-JKFIT
	 Reference Energy          =    -321.6805171071713403 [Eh]
	 Singles Energy            =      -0.0000000000000000 [Eh]
	 Same-Spin Energy          =      -0.3356708396289720 [Eh]
	 Opposite-Spin Energy      =      -1.0275350183331073 [Eh]
	 Correlation Energy        =      -1.3632058579620794 [Eh]
	 Total Energy              =    -323.0437229651334405 [Eh]

	 ================> DF-SCS-MP2 Energies <==================
	-----------------------------------------------------------
	 SCS Same-Spin Scale       =       0.3333333333333333 [-]
	 SCS Opposite-Spin Scale   =       1.2000000000000000 [-]
	 SCS Same-Spin Energy      =      -0.1118902798763240 [Eh]
	 SCS Opposite-Spin Energy  =      -1.2330420219997287 [Eh]
	 SCS Correlation Energy    =      -1.3449323018760526 [Eh]
	 SCS Total Energy          =    -323.0254494090473827 [Eh]
	-----------------------------------------------------------

  Dipole Moment: [D]
     X:     4.0825      Y:    -1.3049      Z:    -0.0597     Total:     4.2864

*** Psi4 exiting successfully. Buy a developer a beer!
