                               Psi4 1.3.2 release

  ==> Input File <==

--------------------------------------------------------------------------
#psi4
#
memory 32 gb

molecule  {
0 1
  O       -2.3004000     0.0048630     0.0003410
  N       -0.3010450    -1.1173380    -0.0002690
  C        1.1207170     1.2010130     0.0000540
  C        1.8075300    -0.0461910     0.0000640
  C        1.0639000    -1.1911280     0.0001230
  C       -1.0661860     0.0622010    -0.0003390
  C       -0.2468550     1.2588270    -0.0001630
  H        1.6948200     2.1249460     0.0001000
  H        2.8897160    -0.0994500     0.0003790
  H        1.4903610    -2.1891700     0.0001730
  H       -0.7789271     2.2044998    -0.0499770
  H       -0.8600860    -1.9666840     0.0000480
units angstrom
no_reorient  #important for SAPT in psi4, default
symmetry c1  #important for SAPT in psi4, default
}

set PROPERTIES_ORIGIN ["COM"]
properties('MP2/aug-cc-pvtz', properties = ['dipole'])
--------------------------------------------------------------------------

    Molecular point group: c1
  Charge       = 0
  Multiplicity = 1
  Basis Set: AUG-CC-PVTZ
    Blend: AUG-CC-PVTZ
  Basis Set: (AUG-CC-PVTZ AUX)
    Blend: AUG-CC-PVTZ-JKFIT

    Orbital Energies [Eh]
    ---------------------

    Doubly Occupied:

       1A    -20.512009     2A    -15.628740     3A    -11.357045
       4A    -11.317120     5A    -11.276597     6A    -11.246059
       7A    -11.243174     8A     -1.372389     9A     -1.274620
      10A     -1.109137    11A     -1.032608    12A     -0.888998
      13A     -0.862790    14A     -0.756325    15A     -0.696173
      16A     -0.679298    17A     -0.639776    18A     -0.613093
      19A     -0.605722    20A     -0.560251    21A     -0.540152
      22A     -0.485818    23A     -0.427078    24A     -0.426066
      25A     -0.316490

  @DF-RHF Final Energy:  -321.68103599407419

   => Energetics <=

    Nuclear Repulsion Energy =            274.5292536181181049
    One-Electron Energy =                -980.6855209642740192
    Two-Electron Energy =                 384.4752313520817211
    Total Energy =                       -321.6810359940741932
  Basis Set: (AUG-CC-PVTZ AUX)
    Blend: AUG-CC-PVTZ-RI
    Molecular point group: c1

    Geometry (in Angstrom), charge = 0, multiplicity = 1:

       Center              X                  Y                   Z               Mass
    ------------   -----------------  -----------------  -----------------  -----------------
         O           -2.254203414317     0.005673183171     0.000878759967    15.994914619570
         N           -0.254848414317    -1.116527816829     0.000268759967    14.003074004430
         C            1.166913585683     1.201823183171     0.000591759967    12.000000000000
         C            1.853726585683    -0.045380816829     0.000601759967    12.000000000000
         C            1.110096585683    -1.190317816829     0.000660759967    12.000000000000
         C           -1.019989414317     0.063011183171     0.000198759967    12.000000000000
         C           -0.200658414317     1.259637183171     0.000374759967    12.000000000000
         H            1.741016585683     2.125756183171     0.000637759967     1.007825032230
         H            2.935912585683    -0.098639816829     0.000916759967     1.007825032230
         H            1.536557585683    -2.188359816829     0.000710759967     1.007825032230
         H           -0.732730514317     2.205309983171    -0.049439240033     1.007825032230
         H           -0.813889414317    -1.965873816829     0.000585759967     1.007825032230

  Basis Set: AUG-CC-PVTZ
    Blend: AUG-CC-PVTZ
  Basis Set: (AUG-CC-PVTZ AUX)
    Blend: AUG-CC-PVTZ-JKFIT
	 Reference Energy          =    -321.6810359940741932 [Eh]
	 Singles Energy            =      -0.0000000000000000 [Eh]
	 Same-Spin Energy          =      -0.3356394501620318 [Eh]
	 Opposite-Spin Energy      =      -1.0274619799263374 [Eh]
	 Correlation Energy        =      -1.3631014300883693 [Eh]
	 Total Energy              =    -323.0441374241625567 [Eh]

	 ================> DF-SCS-MP2 Energies <==================
	-----------------------------------------------------------
	 SCS Same-Spin Scale       =       0.3333333333333333 [-]
	 SCS Opposite-Spin Scale   =       1.2000000000000000 [-]
	 SCS Same-Spin Energy      =      -0.1118798167206773 [Eh]
	 SCS Opposite-Spin Energy  =      -1.2329543759116048 [Eh]
	 SCS Correlation Energy    =      -1.3448341926322822 [Eh]
	 SCS Total Energy          =    -323.0258701867064701 [Eh]
	-----------------------------------------------------------

  Dipole Moment: [D]
     X:     4.0883      Y:    -1.3012      Z:    -0.0324     Total:     4.2905

*** Psi4 exiting successfully. Buy a developer a beer!
