                               Psi4 1.3.2 release

  ==> Input File <==

--------------------------------------------------------------------------
#psi4
#
memory 32 gb

molecule  {
0 1
  O       -2.3004000     0.0048630     0.0003410
  N       -0.3010450    -1.1173380    -0.0002690
  C        1.1207170     1.2010130     0.0000540
  C        1.8075300    -0.0461910     0.0000640
  C        1.0639000    -1.1911280     0.0001230
  C       -1.0661860     0.0622010    -0.0003390
  C       -0.2468550     1.2588270    -0.0001630
  H        1.6948200     2.1249460     0.0001000
  H        2.8897160    -0.0994500     0.0003790
  H        1.4903908    -2.1891820    -0.1498270
  H       -0.7789320     2.2044920     0.0000230
  H       -0.8600860    -1.9666840     0.0000480
units angstrom
no_reorient  #important for SAPT in psi4, default
symmetry c1  #important for SAPT in psi4, default
}

set PROPERTIES_ORIGIN ["COM"]
properties('MP2/aug-cc-pvtz', properties = ['dipole'])
--------------------------------------------------------------------------

    Molecular point group: c1
  Charge       = 0
  Multiplicity = 1
  Basis Set: AUG-CC-PVTZ
    Blend: AUG-CC-PVTZ
  Basis Set: (AUG-CC-PVTZ AUX)
    Blend: AUG-CC-PVTZ-JKFIT

    Orbital Energies [Eh]
    ---------------------

    Doubly Occupied:

       1A    -20.512061     2A    -15.628603     3A    -11.357098
       4A    -11.317833     5A    -11.276694     6A    -11.246388
       7A    -11.243360     8A     -1.372413     9A     -1.274511
      10A     -1.109285    11A     -1.032348    12A     -0.888710
      13A     -0.862484    14A     -0.755844    15A     -0.695652
      16A     -0.678508    17A     -0.639680    18A     -0.613510
      19A     -0.604687    20A     -0.560373    21A     -0.540038
      22A     -0.485525    23A     -0.426856    24A     -0.426350
      25A     -0.316570

  @DF-RHF Final Energy:  -321.67973281038815

   => Energetics <=

    Nuclear Repulsion Energy =            274.4941773187875924
    One-Electron Energy =                -980.6170618982414453
    Two-Electron Energy =                 384.4431517690657074
    Total Energy =                       -321.6797328103881455
  Basis Set: (AUG-CC-PVTZ AUX)
    Blend: AUG-CC-PVTZ-RI
    Molecular point group: c1

    Geometry (in Angstrom), charge = 0, multiplicity = 1:

       Center              X                  Y                   Z               Mass
    ------------   -----------------  -----------------  -----------------  -----------------
         O           -2.254203678370     0.005673393141     0.001939214132    15.994914619570
         N           -0.254848678370    -1.116527606859     0.001329214132    14.003074004430
         C            1.166913321630     1.201823393141     0.001652214132    12.000000000000
         C            1.853726321630    -0.045380606859     0.001662214132    12.000000000000
         C            1.110096321630    -1.190317606859     0.001721214132    12.000000000000
         C           -1.019989678370     0.063011393141     0.001259214132    12.000000000000
         C           -0.200658678370     1.259637393141     0.001435214132    12.000000000000
         H            1.741016321630     2.125756393141     0.001698214132     1.007825032230
         H            2.935912321630    -0.098639606859     0.001977214132     1.007825032230
         H            1.536587121630    -2.188371606859    -0.148228785868     1.007825032230
         H           -0.732735678370     2.205302393141     0.001621214132     1.007825032230
         H           -0.813889678370    -1.965873606859     0.001646214132     1.007825032230

  Basis Set: AUG-CC-PVTZ
    Blend: AUG-CC-PVTZ
  Basis Set: (AUG-CC-PVTZ AUX)
    Blend: AUG-CC-PVTZ-JKFIT
	 Reference Energy          =    -321.6797328103881455 [Eh]
	 Singles Energy            =      -0.0000000000000000 [Eh]
	 Same-Spin Energy          =      -0.3357344823577060 [Eh]
	 Opposite-Spin Energy      =      -1.0276619748889817 [Eh]
	 Correlation Energy        =      -1.3633964572466877 [Eh]
	 Total Energy              =    -323.0431292676348107 [Eh]

	 ================> DF-SCS-MP2 Energies <==================
	-----------------------------------------------------------
	 SCS Same-Spin Scale       =       0.3333333333333333 [-]
	 SCS Opposite-Spin Scale   =       1.2000000000000000 [-]
	 SCS Same-Spin Energy      =      -0.1119114941192353 [Eh]
	 SCS Opposite-Spin Energy  =      -1.2331943698667780 [Eh]
	 SCS Correlation Energy    =      -1.3451058639860134 [Eh]
	 SCS Total Energy          =    -323.0248386743741662 [Eh]
	-----------------------------------------------------------

  Dipole Moment: [D]
     X:     4.0833      Y:    -1.2789      Z:    -0.1056     Total:     4.2802

*** Psi4 exiting successfully. Buy a developer a beer!
