                               Psi4 1.3.2 release

  ==> Input File <==

--------------------------------------------------------------------------
#psi4
#
memory 32 gb

molecule  {
0 1
  O       -2.3004000     0.0048630     0.0003410
  N       -0.3010450    -1.1173380    -0.0002690
  C        1.1207170     1.2010130     0.0000540
  C        1.8075300    -0.0461910     0.0000640
  C        1.0639000    -1.1911280     0.0001230
  C       -1.0661860     0.0622010    -0.0003390
  C       -0.2468550     1.2588270    -0.0001630
  H        1.6948388     2.1249495    -0.1499000
  H        2.8897160    -0.0994500     0.0003790
  H        1.4903610    -2.1891700     0.0001730
  H       -0.7789320     2.2044920     0.0000230
  H       -0.8600860    -1.9666840     0.0000480
units angstrom
no_reorient  #important for SAPT in psi4, default
symmetry c1  #important for SAPT in psi4, default
}

set PROPERTIES_ORIGIN ["COM"]
properties('MP2/aug-cc-pvtz', properties = ['dipole'])
--------------------------------------------------------------------------

    Molecular point group: c1
  Charge       = 0
  Multiplicity = 1
  Basis Set: AUG-CC-PVTZ
    Blend: AUG-CC-PVTZ
  Basis Set: (AUG-CC-PVTZ AUX)
    Blend: AUG-CC-PVTZ-JKFIT

    Orbital Energies [Eh]
    ---------------------

    Doubly Occupied:

       1A    -20.512140     2A    -15.628777     3A    -11.357170
       4A    -11.317092     5A    -11.277545     6A    -11.246101
       7A    -11.243361     8A     -1.372498     9A     -1.274677
      10A     -1.108988    11A     -1.032687    12A     -0.888469
      13A     -0.862538    14A     -0.756445    15A     -0.696158
      16A     -0.677941    17A     -0.639454    18A     -0.613160
      19A     -0.605796    20A     -0.559743    21A     -0.540044
      22A     -0.485822    23A     -0.429029    24A     -0.423741
      25A     -0.316567

  @DF-RHF Final Energy:  -321.67966226017120

   => Energetics <=

    Nuclear Repulsion Energy =            274.4952718752903706
    One-Electron Energy =                -980.6179877637387108
    Two-Electron Energy =                 384.4430536282770845
    Total Energy =                       -321.6796622601711988
  Basis Set: (AUG-CC-PVTZ AUX)
    Blend: AUG-CC-PVTZ-RI
    Molecular point group: c1

    Geometry (in Angstrom), charge = 0, multiplicity = 1:

       Center              X                  Y                   Z               Mass
    ------------   -----------------  -----------------  -----------------  -----------------
         O           -2.254203561720     0.005673228770     0.001939214132    15.994914619570
         N           -0.254848561720    -1.116527771230     0.001329214132    14.003074004430
         C            1.166913438280     1.201823228770     0.001652214132    12.000000000000
         C            1.853726438280    -0.045380771230     0.001662214132    12.000000000000
         C            1.110096438280    -1.190317771230     0.001721214132    12.000000000000
         C           -1.019989561720     0.063011228770     0.001259214132    12.000000000000
         C           -0.200658561720     1.259637228770     0.001435214132    12.000000000000
         H            1.741035238280     2.125759728770    -0.148301785868     1.007825032230
         H            2.935912438280    -0.098639771230     0.001977214132     1.007825032230
         H            1.536557438280    -2.188359771230     0.001771214132     1.007825032230
         H           -0.732735561720     2.205302228770     0.001621214132     1.007825032230
         H           -0.813889561720    -1.965873771230     0.001646214132     1.007825032230

  Basis Set: AUG-CC-PVTZ
    Blend: AUG-CC-PVTZ
  Basis Set: (AUG-CC-PVTZ AUX)
    Blend: AUG-CC-PVTZ-JKFIT
	 Reference Energy          =    -321.6796622601711988 [Eh]
	 Singles Energy            =      -0.0000000000000000 [Eh]
	 Same-Spin Energy          =      -0.3357182764375853 [Eh]
	 Opposite-Spin Energy      =      -1.0276470184444926 [Eh]
	 Correlation Energy        =      -1.3633652948820778 [Eh]
	 Total Energy              =    -323.0430275550532997 [Eh]

	 ================> DF-SCS-MP2 Energies <==================
	-----------------------------------------------------------
	 SCS Same-Spin Scale       =       0.3333333333333333 [-]
	 SCS Opposite-Spin Scale   =       1.2000000000000000 [-]
	 SCS Same-Spin Energy      =      -0.1119060921458618 [Eh]
	 SCS Opposite-Spin Energy  =      -1.2331764221333910 [Eh]
	 SCS Correlation Energy    =      -1.3450825142792526 [Eh]
	 SCS Total Energy          =    -323.0247447744504257 [Eh]
	-----------------------------------------------------------

  Dipole Moment: [D]
     X:     4.0759      Y:    -1.3114      Z:    -0.0892     Total:     4.2826

*** Psi4 exiting successfully. Buy a developer a beer!
