                               Psi4 1.3.2 release

  ==> Input File <==

--------------------------------------------------------------------------
#psi4
#
memory 32 gb

molecule  {
0 1
  O       -2.3004000     0.0048630     0.0003410
  N       -0.3010450    -1.1173380    -0.0002690
  C        1.1207170     1.2010130     0.0000540
  C        1.8075300    -0.0461910     0.0000640
  C        1.0639000    -1.1911280     0.0001230
  C       -1.0661860     0.0622010    -0.0003390
  C       -0.2468550     1.2588270    -0.0001630
  H        1.6948200     2.1249460     0.0001000
  H        2.8897160    -0.0994500     0.0003790
  H        1.4903610    -2.1891700     0.0001730
  H       -0.7789320     2.2044920     0.0000230
  H       -0.8601083    -1.9666481     0.2000480
units angstrom
no_reorient  #important for SAPT in psi4, default
symmetry c1  #important for SAPT in psi4, default
}

set PROPERTIES_ORIGIN ["COM"]
properties('MP2/aug-cc-pvtz', properties = ['dipole'])
--------------------------------------------------------------------------

    Molecular point group: c1
  Charge       = 0
  Multiplicity = 1
  Basis Set: AUG-CC-PVTZ
    Blend: AUG-CC-PVTZ
  Basis Set: (AUG-CC-PVTZ AUX)
    Blend: AUG-CC-PVTZ-JKFIT

    Orbital Energies [Eh]
    ---------------------

    Doubly Occupied:

       1A    -20.512321     2A    -15.629448     3A    -11.356999
       4A    -11.316647     5A    -11.276725     6A    -11.246148
       7A    -11.243174     8A     -1.372061     9A     -1.273241
      10A     -1.108298    11A     -1.032463    12A     -0.887405
      13A     -0.862023    14A     -0.753053    15A     -0.695797
      16A     -0.678607    17A     -0.639778    18A     -0.613360
      19A     -0.604509    20A     -0.559374    21A     -0.539763
      22A     -0.485687    23A     -0.428203    24A     -0.425038
      25A     -0.316670

  @DF-RHF Final Energy:  -321.67891235716928

   => Energetics <=

    Nuclear Repulsion Energy =            274.4389430099802780
    One-Electron Energy =                -980.5221276762595153
    Two-Electron Energy =                 384.4042723091100129
    Total Energy =                       -321.6789123571692812
  Basis Set: (AUG-CC-PVTZ AUX)
    Blend: AUG-CC-PVTZ-RI
    Molecular point group: c1

    Geometry (in Angstrom), charge = 0, multiplicity = 1:

       Center              X                  Y                   Z               Mass
    ------------   -----------------  -----------------  -----------------  -----------------
         O           -2.254203125874     0.005672885183    -0.001772375448    15.994914619570
         N           -0.254848125874    -1.116528114817    -0.002382375448    14.003074004430
         C            1.166913874126     1.201822885183    -0.002059375448    12.000000000000
         C            1.853726874126    -0.045381114817    -0.002049375448    12.000000000000
         C            1.110096874126    -1.190318114817    -0.001990375448    12.000000000000
         C           -1.019989125874     0.063010885183    -0.002452375448    12.000000000000
         C           -0.200658125874     1.259636885183    -0.002276375448    12.000000000000
         H            1.741016874126     2.125755885183    -0.002013375448     1.007825032230
         H            2.935912874126    -0.098640114817    -0.001734375448     1.007825032230
         H            1.536557874126    -2.188360114817    -0.001940375448     1.007825032230
         H           -0.732735125874     2.205301885183    -0.002090375448     1.007825032230
         H           -0.813911425874    -1.965838214817     0.197934624552     1.007825032230

  Basis Set: AUG-CC-PVTZ
    Blend: AUG-CC-PVTZ
  Basis Set: (AUG-CC-PVTZ AUX)
    Blend: AUG-CC-PVTZ-JKFIT
	 Reference Energy          =    -321.6789123571692812 [Eh]
	 Singles Energy            =      -0.0000000000000000 [Eh]
	 Same-Spin Energy          =      -0.3357656085421237 [Eh]
	 Opposite-Spin Energy      =      -1.0278758905930407 [Eh]
	 Correlation Energy        =      -1.3636414991351644 [Eh]
	 Total Energy              =    -323.0425538563044370 [Eh]

	 ================> DF-SCS-MP2 Energies <==================
	-----------------------------------------------------------
	 SCS Same-Spin Scale       =       0.3333333333333333 [-]
	 SCS Opposite-Spin Scale   =       1.2000000000000000 [-]
	 SCS Same-Spin Energy      =      -0.1119218695140412 [Eh]
	 SCS Opposite-Spin Energy  =      -1.2334510687116489 [Eh]
	 SCS Correlation Energy    =      -1.3453729382256900 [Eh]
	 SCS Total Energy          =    -323.0242852953949750 [Eh]
	-----------------------------------------------------------

  Dipole Moment: [D]
     X:     4.0863      Y:    -1.2764      Z:     0.2605     Total:     4.2889

*** Psi4 exiting successfully. Buy a developer a beer!
