                               Psi4 1.3.2 release

  ==> Input File <==

--------------------------------------------------------------------------
#psi4
#
memory 32 gb

molecule  {
0 1
  O       -2.3004000     0.0048630     0.0003410
  N       -0.3010450    -1.1173380    -0.0002690
  C        1.1207170     1.2010130     0.0000540
  C        1.8075300    -0.0461910     0.0000640
  C        1.0639000    -1.1911280     0.0001230
  C       -1.0661860     0.0622010    -0.0003390
  C       -0.2468550     1.2588270    -0.0001630
  H        1.6948200     2.1249460     0.0001000
  H        2.8897160    -0.0994500     0.0003790
  H        1.4903610    -2.1891700     0.0001730
  H       -0.7789320     2.2044920     0.0000230
  H       -0.8601138    -1.9666391     0.2500480
units angstrom
no_reorient  #important for SAPT in psi4, default
symmetry c1  #important for SAPT in psi4, default
}

set PROPERTIES_ORIGIN ["COM"]
properties('MP2/aug-cc-pvtz', properties = ['dipole'])
--------------------------------------------------------------------------

    Molecular point group: c1
  Charge       = 0
  Multiplicity = 1
  Basis Set: AUG-CC-PVTZ
    Blend: AUG-CC-PVTZ
  Basis Set: (AUG-CC-PVTZ AUX)
    Blend: AUG-CC-PVTZ-JKFIT

    Orbital Energies [Eh]
    ---------------------

    Doubly Occupied:

       1A    -20.512488     2A    -15.629838     3A    -11.356977
       4A    -11.316409     5A    -11.276805     6A    -11.246200
       7A    -11.243224     8A     -1.371891     9A     -1.272513
      10A     -1.107856    11A     -1.032380    12A     -0.886592
      13A     -0.861597    14A     -0.751270    15A     -0.695589
      16A     -0.678182    17A     -0.639675    18A     -0.613469
      19A     -0.603906    20A     -0.558895    21A     -0.539446
      22A     -0.485614    23A     -0.428591    24A     -0.424682
      25A     -0.316765

  @DF-RHF Final Energy:  -321.67744496006281

   => Energetics <=

    Nuclear Repulsion Energy =            274.3874190614893109
    One-Electron Energy =                -980.4280186040180070
    Two-Electron Energy =                 384.3631545824659383
    Total Energy =                       -321.6774449600628145
  Basis Set: (AUG-CC-PVTZ AUX)
    Blend: AUG-CC-PVTZ-RI
    Molecular point group: c1

    Geometry (in Angstrom), charge = 0, multiplicity = 1:

       Center              X                  Y                   Z               Mass
    ------------   -----------------  -----------------  -----------------  -----------------
         O           -2.254203067549     0.005672789742    -0.002302602531    15.994914619570
         N           -0.254848067549    -1.116528210258    -0.002912602531    14.003074004430
         C            1.166913932451     1.201822789742    -0.002589602531    12.000000000000
         C            1.853726932451    -0.045381210258    -0.002579602531    12.000000000000
         C            1.110096932451    -1.190318210258    -0.002520602531    12.000000000000
         C           -1.019989067549     0.063010789742    -0.002982602531    12.000000000000
         C           -0.200658067549     1.259636789742    -0.002806602531    12.000000000000
         H            1.741016932451     2.125755789742    -0.002543602531     1.007825032230
         H            2.935912932451    -0.098640210258    -0.002264602531     1.007825032230
         H            1.536557932451    -2.188360210258    -0.002470602531     1.007825032230
         H           -0.732735067549     2.205301789742    -0.002620602531     1.007825032230
         H           -0.813916867549    -1.965829310258     0.247404397469     1.007825032230

  Basis Set: AUG-CC-PVTZ
    Blend: AUG-CC-PVTZ
  Basis Set: (AUG-CC-PVTZ AUX)
    Blend: AUG-CC-PVTZ-JKFIT
	 Reference Energy          =    -321.6774449600628145 [Eh]
	 Singles Energy            =      -0.0000000000000000 [Eh]
	 Same-Spin Energy          =      -0.3358397338091037 [Eh]
	 Opposite-Spin Energy      =      -1.0281167923347181 [Eh]
	 Correlation Energy        =      -1.3639565261438218 [Eh]
	 Total Energy              =    -323.0414014862066097 [Eh]

	 ================> DF-SCS-MP2 Energies <==================
	-----------------------------------------------------------
	 SCS Same-Spin Scale       =       0.3333333333333333 [-]
	 SCS Opposite-Spin Scale   =       1.2000000000000000 [-]
	 SCS Same-Spin Energy      =      -0.1119465779363679 [Eh]
	 SCS Opposite-Spin Energy  =      -1.2337401508016617 [Eh]
	 SCS Correlation Energy    =      -1.3456867287380296 [Eh]
	 SCS Total Energy          =    -323.0231316888008450 [Eh]
	-----------------------------------------------------------

  Dipole Moment: [D]
     X:     4.0856      Y:    -1.2639      Z:     0.3251     Total:     4.2889

*** Psi4 exiting successfully. Buy a developer a beer!
