                               Psi4 1.3.2 release

  ==> Input File <==

--------------------------------------------------------------------------
#psi4
#
memory 32 gb

molecule  {
0 1
  O       -2.3004000     0.0048630     0.0003410
  N       -0.3010450    -1.1173380    -0.0002690
  C        1.1207170     1.2010130     0.0000540
  C        1.8075300    -0.0461910     0.0000640
  C        1.0639000    -1.1911280     0.0001230
  C       -1.0661860     0.0622010    -0.0003390
  C       -0.2468550     1.2588270    -0.0001630
  H        1.6948200     2.1249460     0.0001000
  H        2.8897080    -0.0994484     0.0503790
  H        1.4903610    -2.1891700     0.0001730
  H       -0.7789320     2.2044920     0.0000230
  H       -0.8600860    -1.9666840     0.0000480
units angstrom
no_reorient  #important for SAPT in psi4, default
symmetry c1  #important for SAPT in psi4, default
}

set PROPERTIES_ORIGIN ["COM"]
properties('MP2/aug-cc-pvtz', properties = ['dipole'])
--------------------------------------------------------------------------

    Molecular point group: c1
  Charge       = 0
  Multiplicity = 1
  Basis Set: AUG-CC-PVTZ
    Blend: AUG-CC-PVTZ
  Basis Set: (AUG-CC-PVTZ AUX)
    Blend: AUG-CC-PVTZ-JKFIT

    Orbital Energies [Eh]
    ---------------------

    Doubly Occupied:

       1A    -20.512029     2A    -15.628755     3A    -11.357061
       4A    -11.317133     5A    -11.276578     6A    -11.246137
       7A    -11.243087     8A     -1.372408     9A     -1.274633
      10A     -1.109129    11A     -1.032608    12A     -0.889020
      13A     -0.862783    14A     -0.756294    15A     -0.696158
      16A     -0.679304    17A     -0.639848    18A     -0.613085
      19A     -0.605727    20A     -0.560136    21A     -0.540266
      22A     -0.485796    23A     -0.426893    24A     -0.426287
      25A     -0.316500

  @DF-RHF Final Energy:  -321.68104283440653

   => Energetics <=

    Nuclear Repulsion Energy =            274.5294379744046864
    One-Electron Energy =                -980.6856549240520735
    Two-Electron Energy =                 384.4751741152408613
    Total Energy =                       -321.6810428344065258
  Basis Set: (AUG-CC-PVTZ AUX)
    Blend: AUG-CC-PVTZ-RI
    Molecular point group: c1

    Geometry (in Angstrom), charge = 0, multiplicity = 1:

       Center              X                  Y                   Z               Mass
    ------------   -----------------  -----------------  -----------------  -----------------
         O           -2.254203277518     0.005673248919    -0.000181694199    15.994914619570
         N           -0.254848277518    -1.116527751081    -0.000791694199    14.003074004430
         C            1.166913722482     1.201823248919    -0.000468694199    12.000000000000
         C            1.853726722482    -0.045380751081    -0.000458694199    12.000000000000
         C            1.110096722482    -1.190317751081    -0.000399694199    12.000000000000
         C           -1.019989277518     0.063011248919    -0.000861694199    12.000000000000
         C           -0.200658277518     1.259637248919    -0.000685694199    12.000000000000
         H            1.741016722482     2.125756248919    -0.000422694199     1.007825032230
         H            2.935904722482    -0.098638151081     0.049856305801     1.007825032230
         H            1.536557722482    -2.188359751081    -0.000349694199     1.007825032230
         H           -0.732735277518     2.205302248919    -0.000499694199     1.007825032230
         H           -0.813889277518    -1.965873751081    -0.000474694199     1.007825032230

  Basis Set: AUG-CC-PVTZ
    Blend: AUG-CC-PVTZ
  Basis Set: (AUG-CC-PVTZ AUX)
    Blend: AUG-CC-PVTZ-JKFIT
	 Reference Energy          =    -321.6810428344065258 [Eh]
	 Singles Energy            =      -0.0000000000000000 [Eh]
	 Same-Spin Energy          =      -0.3356374334265960 [Eh]
	 Opposite-Spin Energy      =      -1.0274612484998020 [Eh]
	 Correlation Energy        =      -1.3630986819263979 [Eh]
	 Total Energy              =    -323.0441415163328998 [Eh]

	 ================> DF-SCS-MP2 Energies <==================
	-----------------------------------------------------------
	 SCS Same-Spin Scale       =       0.3333333333333333 [-]
	 SCS Opposite-Spin Scale   =       1.2000000000000000 [-]
	 SCS Same-Spin Energy      =      -0.1118791444755320 [Eh]
	 SCS Opposite-Spin Energy  =      -1.2329534981997623 [Eh]
	 SCS Correlation Energy    =      -1.3448326426752943 [Eh]
	 SCS Total Energy          =    -323.0258754770817973 [Eh]
	-----------------------------------------------------------

  Dipole Moment: [D]
     X:     4.0851      Y:    -1.2997      Z:     0.0368     Total:     4.2871

*** Psi4 exiting successfully. Buy a developer a beer!
