                               Psi4 1.3.2 release

  ==> Input File <==

--------------------------------------------------------------------------
#psi4
#
memory 32 gb

molecule  {
0 1
  O       -2.3004000     0.0048630     0.0003410
  N       -0.3010450    -1.1173380    -0.0002690
  C        1.1207170     1.2010130     0.0000540
  C        1.8075300    -0.0461910     0.0000640
  C        1.0639000    -1.1911280     0.0001230
  C       -1.0661860     0.0622010    -0.0003390
  C       -0.2468550     1.2588270    -0.0001630
  H        1.6948450     2.1249506    -0.1999000
  H        2.8897160    -0.0994500     0.0003790
  H        1.4903610    -2.1891700     0.0001730
  H       -0.7789320     2.2044920     0.0000230
  H       -0.8600860    -1.9666840     0.0000480
units angstrom
no_reorient  #important for SAPT in psi4, default
symmetry c1  #important for SAPT in psi4, default
}

set PROPERTIES_ORIGIN ["COM"]
properties('MP2/aug-cc-pvtz', properties = ['dipole'])
--------------------------------------------------------------------------

    Molecular point group: c1
  Charge       = 0
  Multiplicity = 1
  Basis Set: AUG-CC-PVTZ
    Blend: AUG-CC-PVTZ
  Basis Set: (AUG-CC-PVTZ AUX)
    Blend: AUG-CC-PVTZ-JKFIT

    Orbital Energies [Eh]
    ---------------------

    Doubly Occupied:

       1A    -20.512249     2A    -15.628816     3A    -11.357273
       4A    -11.317093     5A    -11.278291     6A    -11.246145
       7A    -11.243578     8A     -1.372587     9A     -1.274731
      10A     -1.108880    11A     -1.032741    12A     -0.888072
      13A     -0.862334    14A     -0.756497    15A     -0.696159
      16A     -0.676936    17A     -0.639099    18A     -0.613210
      19A     -0.605846    20A     -0.559359    21A     -0.539843
      22A     -0.485828    23A     -0.429752    24A     -0.422715
      25A     -0.316629

  @DF-RHF Final Energy:  -321.67842096475118

   => Energetics <=

    Nuclear Repulsion Energy =            274.4659009568605370
    One-Electron Energy =                -980.5593169193178937
    Two-Electron Energy =                 384.4149949977061738
    Total Energy =                       -321.6784209647511830
  Basis Set: (AUG-CC-PVTZ AUX)
    Blend: AUG-CC-PVTZ-RI
    Molecular point group: c1

    Geometry (in Angstrom), charge = 0, multiplicity = 1:

       Center              X                  Y                   Z               Mass
    ------------   -----------------  -----------------  -----------------  -----------------
         O           -2.254203627468     0.005673217105     0.002469441215    15.994914619570
         N           -0.254848627468    -1.116527782895     0.001859441215    14.003074004430
         C            1.166913372532     1.201823217105     0.002182441215    12.000000000000
         C            1.853726372532    -0.045380782895     0.002192441215    12.000000000000
         C            1.110096372532    -1.190317782895     0.002251441215    12.000000000000
         C           -1.019989627468     0.063011217105     0.001789441215    12.000000000000
         C           -0.200658627468     1.259637217105     0.001965441215    12.000000000000
         H            1.741041372532     2.125760817105    -0.197771558785     1.007825032230
         H            2.935912372532    -0.098639782895     0.002507441215     1.007825032230
         H            1.536557372532    -2.188359782895     0.002301441215     1.007825032230
         H           -0.732735627468     2.205302217105     0.002151441215     1.007825032230
         H           -0.813889627468    -1.965873782895     0.002176441215     1.007825032230

  Basis Set: AUG-CC-PVTZ
    Blend: AUG-CC-PVTZ
  Basis Set: (AUG-CC-PVTZ AUX)
    Blend: AUG-CC-PVTZ-JKFIT
	 Reference Energy          =    -321.6784209647511830 [Eh]
	 Singles Energy            =      -0.0000000000000000 [Eh]
	 Same-Spin Energy          =      -0.3357844831749325 [Eh]
	 Opposite-Spin Energy      =      -1.0278104785658493 [Eh]
	 Correlation Energy        =      -1.3635949617407819 [Eh]
	 Total Energy              =    -323.0420159264919562 [Eh]

	 ================> DF-SCS-MP2 Energies <==================
	-----------------------------------------------------------
	 SCS Same-Spin Scale       =       0.3333333333333333 [-]
	 SCS Opposite-Spin Scale   =       1.2000000000000000 [-]
	 SCS Same-Spin Energy      =      -0.1119281610583108 [Eh]
	 SCS Opposite-Spin Energy  =      -1.2333725742790191 [Eh]
	 SCS Correlation Energy    =      -1.3453007353373301 [Eh]
	 SCS Total Energy          =    -323.0237217000885153 [Eh]
	-----------------------------------------------------------

  Dipole Moment: [D]
     X:     4.0668      Y:    -1.3205      Z:    -0.1184     Total:     4.2775

*** Psi4 exiting successfully. Buy a developer a beer!
