                               Psi4 1.3.2 release

  ==> Input File <==

--------------------------------------------------------------------------
#psi4
#
memory 32 gb

molecule  {
0 1
  O       -2.3004000     0.0048630     0.0003410
  N       -0.3010450    -1.1173380    -0.0002690
  C        1.1207170     1.2010130     0.0000540
  C        1.8075300    -0.0461910     0.0000640
  C        1.0639000    -1.1911280     0.0001230
  C       -1.0661860     0.0622010    -0.0003390
  C       -0.2468550     1.2588270    -0.0001630
  H        1.6948200     2.1249460     0.0001000
  H        2.8896841    -0.0994435     0.2003790
  H        1.4903610    -2.1891700     0.0001730
  H       -0.7789320     2.2044920     0.0000230
  H       -0.8600860    -1.9666840     0.0000480
units angstrom
no_reorient  #important for SAPT in psi4, default
symmetry c1  #important for SAPT in psi4, default
}

set PROPERTIES_ORIGIN ["COM"]
properties('MP2/aug-cc-pvtz', properties = ['dipole'])
--------------------------------------------------------------------------

    Molecular point group: c1
  Charge       = 0
  Multiplicity = 1
  Basis Set: AUG-CC-PVTZ
    Blend: AUG-CC-PVTZ
  Basis Set: (AUG-CC-PVTZ AUX)
    Blend: AUG-CC-PVTZ-JKFIT

    Orbital Energies [Eh]
    ---------------------

    Doubly Occupied:

       1A    -20.512435     2A    -15.629139     3A    -11.357373
       4A    -11.317696     5A    -11.276624     6A    -11.247455
       7A    -11.243159     8A     -1.372756     9A     -1.274987
      10A     -1.109019    11A     -1.032448    12A     -0.889023
      13A     -0.862488    14A     -0.755074    15A     -0.695937
      16A     -0.679418    17A     -0.639139    18A     -0.612918
      19A     -0.605600    20A     -0.558479    21A     -0.540090
      22A     -0.485490    23A     -0.427228    24A     -0.426083
      25A     -0.316671

  @DF-RHF Final Energy:  -321.67882261575937

   => Energetics <=

    Nuclear Repulsion Energy =            274.4657485442450593
    One-Electron Energy =                -980.5556871197009059
    Two-Electron Energy =                 384.4111159596964171
    Total Energy =                       -321.6788226157593726
  Basis Set: (AUG-CC-PVTZ AUX)
    Blend: AUG-CC-PVTZ-RI
    Molecular point group: c1

    Geometry (in Angstrom), charge = 0, multiplicity = 1:

       Center              X                  Y                   Z               Mass
    ------------   -----------------  -----------------  -----------------  -----------------
         O           -2.254203024070     0.005673196957    -0.001772375448    15.994914619570
         N           -0.254848024070    -1.116527803043    -0.002382375448    14.003074004430
         C            1.166913975930     1.201823196957    -0.002059375448    12.000000000000
         C            1.853726975930    -0.045380803043    -0.002049375448    12.000000000000
         C            1.110096975930    -1.190317803043    -0.001990375448    12.000000000000
         C           -1.019989024070     0.063011196957    -0.002452375448    12.000000000000
         C           -0.200658024070     1.259637196957    -0.002276375448    12.000000000000
         H            1.741016975930     2.125756196957    -0.002013375448     1.007825032230
         H            2.935881075930    -0.098633303043     0.198265624552     1.007825032230
         H            1.536557975930    -2.188359803043    -0.001940375448     1.007825032230
         H           -0.732735024070     2.205302196957    -0.002090375448     1.007825032230
         H           -0.813889024070    -1.965873803043    -0.002065375448     1.007825032230

  Basis Set: AUG-CC-PVTZ
    Blend: AUG-CC-PVTZ
  Basis Set: (AUG-CC-PVTZ AUX)
    Blend: AUG-CC-PVTZ-JKFIT
	 Reference Energy          =    -321.6788226157593726 [Eh]
	 Singles Energy            =      -0.0000000000000000 [Eh]
	 Same-Spin Energy          =      -0.3357057181593617 [Eh]
	 Opposite-Spin Energy      =      -1.0276619848095070 [Eh]
	 Correlation Energy        =      -1.3633677029688687 [Eh]
	 Total Energy              =    -323.0421903187282169 [Eh]

	 ================> DF-SCS-MP2 Energies <==================
	-----------------------------------------------------------
	 SCS Same-Spin Scale       =       0.3333333333333333 [-]
	 SCS Opposite-Spin Scale   =       1.2000000000000000 [-]
	 SCS Same-Spin Energy      =      -0.1119019060531206 [Eh]
	 SCS Opposite-Spin Energy  =      -1.2331943817714084 [Eh]
	 SCS Correlation Energy    =      -1.3450962878245289 [Eh]
	 SCS Total Energy          =    -323.0239189035838763 [Eh]
	-----------------------------------------------------------

  Dipole Moment: [D]
     X:     4.0459      Y:    -1.3001      Z:     0.1461     Total:     4.2521

*** Psi4 exiting successfully. Buy a developer a beer!
