                               Psi4 1.3.2 release

  ==> Input File <==

--------------------------------------------------------------------------
#psi4
#
memory 32 gb

molecule  {
0 1
  O       -2.3004000     0.0048630     0.0003410
  N       -0.3010450    -1.1173380    -0.0002690
  C        1.1207170     1.2010130     0.0000540
  C        1.8075300    -0.0461910     0.0000640
  C        1.0639000    -1.1911280     0.0001230
  C       -1.0661860     0.0622010    -0.0003390
  C       -0.2468412     1.2588245     0.0498370
  H        1.6948200     2.1249460     0.0001000
  H        2.8897160    -0.0994500     0.0003790
  H        1.4903610    -2.1891700     0.0001730
  H       -0.7789320     2.2044920     0.0000230
  H       -0.8600860    -1.9666840     0.0000480
units angstrom
no_reorient  #important for SAPT in psi4, default
symmetry c1  #important for SAPT in psi4, default
}

set PROPERTIES_ORIGIN ["COM"]
properties('MP2/aug-cc-pvtz', properties = ['dipole'])
--------------------------------------------------------------------------

    Molecular point group: c1
  Charge       = 0
  Multiplicity = 1
  Basis Set: AUG-CC-PVTZ
    Blend: AUG-CC-PVTZ
  Basis Set: (AUG-CC-PVTZ AUX)
    Blend: AUG-CC-PVTZ-JKFIT

    Orbital Energies [Eh]
    ---------------------

    Doubly Occupied:

       1A    -20.512050     2A    -15.628755     3A    -11.357121
       4A    -11.317231     5A    -11.276811     6A    -11.246071
       7A    -11.243227     8A     -1.372392     9A     -1.274640
      10A     -1.109040    11A     -1.032522    12A     -0.888926
      13A     -0.862711    14A     -0.756323    15A     -0.696025
      16A     -0.679289    17A     -0.639674    18A     -0.613182
      19A     -0.605551    20A     -0.560183    21A     -0.540021
      22A     -0.485811    23A     -0.426843    24A     -0.426154
      25A     -0.316534

  @DF-RHF Final Energy:  -321.68050649128656

   => Energetics <=

    Nuclear Repulsion Energy =            274.5060287793731959
    One-Electron Energy =                -980.6388977722752998
    Two-Electron Energy =                 384.4523625016155393
    Total Energy =                       -321.6805064912865646
  Basis Set: (AUG-CC-PVTZ AUX)
    Blend: AUG-CC-PVTZ-RI
    Molecular point group: c1

    Geometry (in Angstrom), charge = 0, multiplicity = 1:

       Center              X                  Y                   Z               Mass
    ------------   -----------------  -----------------  -----------------  -----------------
         O           -2.254205104832     0.005673581552    -0.005964790155    15.994914619570
         N           -0.254850104832    -1.116527418448    -0.006574790155    14.003074004430
         C            1.166911895168     1.201823581552    -0.006251790155    12.000000000000
         C            1.853724895168    -0.045380418448    -0.006241790155    12.000000000000
         C            1.110094895168    -1.190317418448    -0.006182790155    12.000000000000
         C           -1.019991104832     0.063011581552    -0.006644790155    12.000000000000
         C           -0.200646304832     1.259635081552     0.043531209845    12.000000000000
         H            1.741014895168     2.125756581552    -0.006205790155     1.007825032230
         H            2.935910895168    -0.098639418448    -0.005926790155     1.007825032230
         H            1.536555895168    -2.188359418448    -0.006132790155     1.007825032230
         H           -0.732737104832     2.205302581552    -0.006282790155     1.007825032230
         H           -0.813891104832    -1.965873418448    -0.006257790155     1.007825032230

  Basis Set: AUG-CC-PVTZ
    Blend: AUG-CC-PVTZ
  Basis Set: (AUG-CC-PVTZ AUX)
    Blend: AUG-CC-PVTZ-JKFIT
	 Reference Energy          =    -321.6805064912865646 [Eh]
	 Singles Energy            =      -0.0000000000000000 [Eh]
	 Same-Spin Energy          =      -0.3356566176066479 [Eh]
	 Opposite-Spin Energy      =      -1.0274999180582802 [Eh]
	 Correlation Energy        =      -1.3631565356649282 [Eh]
	 Total Energy              =    -323.0436630269514922 [Eh]

	 ================> DF-SCS-MP2 Energies <==================
	-----------------------------------------------------------
	 SCS Same-Spin Scale       =       0.3333333333333333 [-]
	 SCS Opposite-Spin Scale   =       1.2000000000000000 [-]
	 SCS Same-Spin Energy      =      -0.1118855392022160 [Eh]
	 SCS Opposite-Spin Energy  =      -1.2329999016699362 [Eh]
	 SCS Correlation Energy    =      -1.3448854408721522 [Eh]
	 SCS Total Energy          =    -323.0253919321586977 [Eh]
	-----------------------------------------------------------

  Dipole Moment: [D]
     X:     4.0883      Y:    -1.3045      Z:    -0.0277     Total:     4.2915

*** Psi4 exiting successfully. Buy a developer a beer!
