                               Psi4 1.3.2 release

  ==> Input File <==

--------------------------------------------------------------------------
#psi4
#
memory 32 gb

molecule  {
0 1
  O       -2.3004000     0.0048630     0.0003410
  N       -0.3010450    -1.1173380    -0.0002690
  C        1.1207170     1.2010130     0.0000540
  C        1.8075300    -0.0461910     0.0000640
  C        1.0639000    -1.1911280     0.0001230
  C       -1.0661860     0.0622010    -0.0003390
  C       -0.2468550     1.2588270    -0.0001630
  H        1.6948200     2.1249460     0.0001000
  H        2.8897160    -0.0994500     0.0003790
  H        1.4903610    -2.1891700     0.0001730
  H       -0.7789320     2.2044920     0.0000230
  H       -0.8600916    -1.9666750     0.0500480
units angstrom
no_reorient  #important for SAPT in psi4, default
symmetry c1  #important for SAPT in psi4, default
}

set PROPERTIES_ORIGIN ["COM"]
properties('MP2/aug-cc-pvtz', properties = ['dipole'])
--------------------------------------------------------------------------

    Molecular point group: c1
  Charge       = 0
  Multiplicity = 1
  Basis Set: AUG-CC-PVTZ
    Blend: AUG-CC-PVTZ
  Basis Set: (AUG-CC-PVTZ AUX)
    Blend: AUG-CC-PVTZ-JKFIT

    Orbital Energies [Eh]
    ---------------------

    Doubly Occupied:

       1A    -20.512022     2A    -15.628775     3A    -11.357038
       4A    -11.317066     5A    -11.276585     6A    -11.246055
       7A    -11.243089     8A     -1.372364     9A     -1.274520
      10A     -1.109083    11A     -1.032610    12A     -0.888912
      13A     -0.862754    14A     -0.756165    15A     -0.696150
      16A     -0.679256    17A     -0.639894    18A     -0.613119
      19A     -0.605648    20A     -0.560192    21A     -0.540246
      22A     -0.485808    23A     -0.427086    24A     -0.426091
      25A     -0.316500

  @DF-RHF Final Energy:  -321.68105349778426

   => Energetics <=

    Nuclear Repulsion Energy =            274.5277100863905844
    One-Electron Energy =                -980.6834713035204913
    Two-Electron Energy =                 384.4747077193456448
    Total Energy =                       -321.6810534977842622
  Basis Set: (AUG-CC-PVTZ AUX)
    Blend: AUG-CC-PVTZ-RI
    Molecular point group: c1

    Geometry (in Angstrom), charge = 0, multiplicity = 1:

       Center              X                  Y                   Z               Mass
    ------------   -----------------  -----------------  -----------------  -----------------
         O           -2.254203302969     0.005673170445    -0.000181694199    15.994914619570
         N           -0.254848302969    -1.116527829555    -0.000791694199    14.003074004430
         C            1.166913697031     1.201823170445    -0.000468694199    12.000000000000
         C            1.853726697031    -0.045380829555    -0.000458694199    12.000000000000
         C            1.110096697031    -1.190317829555    -0.000399694199    12.000000000000
         C           -1.019989302969     0.063011170445    -0.000861694199    12.000000000000
         C           -0.200658302969     1.259637170445    -0.000685694199    12.000000000000
         H            1.741016697031     2.125756170445    -0.000422694199     1.007825032230
         H            2.935912697031    -0.098639829555    -0.000143694199     1.007825032230
         H            1.536557697031    -2.188359829555    -0.000349694199     1.007825032230
         H           -0.732735302969     2.205302170445    -0.000499694199     1.007825032230
         H           -0.813894902969    -1.965864829555     0.049525305801     1.007825032230

  Basis Set: AUG-CC-PVTZ
    Blend: AUG-CC-PVTZ
  Basis Set: (AUG-CC-PVTZ AUX)
    Blend: AUG-CC-PVTZ-JKFIT
	 Reference Energy          =    -321.6810534977842622 [Eh]
	 Singles Energy            =      -0.0000000000000000 [Eh]
	 Same-Spin Energy          =      -0.3356412322621615 [Eh]
	 Opposite-Spin Energy      =      -1.0274765374937189 [Eh]
	 Correlation Energy        =      -1.3631177697558803 [Eh]
	 Total Energy              =    -323.0441712675401504 [Eh]

	 ================> DF-SCS-MP2 Energies <==================
	-----------------------------------------------------------
	 SCS Same-Spin Scale       =       0.3333333333333333 [-]
	 SCS Opposite-Spin Scale   =       1.2000000000000000 [-]
	 SCS Same-Spin Energy      =      -0.1118804107540538 [Eh]
	 SCS Opposite-Spin Energy  =      -1.2329718449924627 [Eh]
	 SCS Correlation Energy    =      -1.3448522557465166 [Eh]
	 SCS Total Energy          =    -323.0259057535307647 [Eh]
	-----------------------------------------------------------

  Dipole Moment: [D]
     X:     4.0877      Y:    -1.2982      Z:     0.0652     Total:     4.2894

*** Psi4 exiting successfully. Buy a developer a beer!
