                               Psi4 1.3.2 release

  ==> Input File <==

--------------------------------------------------------------------------
#psi4
#
memory 32 gb

molecule  {
0 1
  O       -2.3004000     0.0048630     0.0003410
  N       -0.3010450    -1.1173380    -0.0002690
  C        1.1207170     1.2010130     0.0000540
  C        1.8075300    -0.0461910     0.0000640
  C        1.0639000    -1.1911280     0.0001230
  C       -1.0661860     0.0622010    -0.0003390
  C       -0.2468273     1.2588219     0.0998370
  H        1.6948200     2.1249460     0.0001000
  H        2.8897160    -0.0994500     0.0003790
  H        1.4903610    -2.1891700     0.0001730
  H       -0.7789320     2.2044920     0.0000230
  H       -0.8600860    -1.9666840     0.0000480
units angstrom
no_reorient  #important for SAPT in psi4, default
symmetry c1  #important for SAPT in psi4, default
}

set PROPERTIES_ORIGIN ["COM"]
properties('MP2/aug-cc-pvtz', properties = ['dipole'])
--------------------------------------------------------------------------

    Molecular point group: c1
  Charge       = 0
  Multiplicity = 1
  Basis Set: AUG-CC-PVTZ
    Blend: AUG-CC-PVTZ
  Basis Set: (AUG-CC-PVTZ AUX)
    Blend: AUG-CC-PVTZ-JKFIT

    Orbital Energies [Eh]
    ---------------------

    Doubly Occupied:

       1A    -20.512196     2A    -15.628836     3A    -11.357360
       4A    -11.317645     5A    -11.277526     6A    -11.246142
       7A    -11.243663     8A     -1.372416     9A     -1.274735
      10A     -1.108748    11A     -1.032230    12A     -0.888653
      13A     -0.862434    14A     -0.756161    15A     -0.695592
      16A     -0.679260    17A     -0.639016    18A     -0.613415
      19A     -0.605030    20A     -0.559989    21A     -0.539244
      22A     -0.485798    23A     -0.426711    24A     -0.425765
      25A     -0.316673

  @DF-RHF Final Energy:  -321.67847715638811

   => Energetics <=

    Nuclear Repulsion Energy =            274.4226000905234741
    One-Electron Energy =                -980.4716741230719208
    Two-Electron Energy =                 384.3705968761603344
    Total Energy =                       -321.6784771563881122
  Basis Set: (AUG-CC-PVTZ AUX)
    Blend: AUG-CC-PVTZ-RI
    Molecular point group: c1

    Geometry (in Angstrom), charge = 0, multiplicity = 1:

       Center              X                  Y                   Z               Mass
    ------------   -----------------  -----------------  -----------------  -----------------
         O           -2.254206859936     0.005673909845    -0.012278113194    15.994914619570
         N           -0.254851859936    -1.116527090155    -0.012888113194    14.003074004430
         C            1.166910140064     1.201823909845    -0.012565113194    12.000000000000
         C            1.853723140064    -0.045380090155    -0.012555113194    12.000000000000
         C            1.110093140064    -1.190317090155    -0.012496113194    12.000000000000
         C           -1.019992859936     0.063011909845    -0.012958113194    12.000000000000
         C           -0.200634159936     1.259632809845     0.087217886806    12.000000000000
         H            1.741013140064     2.125756909845    -0.012519113194     1.007825032230
         H            2.935909140064    -0.098639090155    -0.012240113194     1.007825032230
         H            1.536554140064    -2.188359090155    -0.012446113194     1.007825032230
         H           -0.732738859936     2.205302909845    -0.012596113194     1.007825032230
         H           -0.813892859936    -1.965873090155    -0.012571113194     1.007825032230

  Basis Set: AUG-CC-PVTZ
    Blend: AUG-CC-PVTZ
  Basis Set: (AUG-CC-PVTZ AUX)
    Blend: AUG-CC-PVTZ-JKFIT
	 Reference Energy          =    -321.6784771563881122 [Eh]
	 Singles Energy            =      -0.0000000000000000 [Eh]
	 Same-Spin Energy          =      -0.3357303461228677 [Eh]
	 Opposite-Spin Energy      =      -1.0276906880012688 [Eh]
	 Correlation Energy        =      -1.3634210341241366 [Eh]
	 Total Energy              =    -323.0418981905122564 [Eh]

	 ================> DF-SCS-MP2 Energies <==================
	-----------------------------------------------------------
	 SCS Same-Spin Scale       =       0.3333333333333333 [-]
	 SCS Opposite-Spin Scale   =       1.2000000000000000 [-]
	 SCS Same-Spin Energy      =      -0.1119101153742892 [Eh]
	 SCS Opposite-Spin Energy  =      -1.2332288256015225 [Eh]
	 SCS Correlation Energy    =      -1.3451389409758117 [Eh]
	 SCS Total Energy          =    -323.0236160973639130 [Eh]
	-----------------------------------------------------------

  Dipole Moment: [D]
     X:     4.0898      Y:    -1.3188      Z:    -0.0557     Total:     4.2975

*** Psi4 exiting successfully. Buy a developer a beer!
