                               Psi4 1.3.2 release

  ==> Input File <==

--------------------------------------------------------------------------
#psi4
#
memory 32 gb

molecule  {
0 1
  O       -2.3004000     0.0048630     0.0003410
  N       -0.3010450    -1.1173380    -0.0002690
  C        1.1207170     1.2010130     0.0000540
  C        1.8075300    -0.0461910     0.0000640
  C        1.0639000    -1.1911280     0.0001230
  C       -1.0661860     0.0622010    -0.0003390
  C       -0.2468550     1.2588270    -0.0001630
  H        1.6948200     2.1249460     0.0001000
  H        2.8897160    -0.0994500     0.0003790
  H        1.4903610    -2.1891700     0.0001730
  H       -0.7789123     2.2045232    -0.1999770
  H       -0.8600860    -1.9666840     0.0000480
units angstrom
no_reorient  #important for SAPT in psi4, default
symmetry c1  #important for SAPT in psi4, default
}

set PROPERTIES_ORIGIN ["COM"]
properties('MP2/aug-cc-pvtz', properties = ['dipole'])
--------------------------------------------------------------------------

    Molecular point group: c1
  Charge       = 0
  Multiplicity = 1
  Basis Set: AUG-CC-PVTZ
    Blend: AUG-CC-PVTZ
  Basis Set: (AUG-CC-PVTZ AUX)
    Blend: AUG-CC-PVTZ-JKFIT

    Orbital Energies [Eh]
    ---------------------

    Doubly Occupied:

       1A    -20.512120     2A    -15.628906     3A    -11.357130
       4A    -11.317492     5A    -11.276929     6A    -11.246229
       7A    -11.244540     8A     -1.372462     9A     -1.274793
      10A     -1.109144    11A     -1.032443    12A     -0.888696
      13A     -0.862580    14A     -0.755536    15A     -0.696183
      16A     -0.679320    17A     -0.637993    18A     -0.613024
      19A     -0.605544    20A     -0.560323    21A     -0.538236
      22A     -0.485843    23A     -0.428144    24A     -0.424604
      25A     -0.316523

  @DF-RHF Final Energy:  -321.67869805521951

   => Energetics <=

    Nuclear Repulsion Energy =            274.4626030519002029
    One-Electron Energy =                -980.5531272483768817
    Two-Electron Energy =                 384.4118261412572224
    Total Energy =                       -321.6786980552195132
  Basis Set: (AUG-CC-PVTZ AUX)
    Blend: AUG-CC-PVTZ-RI
    Molecular point group: c1

    Geometry (in Angstrom), charge = 0, multiplicity = 1:

       Center              X                  Y                   Z               Mass
    ------------   -----------------  -----------------  -----------------  -----------------
         O           -2.254203571264     0.005672935025     0.002469441215    15.994914619570
         N           -0.254848571264    -1.116528064975     0.001859441215    14.003074004430
         C            1.166913428736     1.201822935025     0.002182441215    12.000000000000
         C            1.853726428736    -0.045381064975     0.002192441215    12.000000000000
         C            1.110096428736    -1.190318064975     0.002251441215    12.000000000000
         C           -1.019989571264     0.063010935025     0.001789441215    12.000000000000
         C           -0.200658571264     1.259636935025     0.001965441215    12.000000000000
         H            1.741016428736     2.125755935025     0.002228441215     1.007825032230
         H            2.935912428736    -0.098640064975     0.002507441215     1.007825032230
         H            1.536557428736    -2.188360064975     0.002301441215     1.007825032230
         H           -0.732715871264     2.205333135025    -0.197848558785     1.007825032230
         H           -0.813889571264    -1.965874064975     0.002176441215     1.007825032230

  Basis Set: AUG-CC-PVTZ
    Blend: AUG-CC-PVTZ
  Basis Set: (AUG-CC-PVTZ AUX)
    Blend: AUG-CC-PVTZ-JKFIT
	 Reference Energy          =    -321.6786980552195132 [Eh]
	 Singles Energy            =      -0.0000000000000000 [Eh]
	 Same-Spin Energy          =      -0.3357389992810796 [Eh]
	 Opposite-Spin Energy      =      -1.0276767150367401 [Eh]
	 Correlation Energy        =      -1.3634157143178196 [Eh]
	 Total Energy              =    -323.0421137695373091 [Eh]

	 ================> DF-SCS-MP2 Energies <==================
	-----------------------------------------------------------
	 SCS Same-Spin Scale       =       0.3333333333333333 [-]
	 SCS Opposite-Spin Scale   =       1.2000000000000000 [-]
	 SCS Same-Spin Energy      =      -0.1119129997603599 [Eh]
	 SCS Opposite-Spin Energy  =      -1.2332120580440880 [Eh]
	 SCS Correlation Energy    =      -1.3451250578044478 [Eh]
	 SCS Total Energy          =    -323.0238231130239797 [Eh]
	-----------------------------------------------------------

  Dipole Moment: [D]
     X:     4.0964      Y:    -1.3235      Z:    -0.1280     Total:     4.3068

*** Psi4 exiting successfully. Buy a developer a beer!
