                               Psi4 1.3.2 release

  ==> Input File <==

--------------------------------------------------------------------------
#psi4
#
memory 32 gb

molecule  {
0 1
  O       -2.3004000     0.0048630     0.0003410
  N       -0.3010450    -1.1173380    -0.0002690
  C        1.1207170     1.2010130     0.0000540
  C        1.8075300    -0.0461910     0.0000640
  C        1.0639000    -1.1911280     0.0001230
  C       -1.0661860     0.0622010    -0.0003390
  C       -0.2468550     1.2588270    -0.0001630
  H        1.6948200     2.1249460     0.0001000
  H        2.8897160    -0.0994500     0.0003790
  H        1.4903610    -2.1891700     0.0001730
  H       -0.7789320     2.2044920     0.0000230
  H       -0.8600971    -1.9666661     0.1000480
units angstrom
no_reorient  #important for SAPT in psi4, default
symmetry c1  #important for SAPT in psi4, default
}

set PROPERTIES_ORIGIN ["COM"]
properties('MP2/aug-cc-pvtz', properties = ['dipole'])
--------------------------------------------------------------------------

    Molecular point group: c1
  Charge       = 0
  Multiplicity = 1
  Basis Set: AUG-CC-PVTZ
    Blend: AUG-CC-PVTZ
  Basis Set: (AUG-CC-PVTZ AUX)
    Blend: AUG-CC-PVTZ-JKFIT

    Orbital Energies [Eh]
    ---------------------

    Doubly Occupied:

       1A    -20.512085     2A    -15.628912     3A    -11.357030
       4A    -11.316980     5A    -11.276614     6A    -11.246074
       7A    -11.243106     8A     -1.372301     9A     -1.274257
      10A     -1.108920    11A     -1.032580    12A     -0.888594
      13A     -0.862606    14A     -0.755529    15A     -0.696078
      16A     -0.679132    17A     -0.639877    18A     -0.613176
      19A     -0.605404    20A     -0.560027    21A     -0.540154
      22A     -0.485784    23A     -0.427438    24A     -0.425753
      25A     -0.316535

  @DF-RHF Final Energy:  -321.68065839346565

   => Energetics <=

    Nuclear Repulsion Energy =            274.5096488746446539
    One-Electron Energy =                -980.6507252418380176
    Two-Electron Energy =                 384.4604179737277150
    Total Energy =                       -321.6806583934656487
  Basis Set: (AUG-CC-PVTZ AUX)
    Blend: AUG-CC-PVTZ-RI
    Molecular point group: c1

    Geometry (in Angstrom), charge = 0, multiplicity = 1:

       Center              X                  Y                   Z               Mass
    ------------   -----------------  -----------------  -----------------  -----------------
         O           -2.254203244644     0.005673076065    -0.000711921282    15.994914619570
         N           -0.254848244644    -1.116527923935    -0.001321921282    14.003074004430
         C            1.166913755356     1.201823076065    -0.000998921282    12.000000000000
         C            1.853726755356    -0.045380923935    -0.000988921282    12.000000000000
         C            1.110096755356    -1.190317923935    -0.000929921282    12.000000000000
         C           -1.019989244644     0.063011076065    -0.001391921282    12.000000000000
         C           -0.200658244644     1.259637076065    -0.001215921282    12.000000000000
         H            1.741016755356     2.125756076065    -0.000952921282     1.007825032230
         H            2.935912755356    -0.098639923935    -0.000673921282     1.007825032230
         H            1.536557755356    -2.188359923935    -0.000879921282     1.007825032230
         H           -0.732735244644     2.205302076065    -0.001029921282     1.007825032230
         H           -0.813900344644    -1.965856023935     0.098995078718     1.007825032230

  Basis Set: AUG-CC-PVTZ
    Blend: AUG-CC-PVTZ
  Basis Set: (AUG-CC-PVTZ AUX)
    Blend: AUG-CC-PVTZ-JKFIT
	 Reference Energy          =    -321.6806583934656487 [Eh]
	 Singles Energy            =      -0.0000000000000000 [Eh]
	 Same-Spin Energy          =      -0.3356661811902339 [Eh]
	 Opposite-Spin Energy      =      -1.0275560082419628 [Eh]
	 Correlation Energy        =      -1.3632221894321968 [Eh]
	 Total Energy              =    -323.0438805828978275 [Eh]

	 ================> DF-SCS-MP2 Energies <==================
	-----------------------------------------------------------
	 SCS Same-Spin Scale       =       0.3333333333333333 [-]
	 SCS Opposite-Spin Scale   =       1.2000000000000000 [-]
	 SCS Same-Spin Energy      =      -0.1118887270634113 [Eh]
	 SCS Opposite-Spin Energy  =      -1.2330672098903552 [Eh]
	 SCS Correlation Energy    =      -1.3449559369537665 [Eh]
	 SCS Total Energy          =    -323.0256143304193870 [Eh]
	-----------------------------------------------------------

  Dipole Moment: [D]
     X:     4.0874      Y:    -1.2937      Z:     0.1305     Total:     4.2892

*** Psi4 exiting successfully. Buy a developer a beer!
