                               Psi4 1.3.2 release

  ==> Input File <==

--------------------------------------------------------------------------
#psi4
#
memory 32 gb

molecule  {
0 1
  O       -2.3004000     0.0048630     0.0003410
  N       -0.3010450    -1.1173380    -0.0002690
  C        1.1207170     1.2010130     0.0000540
  C        1.8075300    -0.0461910     0.0000640
  C        1.0639000    -1.1911280     0.0001230
  C       -1.0661860     0.0622010    -0.0003390
  C       -0.2468550     1.2588270    -0.0001630
  H        1.6948200     2.1249460     0.0001000
  H        2.8897160    -0.0994500     0.0003790
  H        1.4903610    -2.1891700     0.0001730
  H       -0.7789221     2.2045076    -0.0999770
  H       -0.8600860    -1.9666840     0.0000480
units angstrom
no_reorient  #important for SAPT in psi4, default
symmetry c1  #important for SAPT in psi4, default
}

set PROPERTIES_ORIGIN ["COM"]
properties('MP2/aug-cc-pvtz', properties = ['dipole'])
--------------------------------------------------------------------------

    Molecular point group: c1
  Charge       = 0
  Multiplicity = 1
  Basis Set: AUG-CC-PVTZ
    Blend: AUG-CC-PVTZ
  Basis Set: (AUG-CC-PVTZ AUX)
    Blend: AUG-CC-PVTZ-JKFIT

    Orbital Energies [Eh]
    ---------------------

    Doubly Occupied:

       1A    -20.512031     2A    -15.628773     3A    -11.357062
       4A    -11.317194     5A    -11.276663     6A    -11.246093
       7A    -11.243449     8A     -1.372404     9A     -1.274655
      10A     -1.109137    11A     -1.032573    12A     -0.888934
      13A     -0.862746    14A     -0.756159    15A     -0.696174
      16A     -0.679300    17A     -0.639408    18A     -0.613080
      19A     -0.605687    20A     -0.560264    21A     -0.539776
      22A     -0.485823    23A     -0.427435    24A     -0.425628
      25A     -0.316496

  @DF-RHF Final Energy:  -321.68058984012555

   => Energetics <=

    Nuclear Repulsion Energy =            274.5157357019247684
    One-Electron Energy =                -980.6587651177811722
    Two-Electron Energy =                 384.4624395757308548
    Total Energy =                       -321.6805898401255490
  Basis Set: (AUG-CC-PVTZ AUX)
    Blend: AUG-CC-PVTZ-RI
    Molecular point group: c1

    Geometry (in Angstrom), charge = 0, multiplicity = 1:

       Center              X                  Y                   Z               Mass
    ------------   -----------------  -----------------  -----------------  -----------------
         O           -2.254203467340     0.005673100455     0.001408987050    15.994914619570
         N           -0.254848467340    -1.116527899545     0.000798987050    14.003074004430
         C            1.166913532660     1.201823100455     0.001121987050    12.000000000000
         C            1.853726532660    -0.045380899545     0.001131987050    12.000000000000
         C            1.110096532660    -1.190317899545     0.001190987050    12.000000000000
         C           -1.019989467340     0.063011100455     0.000728987050    12.000000000000
         C           -0.200658467340     1.259637100455     0.000904987050    12.000000000000
         H            1.741016532660     2.125756100455     0.001167987050     1.007825032230
         H            2.935912532660    -0.098639899545     0.001446987050     1.007825032230
         H            1.536557532660    -2.188359899545     0.001240987050     1.007825032230
         H           -0.732725567340     2.205317700455    -0.098909012950     1.007825032230
         H           -0.813889467340    -1.965873899545     0.001115987050     1.007825032230

  Basis Set: AUG-CC-PVTZ
    Blend: AUG-CC-PVTZ
  Basis Set: (AUG-CC-PVTZ AUX)
    Blend: AUG-CC-PVTZ-JKFIT
	 Reference Energy          =    -321.6805898401255490 [Eh]
	 Singles Energy            =      -0.0000000000000000 [Eh]
	 Same-Spin Energy          =      -0.3356593223085300 [Eh]
	 Opposite-Spin Energy      =      -1.0275003007805588 [Eh]
	 Correlation Energy        =      -1.3631596230890888 [Eh]
	 Total Energy              =    -323.0437494632146240 [Eh]

	 ================> DF-SCS-MP2 Energies <==================
	-----------------------------------------------------------
	 SCS Same-Spin Scale       =       0.3333333333333333 [-]
	 SCS Opposite-Spin Scale   =       1.2000000000000000 [-]
	 SCS Same-Spin Energy      =      -0.1118864407695100 [Eh]
	 SCS Opposite-Spin Energy  =      -1.2330003609366704 [Eh]
	 SCS Correlation Energy    =      -1.3448868017061804 [Eh]
	 SCS Total Energy          =    -323.0254766418317445 [Eh]
	-----------------------------------------------------------

  Dipole Moment: [D]
     X:     4.0900      Y:    -1.3057      Z:    -0.0645     Total:     4.2938

*** Psi4 exiting successfully. Buy a developer a beer!
