                               Psi4 1.3.2 release

  ==> Input File <==

--------------------------------------------------------------------------
#psi4
#
memory 32 gb

molecule  {
0 1
  O       -2.3004000     0.0048630     0.0003410
  N       -0.3010450    -1.1173380    -0.0002690
  C        1.1207170     1.2010130     0.0000540
  C        1.8075300    -0.0461910     0.0000640
  C        1.0639000    -1.1911280     0.0001230
  C       -1.0661860     0.0622010    -0.0003390
  C       -0.2468550     1.2588270    -0.0001630
  H        1.6948200     2.1249460     0.0001000
  H        2.8897160    -0.0994500     0.0003790
  H        1.4903610    -2.1891700     0.0001730
  H       -0.7789074     2.2045309    -0.2499770
  H       -0.8600860    -1.9666840     0.0000480
units angstrom
no_reorient  #important for SAPT in psi4, default
symmetry c1  #important for SAPT in psi4, default
}

set PROPERTIES_ORIGIN ["COM"]
properties('MP2/aug-cc-pvtz', properties = ['dipole'])
--------------------------------------------------------------------------

    Molecular point group: c1
  Charge       = 0
  Multiplicity = 1
  Basis Set: AUG-CC-PVTZ
    Blend: AUG-CC-PVTZ
  Basis Set: (AUG-CC-PVTZ AUX)
    Blend: AUG-CC-PVTZ-JKFIT

    Orbital Energies [Eh]
    ---------------------

    Doubly Occupied:

       1A    -20.512185     2A    -15.629006     3A    -11.357184
       4A    -11.317713     5A    -11.277130     6A    -11.246333
       7A    -11.245344     8A     -1.372506     9A     -1.274897
      10A     -1.109154    11A     -1.032355    12A     -0.888538
      13A     -0.862467    14A     -0.755107    15A     -0.696196
      16A     -0.679343    17A     -0.636992    18A     -0.612979
      19A     -0.605436    20A     -0.560375    21A     -0.537046
      22A     -0.485859    23A     -0.428475    24A     -0.424042
      25A     -0.316547

  @DF-RHF Final Energy:  -321.67717801450345

   => Energetics <=

    Nuclear Repulsion Energy =            274.4237028429634506
    One-Electron Energy =                -980.4753437831623160
    Two-Electron Energy =                 384.3744629256954681
    Total Energy =                       -321.6771780145034541
  Basis Set: (AUG-CC-PVTZ AUX)
    Blend: AUG-CC-PVTZ-RI
    Molecular point group: c1

    Geometry (in Angstrom), charge = 0, multiplicity = 1:

       Center              X                  Y                   Z               Mass
    ------------   -----------------  -----------------  -----------------  -----------------
         O           -2.254203623227     0.005672853370     0.002999668298    15.994914619570
         N           -0.254848623227    -1.116528146630     0.002389668298    14.003074004430
         C            1.166913376773     1.201822853370     0.002712668298    12.000000000000
         C            1.853726376773    -0.045381146630     0.002722668298    12.000000000000
         C            1.110096376773    -1.190318146630     0.002781668298    12.000000000000
         C           -1.019989623227     0.063010853370     0.002319668298    12.000000000000
         C           -0.200658623227     1.259636853370     0.002495668298    12.000000000000
         H            1.741016376773     2.125755853370     0.002758668298     1.007825032230
         H            2.935912376773    -0.098640146630     0.003037668298     1.007825032230
         H            1.536557376773    -2.188360146630     0.002831668298     1.007825032230
         H           -0.732711023227     2.205340753370    -0.247318331702     1.007825032230
         H           -0.813889623227    -1.965874146630     0.002706668298     1.007825032230

  Basis Set: AUG-CC-PVTZ
    Blend: AUG-CC-PVTZ
  Basis Set: (AUG-CC-PVTZ AUX)
    Blend: AUG-CC-PVTZ-JKFIT
	 Reference Energy          =    -321.6771780145034541 [Eh]
	 Singles Energy            =      -0.0000000000000000 [Eh]
	 Same-Spin Energy          =      -0.3357982841230681 [Eh]
	 Opposite-Spin Energy      =      -1.0278232011536468 [Eh]
	 Correlation Energy        =      -1.3636214852767150 [Eh]
	 Total Energy              =    -323.0407994997801779 [Eh]

	 ================> DF-SCS-MP2 Energies <==================
	-----------------------------------------------------------
	 SCS Same-Spin Scale       =       0.3333333333333333 [-]
	 SCS Opposite-Spin Scale   =       1.2000000000000000 [-]
	 SCS Same-Spin Energy      =      -0.1119327613743560 [Eh]
	 SCS Opposite-Spin Energy  =      -1.2333878413843762 [Eh]
	 SCS Correlation Energy    =      -1.3453206027587323 [Eh]
	 SCS Total Energy          =    -323.0224986172621584 [Eh]
	-----------------------------------------------------------

  Dipole Moment: [D]
     X:     4.1012      Y:    -1.3367      Z:    -0.1592     Total:     4.3164

*** Psi4 exiting successfully. Buy a developer a beer!
