                               Psi4 1.3.2 release

  ==> Input File <==

--------------------------------------------------------------------------
#psi4
#
memory 32 gb

molecule  {
0 1
  O       -2.3004000     0.0048630     0.0003410
  N       -0.3010450    -1.1173380    -0.0002690
  C        1.1207170     1.2010130     0.0000540
  C        1.8075300    -0.0461910     0.0000640
  C        1.0639000    -1.1911280     0.0001230
  C       -1.0661860     0.0622010    -0.0003390
  C       -0.2468550     1.2588270    -0.0001630
  H        1.6948200     2.1249460     0.0001000
  H        2.8897160    -0.0994500     0.0003790
  H        1.4904206    -2.1891941    -0.2998270
  H       -0.7789320     2.2044920     0.0000230
  H       -0.8600860    -1.9666840     0.0000480
units angstrom
no_reorient  #important for SAPT in psi4, default
symmetry c1  #important for SAPT in psi4, default
}

set PROPERTIES_ORIGIN ["COM"]
properties('MP2/aug-cc-pvtz', properties = ['dipole'])
--------------------------------------------------------------------------

    Molecular point group: c1
  Charge       = 0
  Multiplicity = 1
  Basis Set: AUG-CC-PVTZ
    Blend: AUG-CC-PVTZ
  Basis Set: (AUG-CC-PVTZ AUX)
    Blend: AUG-CC-PVTZ-JKFIT

    Orbital Energies [Eh]
    ---------------------

    Doubly Occupied:

       1A    -20.512248     2A    -15.628269     3A    -11.357281
       4A    -11.319976     5A    -11.277048     6A    -11.247376
       7A    -11.244167     8A     -1.372511     9A     -1.274251
      10A     -1.109719    11A     -1.031636    12A     -0.887943
      13A     -0.861587    14A     -0.754495    15A     -0.694521
      16A     -0.676011    17A     -0.638934    18A     -0.614297
      19A     -0.601997    20A     -0.560745    21A     -0.539220
      22A     -0.484677    23A     -0.426892    24A     -0.426417
      25A     -0.316815

  @DF-RHF Final Energy:  -321.67489285775167

   => Energetics <=

    Nuclear Repulsion Energy =            274.3803691018800350
    One-Electron Energy =                -980.3924603258080879
    Two-Electron Energy =                 384.3371983661764375
    Total Energy =                       -321.6748928577516722
  Basis Set: (AUG-CC-PVTZ AUX)
    Blend: AUG-CC-PVTZ-RI
    Molecular point group: c1

    Geometry (in Angstrom), charge = 0, multiplicity = 1:

       Center              X                  Y                   Z               Mass
    ------------   -----------------  -----------------  -----------------  -----------------
         O           -2.254203994385     0.005673521456     0.003529895381    15.994914619570
         N           -0.254848994385    -1.116527478544     0.002919895381    14.003074004430
         C            1.166913005615     1.201823521456     0.003242895381    12.000000000000
         C            1.853726005615    -0.045380478544     0.003252895381    12.000000000000
         C            1.110096005615    -1.190317478544     0.003311895381    12.000000000000
         C           -1.019989994385     0.063011521456     0.002849895381    12.000000000000
         C           -0.200658994385     1.259637521456     0.003025895381    12.000000000000
         H            1.741016005615     2.125756521456     0.003288895381     1.007825032230
         H            2.935912005615    -0.098639478544     0.003567895381     1.007825032230
         H            1.536616605615    -2.188383578544    -0.296638104619     1.007825032230
         H           -0.732735994385     2.205302521456     0.003211895381     1.007825032230
         H           -0.813889994385    -1.965873478544     0.003236895381     1.007825032230

  Basis Set: AUG-CC-PVTZ
    Blend: AUG-CC-PVTZ
  Basis Set: (AUG-CC-PVTZ AUX)
    Blend: AUG-CC-PVTZ-JKFIT
	 Reference Energy          =    -321.6748928577516722 [Eh]
	 Singles Energy            =      -0.0000000000000000 [Eh]
	 Same-Spin Energy          =      -0.3360330794825022 [Eh]
	 Opposite-Spin Energy      =      -1.0283718379886739 [Eh]
	 Correlation Energy        =      -1.3644049174711761 [Eh]
	 Total Energy              =    -323.0392977752228489 [Eh]

	 ================> DF-SCS-MP2 Energies <==================
	-----------------------------------------------------------
	 SCS Same-Spin Scale       =       0.3333333333333333 [-]
	 SCS Opposite-Spin Scale   =       1.2000000000000000 [-]
	 SCS Same-Spin Energy      =      -0.1120110264941674 [Eh]
	 SCS Opposite-Spin Energy  =      -1.2340462055864088 [Eh]
	 SCS Correlation Energy    =      -1.3460572320805761 [Eh]
	 SCS Total Energy          =    -323.0209500898322403 [Eh]
	-----------------------------------------------------------

  Dipole Moment: [D]
     X:     4.0694      Y:    -1.2186      Z:    -0.2075     Total:     4.2530

*** Psi4 exiting successfully. Buy a developer a beer!
