                               Psi4 1.3.2 release

  ==> Input File <==

--------------------------------------------------------------------------
#psi4
#
memory 32 gb

molecule  {
0 1
  O       -2.3004000     0.0048630     0.0003410
  N       -0.3010450    -1.1173380    -0.0002690
  C        1.1207170     1.2010130     0.0000540
  C        1.8075300    -0.0461910     0.0000640
  C        1.0639000    -1.1911280     0.0001230
  C       -1.0661860     0.0622010    -0.0003390
  C       -0.2468550     1.2588270    -0.0001630
  H        1.6948513     2.1249518    -0.2499000
  H        2.8897160    -0.0994500     0.0003790
  H        1.4903610    -2.1891700     0.0001730
  H       -0.7789320     2.2044920     0.0000230
  H       -0.8600860    -1.9666840     0.0000480
units angstrom
no_reorient  #important for SAPT in psi4, default
symmetry c1  #important for SAPT in psi4, default
}

set PROPERTIES_ORIGIN ["COM"]
properties('MP2/aug-cc-pvtz', properties = ['dipole'])
--------------------------------------------------------------------------

    Molecular point group: c1
  Charge       = 0
  Multiplicity = 1
  Basis Set: AUG-CC-PVTZ
    Blend: AUG-CC-PVTZ
  Basis Set: (AUG-CC-PVTZ AUX)
    Blend: AUG-CC-PVTZ-JKFIT

    Orbital Energies [Eh]
    ---------------------

    Doubly Occupied:

       1A    -20.512390     2A    -15.628867     3A    -11.357406
       4A    -11.317098     5A    -11.279238     6A    -11.246205
       7A    -11.243857     8A     -1.372703     9A     -1.274803
      10A     -1.108749    11A     -1.032814    12A     -0.887598
      13A     -0.862076    14A     -0.756565    15A     -0.696174
      16A     -0.675709    17A     -0.638630    18A     -0.613274
      19A     -0.605912    20A     -0.558877    21A     -0.539558
      22A     -0.485838    23A     -0.430445    24A     -0.421640
      25A     -0.316710

  @DF-RHF Final Energy:  -321.67675498192688

   => Energetics <=

    Nuclear Repulsion Energy =            274.4288421554074944
    One-Electron Energy =                -980.4849201066076603
    Two-Electron Energy =                 384.3793229692733462
    Total Energy =                       -321.6767549819268766
  Basis Set: (AUG-CC-PVTZ AUX)
    Blend: AUG-CC-PVTZ-RI
    Molecular point group: c1

    Geometry (in Angstrom), charge = 0, multiplicity = 1:

       Center              X                  Y                   Z               Mass
    ------------   -----------------  -----------------  -----------------  -----------------
         O           -2.254203694277     0.005673204380     0.002999668298    15.994914619570
         N           -0.254848694277    -1.116527795620     0.002389668298    14.003074004430
         C            1.166913305723     1.201823204380     0.002712668298    12.000000000000
         C            1.853726305723    -0.045380795620     0.002722668298    12.000000000000
         C            1.110096305723    -1.190317795620     0.002781668298    12.000000000000
         C           -1.019989694277     0.063011204380     0.002319668298    12.000000000000
         C           -0.200658694277     1.259637204380     0.002495668298    12.000000000000
         H            1.741047605723     2.125762004380    -0.247241331702     1.007825032230
         H            2.935912305723    -0.098639795620     0.003037668298     1.007825032230
         H            1.536557305723    -2.188359795620     0.002831668298     1.007825032230
         H           -0.732735694277     2.205302204380     0.002681668298     1.007825032230
         H           -0.813889694277    -1.965873795620     0.002706668298     1.007825032230

  Basis Set: AUG-CC-PVTZ
    Blend: AUG-CC-PVTZ
  Basis Set: (AUG-CC-PVTZ AUX)
    Blend: AUG-CC-PVTZ-JKFIT
	 Reference Energy          =    -321.6767549819268766 [Eh]
	 Singles Energy            =      -0.0000000000000000 [Eh]
	 Same-Spin Energy          =      -0.3358689418022442 [Eh]
	 Opposite-Spin Energy      =      -1.0280273762620200 [Eh]
	 Correlation Energy        =      -1.3638963180642643 [Eh]
	 Total Energy              =    -323.0406512999911683 [Eh]

	 ================> DF-SCS-MP2 Energies <==================
	-----------------------------------------------------------
	 SCS Same-Spin Scale       =       0.3333333333333333 [-]
	 SCS Opposite-Spin Scale   =       1.2000000000000000 [-]
	 SCS Same-Spin Energy      =      -0.1119563139340814 [Eh]
	 SCS Opposite-Spin Energy  =      -1.2336328515144239 [Eh]
	 SCS Correlation Energy    =      -1.3455891654485053 [Eh]
	 SCS Total Energy          =    -323.0223441473754065 [Eh]
	-----------------------------------------------------------

  Dipole Moment: [D]
     X:     4.0553      Y:    -1.3321      Z:    -0.1472     Total:     4.2710

*** Psi4 exiting successfully. Buy a developer a beer!
