                               Psi4 1.3.2 release

  ==> Input File <==

--------------------------------------------------------------------------
#psi4
#
memory 32 gb

molecule  {
0 1
  O       -2.3004000     0.0048630     0.0003410
  N       -0.3010450    -1.1173380    -0.0002690
  C        1.1207170     1.2010130     0.0000540
  C        1.8075300    -0.0461910     0.0000640
  C        1.0639000    -1.1911280     0.0001230
  C       -1.0661860     0.0622010    -0.0003390
  C       -0.2468550     1.2588270    -0.0001630
  H        1.6948263     2.1249472    -0.0499000
  H        2.8897160    -0.0994500     0.0003790
  H        1.4903610    -2.1891700     0.0001730
  H       -0.7789320     2.2044920     0.0000230
  H       -0.8600860    -1.9666840     0.0000480
units angstrom
no_reorient  #important for SAPT in psi4, default
symmetry c1  #important for SAPT in psi4, default
}

set PROPERTIES_ORIGIN ["COM"]
properties('MP2/aug-cc-pvtz', properties = ['dipole'])
--------------------------------------------------------------------------

    Molecular point group: c1
  Charge       = 0
  Multiplicity = 1
  Basis Set: AUG-CC-PVTZ
    Blend: AUG-CC-PVTZ
  Basis Set: (AUG-CC-PVTZ AUX)
    Blend: AUG-CC-PVTZ-JKFIT

    Orbital Energies [Eh]
    ---------------------

    Doubly Occupied:

       1A    -20.512016     2A    -15.628734     3A    -11.357054
       4A    -11.317095     5A    -11.276683     6A    -11.246054
       7A    -11.243113     8A     -1.372397     9A     -1.274616
      10A     -1.109120    11A     -1.032627    12A     -0.888956
      13A     -0.862775    14A     -0.756388    15A     -0.696170
      16A     -0.679143    17A     -0.639850    18A     -0.613105
      19A     -0.605740    20A     -0.560190    21A     -0.540252
      22A     -0.485817    23A     -0.427495    24A     -0.425631
      25A     -0.316497

  @DF-RHF Final Energy:  -321.68101673338168

   => Energetics <=

    Nuclear Repulsion Energy =            274.5294547791274340
    One-Electron Energy =                -980.6859054096976251
    Two-Electron Energy =                 384.4754338971884522
    Total Energy =                       -321.6810167333816821
  Basis Set: (AUG-CC-PVTZ AUX)
    Blend: AUG-CC-PVTZ-RI
    Molecular point group: c1

    Geometry (in Angstrom), charge = 0, multiplicity = 1:

       Center              X                  Y                   Z               Mass
    ------------   -----------------  -----------------  -----------------  -----------------
         O           -2.254203429163     0.005673253161     0.000878759967    15.994914619570
         N           -0.254848429163    -1.116527746839     0.000268759967    14.003074004430
         C            1.166913570837     1.201823253161     0.000591759967    12.000000000000
         C            1.853726570837    -0.045380746839     0.000601759967    12.000000000000
         C            1.110096570837    -1.190317746839     0.000660759967    12.000000000000
         C           -1.019989429163     0.063011253161     0.000198759967    12.000000000000
         C           -0.200658429163     1.259637253161     0.000374759967    12.000000000000
         H            1.741022870837     2.125757453161    -0.049362240033     1.007825032230
         H            2.935912570837    -0.098639746839     0.000916759967     1.007825032230
         H            1.536557570837    -2.188359746839     0.000710759967     1.007825032230
         H           -0.732735429163     2.205302253161     0.000560759967     1.007825032230
         H           -0.813889429163    -1.965873746839     0.000585759967     1.007825032230

  Basis Set: AUG-CC-PVTZ
    Blend: AUG-CC-PVTZ
  Basis Set: (AUG-CC-PVTZ AUX)
    Blend: AUG-CC-PVTZ-JKFIT
	 Reference Energy          =    -321.6810167333816821 [Eh]
	 Singles Energy            =      -0.0000000000000000 [Eh]
	 Same-Spin Energy          =      -0.3356423886540995 [Eh]
	 Opposite-Spin Energy      =      -1.0274707987093519 [Eh]
	 Correlation Energy        =      -1.3631131873634512 [Eh]
	 Total Energy              =    -323.0441299207451493 [Eh]

	 ================> DF-SCS-MP2 Energies <==================
	-----------------------------------------------------------
	 SCS Same-Spin Scale       =       0.3333333333333333 [-]
	 SCS Opposite-Spin Scale   =       1.2000000000000000 [-]
	 SCS Same-Spin Energy      =      -0.1118807962180332 [Eh]
	 SCS Opposite-Spin Energy  =      -1.2329649584512221 [Eh]
	 SCS Correlation Energy    =      -1.3448457546692554 [Eh]
	 SCS Total Energy          =    -323.0258624880509615 [Eh]
	-----------------------------------------------------------

  Dipole Moment: [D]
     X:     4.0865      Y:    -1.3010      Z:    -0.0300     Total:     4.2887

*** Psi4 exiting successfully. Buy a developer a beer!
