                               Psi4 1.4a3.dev225

  ==> Input File <==

--------------------------------------------------------------------------
#psi4
#
memory 32 gb

molecule  {
0 1
  N        2.7287650     0.3187530    -0.1253010
  C        0.3130830    -0.2174900     0.4662370
  C       -0.2538890     1.1369990    -0.0074850
  C       -0.8202154    -1.2278630     0.2464602
  C       -1.7711660     0.9754980     0.0985330
  C       -1.9852080    -0.4520530    -0.4054450
  C        1.6033210    -0.6099780    -0.2562360
  H        0.5371130    -0.1501040     1.5403310
  H        0.0159810     1.3028420    -1.0605530
  H        0.1335060     1.9859410     0.5654260
  H       -1.1585790    -1.6624630     1.2012770
  H       -0.5107060    -2.0839980    -0.3779040
  H       -2.3285430     1.7277130    -0.4695390
  H       -2.0833270     1.0524550     1.1475980
  H       -2.9716640    -0.8601180    -0.1627990
  H       -1.8853360    -0.4679020    -1.4974950
  H        1.3880180    -0.7214600    -1.3270790
  H        1.9406490    -1.5916360     0.0977200
  H        2.9408020     0.4513780     0.8633710
  H        2.4538300     1.2344270    -0.4784390
units angstrom
no_reorient  #important for SAPT in psi4, default
symmetry c1  #important for SAPT in psi4, default
}

set PROPERTIES_ORIGIN ["COM"]
properties('MP2/aug-cc-pvtz', properties = ['dipole'])
--------------------------------------------------------------------------

    Molecular point group: c1
  Charge       = 0
  Multiplicity = 1
  Basis Set: AUG-CC-PVTZ
    Blend: AUG-CC-PVTZ
  Basis Set: (AUG-CC-PVTZ AUX)
    Blend: AUG-CC-PVTZ-JKFIT

    Orbital Energies [Eh]
    ---------------------

    Doubly Occupied:

       1A    -15.537066     2A    -11.242545     3A    -11.219252
       4A    -11.217160     5A    -11.216788     6A    -11.216395
       7A    -11.215999     8A     -1.177692     9A     -1.118966
      10A     -0.984224    11A     -0.960006    12A     -0.865147
      13A     -0.782818    14A     -0.755187    15A     -0.669034
      16A     -0.648366    17A     -0.641713    18A     -0.580924
      19A     -0.570972    20A     -0.558481    21A     -0.518731
      22A     -0.491926    23A     -0.477955    24A     -0.467818
      25A     -0.463100    26A     -0.457249    27A     -0.443545
      28A     -0.382514

  @DF-RHF Final Energy:  -289.32224461452716

   => Energetics <=

    Nuclear Repulsion Energy =            325.1878027850825106
    One-Electron Energy =               -1035.2569491066028604
    Two-Electron Energy =                 420.7469017069931283
    Total Energy =                       -289.3222446145271647
  Basis Set: (AUG-CC-PVTZ AUX)
    Blend: AUG-CC-PVTZ-RI
    Molecular point group: c1

    Geometry (in Angstrom), charge = 0, multiplicity = 1:

       Center              X                  Y                   Z               Mass
    ------------   -----------------  -----------------  -----------------  -----------------
         N            2.711591353586     0.319321575219    -0.125224456890    14.003074004430
         C            0.295909353586    -0.216921424781     0.466313543110    12.000000000000
         C           -0.271062646414     1.137567575219    -0.007408456890    12.000000000000
         C           -0.837389046414    -1.227294424781     0.246536743110    12.000000000000
         C           -1.788339646414     0.976066575219     0.098609543110    12.000000000000
         C           -2.002381646414    -0.451484424781    -0.405368456890    12.000000000000
         C            1.586147353586    -0.609409424781    -0.256159456890    12.000000000000
         H            0.519939353586    -0.149535424781     1.540407543110     1.007825032230
         H           -0.001192646414     1.303410575219    -1.060476456890     1.007825032230
         H            0.116332353586     1.986509575219     0.565502543110     1.007825032230
         H           -1.175752646414    -1.661894424781     1.201353543110     1.007825032230
         H           -0.527879646414    -2.083429424781    -0.377827456890     1.007825032230
         H           -2.345716646414     1.728281575219    -0.469462456890     1.007825032230
         H           -2.100500646414     1.053023575219     1.147674543110     1.007825032230
         H           -2.988837646414    -0.859549424781    -0.162722456890     1.007825032230
         H           -1.902509646414    -0.467333424781    -1.497418456890     1.007825032230
         H            1.370844353586    -0.720891424781    -1.327002456890     1.007825032230
         H            1.923475353586    -1.591067424781     0.097796543110     1.007825032230
         H            2.923628353586     0.451946575219     0.863447543110     1.007825032230
         H            2.436656353586     1.234995575219    -0.478362456890     1.007825032230

  Basis Set: AUG-CC-PVTZ
    Blend: AUG-CC-PVTZ
  Basis Set: (AUG-CC-PVTZ AUX)
    Blend: AUG-CC-PVTZ-JKFIT
	 Reference Energy          =    -289.3222446145271647 [Eh]
	 Singles Energy            =      -0.0000000000000000 [Eh]
	 Same-Spin Energy          =      -0.3127090468074271 [Eh]
	 Opposite-Spin Energy      =      -1.0974259123400347 [Eh]
	 Correlation Energy        =      -1.4101349591474619 [Eh]
	 Total Energy              =    -290.7323795736746206 [Eh]

	 ================> DF-SCS-MP2 Energies <==================
	-----------------------------------------------------------
	 SCS Same-Spin Scale       =       0.3333333333333333 [-]
	 SCS Opposite-Spin Scale   =       1.2000000000000000 [-]
	 SCS Same-Spin Energy      =      -0.1042363489358090 [Eh]
	 SCS Opposite-Spin Energy  =      -1.3169110948080416 [Eh]
	 SCS Correlation Energy    =      -1.4211474437438507 [Eh]
	 SCS Total Energy          =    -290.7433920582710130 [Eh]
	-----------------------------------------------------------

  Dipole Moment: [D]
     X:    -1.3071      Y:     0.4729      Z:     0.7691     Total:     1.5886

*** Psi4 exiting successfully. Buy a developer a beer!
