                               Psi4 1.4a3.dev225

  ==> Input File <==

--------------------------------------------------------------------------
#psi4
#
memory 32 gb

molecule  {
0 1
  N        2.7287650     0.3187530    -0.1253010
  C        0.3130830    -0.2174900     0.4662370
  C       -0.2538890     1.1369990    -0.0074850
  C       -0.8349900    -1.2410350     0.2435950
  C       -1.7711660     0.9754980     0.0985330
  C       -1.9852080    -0.4520530    -0.4054450
  C        1.6033210    -0.6099780    -0.2562360
  H        0.5371130    -0.1501040     1.5403310
  H        0.0159810     1.3028420    -1.0605530
  H        0.1335060     1.9859410     0.5654260
  H       -1.1585790    -1.6624630     1.2012770
  H       -0.5107060    -2.0839980    -0.3779040
  H       -2.3285430     1.7277130    -0.4695390
  H       -2.0548770     1.0454412     1.0519873
  H       -2.9716640    -0.8601180    -0.1627990
  H       -1.8853360    -0.4679020    -1.4974950
  H        1.3880180    -0.7214600    -1.3270790
  H        1.9406490    -1.5916360     0.0977200
  H        2.9408020     0.4513780     0.8633710
  H        2.4538300     1.2344270    -0.4784390
units angstrom
no_reorient  #important for SAPT in psi4, default
symmetry c1  #important for SAPT in psi4, default
}

set PROPERTIES_ORIGIN ["COM"]
properties('MP2/aug-cc-pvtz', properties = ['dipole'])
--------------------------------------------------------------------------

    Molecular point group: c1
  Charge       = 0
  Multiplicity = 1
  Basis Set: AUG-CC-PVTZ
    Blend: AUG-CC-PVTZ
  Basis Set: (AUG-CC-PVTZ AUX)
    Blend: AUG-CC-PVTZ-JKFIT

    Orbital Energies [Eh]
    ---------------------

    Doubly Occupied:

       1A    -15.536770     2A    -11.242153     3A    -11.219725
       4A    -11.215847     5A    -11.215724     6A    -11.215000
       7A    -11.203723     8A     -1.177123     9A     -1.119068
      10A     -0.985516    11A     -0.961478    12A     -0.865975
      13A     -0.791868    14A     -0.755454    15A     -0.668078
      16A     -0.650389    17A     -0.640886    18A     -0.586700
      19A     -0.572223    20A     -0.559174    21A     -0.517824
      22A     -0.491871    23A     -0.477396    24A     -0.472876
      25A     -0.465656    26A     -0.454514    27A     -0.444373
      28A     -0.381883

  @DF-RHF Final Energy:  -289.31688756102051

   => Energetics <=

    Nuclear Repulsion Energy =            325.4275526061177857
    One-Electron Energy =               -1035.7103496410650223
    Two-Electron Energy =                 420.9659094739266720
    Total Energy =                       -289.3168875610205077
  Basis Set: (AUG-CC-PVTZ AUX)
    Blend: AUG-CC-PVTZ-RI
    Molecular point group: c1

    Geometry (in Angstrom), charge = 0, multiplicity = 1:

       Center              X                  Y                   Z               Mass
    ------------   -----------------  -----------------  -----------------  -----------------
         N            2.713091004246     0.320987818268    -0.123905234636    14.003074004430
         C            0.297409004246    -0.215255181732     0.467632765364    12.000000000000
         C           -0.269562995754     1.139233818268    -0.006089234636    12.000000000000
         C           -0.850663995754    -1.238800181732     0.244990765364    12.000000000000
         C           -1.786839995754     0.977732818268     0.099928765364    12.000000000000
         C           -2.000881995754    -0.449818181732    -0.404049234636    12.000000000000
         C            1.587647004246    -0.607743181732    -0.254840234636    12.000000000000
         H            0.521439004246    -0.147869181732     1.541726765364     1.007825032230
         H            0.000307004246     1.305076818268    -1.059157234636     1.007825032230
         H            0.117832004246     1.988175818268     0.566821765364     1.007825032230
         H           -1.174252995754    -1.660228181732     1.202672765364     1.007825032230
         H           -0.526379995754    -2.081763181732    -0.376508234636     1.007825032230
         H           -2.344216995754     1.729947818268    -0.468143234636     1.007825032230
         H           -2.070550995754     1.047676018268     1.053383065364     1.007825032230
         H           -2.987337995754    -0.857883181732    -0.161403234636     1.007825032230
         H           -1.901009995754    -0.465667181732    -1.496099234636     1.007825032230
         H            1.372344004246    -0.719225181732    -1.325683234636     1.007825032230
         H            1.924975004246    -1.589401181732     0.099115765364     1.007825032230
         H            2.925128004246     0.453612818268     0.864766765364     1.007825032230
         H            2.438156004246     1.236661818268    -0.477043234636     1.007825032230

  Basis Set: AUG-CC-PVTZ
    Blend: AUG-CC-PVTZ
  Basis Set: (AUG-CC-PVTZ AUX)
    Blend: AUG-CC-PVTZ-JKFIT
	 Reference Energy          =    -289.3168875610205077 [Eh]
	 Singles Energy            =      -0.0000000000000000 [Eh]
	 Same-Spin Energy          =      -0.3126230655452749 [Eh]
	 Opposite-Spin Energy      =      -1.0968329359187448 [Eh]
	 Correlation Energy        =      -1.4094560014640196 [Eh]
	 Total Energy              =    -290.7263435624845442 [Eh]

	 ================> DF-SCS-MP2 Energies <==================
	-----------------------------------------------------------
	 SCS Same-Spin Scale       =       0.3333333333333333 [-]
	 SCS Opposite-Spin Scale   =       1.2000000000000000 [-]
	 SCS Same-Spin Energy      =      -0.1042076885150916 [Eh]
	 SCS Opposite-Spin Energy  =      -1.3161995231024937 [Eh]
	 SCS Correlation Energy    =      -1.4204072116175852 [Eh]
	 SCS Total Energy          =    -290.7372947726381085 [Eh]
	-----------------------------------------------------------

  Dipole Moment: [D]
     X:    -1.3355      Y:     0.4850      Z:     0.8264     Total:     1.6437

*** Psi4 exiting successfully. Buy a developer a beer!
