                               Psi4 1.4a3.dev225

  ==> Input File <==

--------------------------------------------------------------------------
#psi4
#
memory 32 gb

molecule  {
0 1
  N        2.7287650     0.3187530    -0.1253010
  C        0.3130830    -0.2174900     0.4662370
  C       -0.2538890     1.1369990    -0.0074850
  C       -0.8349900    -1.2410350     0.2435950
  C       -1.7711660     0.9754980     0.0985330
  C       -1.9852080    -0.4520530    -0.4054450
  C        1.6033210    -0.6099780    -0.2562360
  H        0.5371130    -0.1501040     1.5403310
  H        0.0159810     1.3028420    -1.0605530
  H        0.1335060     1.9859410     0.5654260
  H       -1.1585790    -1.6624630     1.2012770
  H       -0.5107060    -2.0839980    -0.3779040
  H       -2.3285430     1.7277130    -0.4695390
  H       -2.0833270     1.0524550     1.1475980
  H       -2.9716640    -0.8601180    -0.1627990
  H       -1.8871573    -0.4676130    -1.4775802
  H        1.3880180    -0.7214600    -1.3270790
  H        1.9406490    -1.5916360     0.0977200
  H        2.9408020     0.4513780     0.8633710
  H        2.4538300     1.2344270    -0.4784390
units angstrom
no_reorient  #important for SAPT in psi4, default
symmetry c1  #important for SAPT in psi4, default
}

set PROPERTIES_ORIGIN ["COM"]
properties('MP2/aug-cc-pvtz', properties = ['dipole'])
--------------------------------------------------------------------------

    Molecular point group: c1
  Charge       = 0
  Multiplicity = 1
  Basis Set: AUG-CC-PVTZ
    Blend: AUG-CC-PVTZ
  Basis Set: (AUG-CC-PVTZ AUX)
    Blend: AUG-CC-PVTZ-JKFIT

    Orbital Energies [Eh]
    ---------------------

    Doubly Occupied:

       1A    -15.536975     2A    -11.242361     3A    -11.219904
       4A    -11.216992     5A    -11.216321     6A    -11.215649
       7A    -11.213535     8A     -1.177296     9A     -1.117916
      10A     -0.983055    11A     -0.961433    12A     -0.864902
      13A     -0.783968    14A     -0.755954    15A     -0.668358
      16A     -0.648169    17A     -0.641816    18A     -0.580931
      19A     -0.573337    20A     -0.558355    21A     -0.518145
      22A     -0.491291    23A     -0.478009    24A     -0.468794
      25A     -0.464677    26A     -0.454950    27A     -0.445107
      28A     -0.382089

  @DF-RHF Final Energy:  -289.32280788631141

   => Energetics <=

    Nuclear Repulsion Energy =            325.0264315838945208
    One-Electron Energy =               -1034.9379003346750778
    Two-Electron Energy =                 420.5886608644692046
    Total Energy =                       -289.3228078863114092
  Basis Set: (AUG-CC-PVTZ AUX)
    Blend: AUG-CC-PVTZ-RI
    Molecular point group: c1

    Geometry (in Angstrom), charge = 0, multiplicity = 1:

       Center              X                  Y                   Z               Mass
    ------------   -----------------  -----------------  -----------------  -----------------
         N            2.713398841748     0.320913554008    -0.125080046466    14.003074004430
         C            0.297716841748    -0.215329445992     0.466457953534    12.000000000000
         C           -0.269255158252     1.139159554008    -0.007264046466    12.000000000000
         C           -0.850356158252    -1.238874445992     0.243815953534    12.000000000000
         C           -1.786532158252     0.977658554008     0.098753953534    12.000000000000
         C           -2.000574158252    -0.449892445992    -0.405224046466    12.000000000000
         C            1.587954841748    -0.607817445992    -0.256015046466    12.000000000000
         H            0.521746841748    -0.147943445992     1.540551953534     1.007825032230
         H            0.000614841748     1.305002554008    -1.060332046466     1.007825032230
         H            0.118139841748     1.988101554008     0.565646953534     1.007825032230
         H           -1.173945158252    -1.660302445992     1.201497953534     1.007825032230
         H           -0.526072158252    -2.081837445992    -0.377683046466     1.007825032230
         H           -2.343909158252     1.729873554008    -0.469318046466     1.007825032230
         H           -2.098693158252     1.054615554008     1.147818953534     1.007825032230
         H           -2.987030158252    -0.857957445992    -0.162578046466     1.007825032230
         H           -1.902523458252    -0.465452445992    -1.477359246466     1.007825032230
         H            1.372651841748    -0.719299445992    -1.326858046466     1.007825032230
         H            1.925282841748    -1.589475445992     0.097940953534     1.007825032230
         H            2.925435841748     0.453538554008     0.863591953534     1.007825032230
         H            2.438463841748     1.236587554008    -0.478218046466     1.007825032230

  Basis Set: AUG-CC-PVTZ
    Blend: AUG-CC-PVTZ
  Basis Set: (AUG-CC-PVTZ AUX)
    Blend: AUG-CC-PVTZ-JKFIT
	 Reference Energy          =    -289.3228078863114092 [Eh]
	 Singles Energy            =      -0.0000000000000000 [Eh]
	 Same-Spin Energy          =      -0.3126018112439369 [Eh]
	 Opposite-Spin Energy      =      -1.0971968021707446 [Eh]
	 Correlation Energy        =      -1.4097986134146814 [Eh]
	 Total Energy              =    -290.7326064997261028 [Eh]

	 ================> DF-SCS-MP2 Energies <==================
	-----------------------------------------------------------
	 SCS Same-Spin Scale       =       0.3333333333333333 [-]
	 SCS Opposite-Spin Scale   =       1.2000000000000000 [-]
	 SCS Same-Spin Energy      =      -0.1042006037479790 [Eh]
	 SCS Opposite-Spin Energy  =      -1.3166361626048935 [Eh]
	 SCS Correlation Energy    =      -1.4208367663528725 [Eh]
	 SCS Total Energy          =    -290.7436446526642726 [Eh]
	-----------------------------------------------------------

  Dipole Moment: [D]
     X:    -1.3087      Y:     0.4683      Z:     0.7554     Total:     1.5819

*** Psi4 exiting successfully. Buy a developer a beer!
