                               Psi4 1.4a3.dev225

  ==> Input File <==

--------------------------------------------------------------------------
#psi4
#
memory 32 gb

molecule  {
0 1
  N        2.7287650     0.3187530    -0.1253010
  C        0.3130830    -0.2174900     0.4662370
  C       -0.2538890     1.1369990    -0.0074850
  C       -0.8712548    -1.2739062     0.2656827
  C       -1.7711660     0.9754980     0.0985330
  C       -1.9852080    -0.4520530    -0.4054450
  C        1.6033210    -0.6099780    -0.2562360
  H        0.5371130    -0.1501040     1.5403310
  H        0.0159810     1.3028420    -1.0605530
  H        0.1335060     1.9859410     0.5654260
  H       -1.1585790    -1.6624630     1.2012770
  H       -0.5107060    -2.0839980    -0.3779040
  H       -2.3285430     1.7277130    -0.4695390
  H       -2.0833270     1.0524550     1.1475980
  H       -2.9716640    -0.8601180    -0.1627990
  H       -1.8853360    -0.4679020    -1.4974950
  H        1.3880180    -0.7214600    -1.3270790
  H        1.9406490    -1.5916360     0.0977200
  H        2.9408020     0.4513780     0.8633710
  H        2.4538300     1.2344270    -0.4784390
units angstrom
no_reorient  #important for SAPT in psi4, default
symmetry c1  #important for SAPT in psi4, default
}

set PROPERTIES_ORIGIN ["COM"]
properties('MP2/aug-cc-pvtz', properties = ['dipole'])
--------------------------------------------------------------------------

    Molecular point group: c1
  Charge       = 0
  Multiplicity = 1
  Basis Set: AUG-CC-PVTZ
    Blend: AUG-CC-PVTZ
  Basis Set: (AUG-CC-PVTZ AUX)
    Blend: AUG-CC-PVTZ-JKFIT

    Orbital Energies [Eh]
    ---------------------

    Doubly Occupied:

       1A    -15.536980     2A    -11.242177     3A    -11.221440
       4A    -11.217116     5A    -11.216540     6A    -11.216182
       7A    -11.214403     8A     -1.176559     9A     -1.114296
      10A     -0.979637    11A     -0.962756    12A     -0.864753
      13A     -0.782733    14A     -0.756859    15A     -0.667277
      16A     -0.648194    17A     -0.639287    18A     -0.582270
      19A     -0.575829    20A     -0.557751    21A     -0.517308
      22A     -0.491935    23A     -0.478710    24A     -0.470049
      25A     -0.464381    26A     -0.448288    27A     -0.445655
      28A     -0.381437

  @DF-RHF Final Energy:  -289.32041861569752

   => Energetics <=

    Nuclear Repulsion Energy =            324.2162154981464823
    One-Electron Energy =               -1033.3316651719887886
    Two-Electron Energy =                 419.7950310581447297
    Total Energy =                       -289.3204186156975197
  Basis Set: (AUG-CC-PVTZ AUX)
    Blend: AUG-CC-PVTZ-RI
    Molecular point group: c1

    Geometry (in Angstrom), charge = 0, multiplicity = 1:

       Center              X                  Y                   Z               Mass
    ------------   -----------------  -----------------  -----------------  -----------------
         N            2.717771405446     0.324896667477    -0.127551993006    14.003074004430
         C            0.302089405446    -0.211346332523     0.463986006994    12.000000000000
         C           -0.264882594554     1.143142667477    -0.009735993006    12.000000000000
         C           -0.882248394554    -1.267762532523     0.263431706994    12.000000000000
         C           -1.782159594554     0.981641667477     0.096282006994    12.000000000000
         C           -1.996201594554    -0.445909332523    -0.407695993006    12.000000000000
         C            1.592327405446    -0.603834332523    -0.258486993006    12.000000000000
         H            0.526119405446    -0.143960332523     1.538080006994     1.007825032230
         H            0.004987405446     1.308985667477    -1.062803993006     1.007825032230
         H            0.122512405446     1.992084667477     0.563175006994     1.007825032230
         H           -1.169572594554    -1.656319332523     1.199026006994     1.007825032230
         H           -0.521699594554    -2.077854332523    -0.380154993006     1.007825032230
         H           -2.339536594554     1.733856667477    -0.471789993006     1.007825032230
         H           -2.094320594554     1.058598667477     1.145347006994     1.007825032230
         H           -2.982657594554    -0.853974332523    -0.165049993006     1.007825032230
         H           -1.896329594554    -0.461758332523    -1.499745993006     1.007825032230
         H            1.377024405446    -0.715316332523    -1.329329993006     1.007825032230
         H            1.929655405446    -1.585492332523     0.095469006994     1.007825032230
         H            2.929808405446     0.457521667477     0.861120006994     1.007825032230
         H            2.442836405446     1.240570667477    -0.480689993006     1.007825032230

  Basis Set: AUG-CC-PVTZ
    Blend: AUG-CC-PVTZ
  Basis Set: (AUG-CC-PVTZ AUX)
    Blend: AUG-CC-PVTZ-JKFIT
	 Reference Energy          =    -289.3204186156975197 [Eh]
	 Singles Energy            =      -0.0000000000000000 [Eh]
	 Same-Spin Energy          =      -0.3124364437509294 [Eh]
	 Opposite-Spin Energy      =      -1.0972535177898408 [Eh]
	 Correlation Energy        =      -1.4096899615407703 [Eh]
	 Total Energy              =    -290.7301085772382976 [Eh]

	 ================> DF-SCS-MP2 Energies <==================
	-----------------------------------------------------------
	 SCS Same-Spin Scale       =       0.3333333333333333 [-]
	 SCS Opposite-Spin Scale   =       1.2000000000000000 [-]
	 SCS Same-Spin Energy      =      -0.1041454812503098 [Eh]
	 SCS Opposite-Spin Energy  =      -1.3167042213478088 [Eh]
	 SCS Correlation Energy    =      -1.4208497025981186 [Eh]
	 SCS Total Energy          =    -290.7412683182956243 [Eh]
	-----------------------------------------------------------

  Dipole Moment: [D]
     X:    -1.3067      Y:     0.4662      Z:     0.7831     Total:     1.5931

*** Psi4 exiting successfully. Buy a developer a beer!
