                               Psi4 1.4a3.dev225

  ==> Input File <==

--------------------------------------------------------------------------
#psi4
#
memory 32 gb

molecule  {
0 1
  N        2.7287650     0.3187530    -0.1253010
  C        0.3130830    -0.2174900     0.4662370
  C       -0.2538890     1.1369990    -0.0074850
  C       -0.8349900    -1.2410350     0.2435950
  C       -1.7711660     0.9754980     0.0985330
  C       -1.9852080    -0.4520530    -0.4054450
  C        1.4346562    -0.5586705    -0.1617916
  H        0.5371130    -0.1501040     1.5403310
  H        0.0159810     1.3028420    -1.0605530
  H        0.1335060     1.9859410     0.5654260
  H       -1.1585790    -1.6624630     1.2012770
  H       -0.5107060    -2.0839980    -0.3779040
  H       -2.3285430     1.7277130    -0.4695390
  H       -2.0833270     1.0524550     1.1475980
  H       -2.9716640    -0.8601180    -0.1627990
  H       -1.8853360    -0.4679020    -1.4974950
  H        1.3880180    -0.7214600    -1.3270790
  H        1.9406490    -1.5916360     0.0977200
  H        2.9408020     0.4513780     0.8633710
  H        2.4538300     1.2344270    -0.4784390
units angstrom
no_reorient  #important for SAPT in psi4, default
symmetry c1  #important for SAPT in psi4, default
}

set PROPERTIES_ORIGIN ["COM"]
properties('MP2/aug-cc-pvtz', properties = ['dipole'])
--------------------------------------------------------------------------

    Molecular point group: c1
  Charge       = 0
  Multiplicity = 1
  Basis Set: AUG-CC-PVTZ
    Blend: AUG-CC-PVTZ
  Basis Set: (AUG-CC-PVTZ AUX)
    Blend: AUG-CC-PVTZ-JKFIT

    Orbital Energies [Eh]
    ---------------------

    Doubly Occupied:

       1A    -15.539317     2A    -11.250328     3A    -11.221325
       4A    -11.220728     5A    -11.219553     6A    -11.218917
       7A    -11.214298     8A     -1.174300     9A     -1.119118
      10A     -1.015977    11A     -0.966207    12A     -0.861145
      13A     -0.787592    14A     -0.759142    15A     -0.669103
      16A     -0.651839    17A     -0.641836    18A     -0.591170
      19A     -0.576776    20A     -0.543185    21A     -0.523443
      22A     -0.486916    23A     -0.478339    24A     -0.472830
      25A     -0.466992    26A     -0.443234    27A     -0.421310
      28A     -0.403386

  @DF-RHF Final Energy:  -289.27298744338043

   => Energetics <=

    Nuclear Repulsion Energy =            327.3613233755215219
    One-Electron Energy =               -1039.3920073521794620
    Two-Electron Energy =                 422.7576965332774535
    Total Energy =                       -289.2729874433804298
  Basis Set: (AUG-CC-PVTZ AUX)
    Blend: AUG-CC-PVTZ-RI
    Molecular point group: c1

    Geometry (in Angstrom), charge = 0, multiplicity = 1:

       Center              X                  Y                   Z               Mass
    ------------   -----------------  -----------------  -----------------  -----------------
         N            2.733802919653     0.314703978466    -0.136313227629    14.003074004430
         C            0.318120919653    -0.221539021534     0.455224772371    12.000000000000
         C           -0.248851080347     1.132949978466    -0.018497227629    12.000000000000
         C           -0.829952080347    -1.245084021534     0.232582772371    12.000000000000
         C           -1.766128080347     0.971448978466     0.087520772371    12.000000000000
         C           -1.980170080347    -0.456102021534    -0.416457227629    12.000000000000
         C            1.439694119653    -0.562719521534    -0.172803827629    12.000000000000
         H            0.542150919653    -0.154153021534     1.529318772371     1.007825032230
         H            0.021018919653     1.298792978466    -1.071565227629     1.007825032230
         H            0.138543919653     1.981891978466     0.554413772371     1.007825032230
         H           -1.153541080347    -1.666512021534     1.190264772371     1.007825032230
         H           -0.505668080347    -2.088047021534    -0.388916227629     1.007825032230
         H           -2.323505080347     1.723663978466    -0.480551227629     1.007825032230
         H           -2.078289080347     1.048405978466     1.136585772371     1.007825032230
         H           -2.966626080347    -0.864167021534    -0.173811227629     1.007825032230
         H           -1.880298080347    -0.471951021534    -1.508507227629     1.007825032230
         H            1.393055919653    -0.725509021534    -1.338091227629     1.007825032230
         H            1.945686919653    -1.595685021534     0.086707772371     1.007825032230
         H            2.945839919653     0.447328978466     0.852358772371     1.007825032230
         H            2.458867919653     1.230377978466    -0.489451227629     1.007825032230

  Basis Set: AUG-CC-PVTZ
    Blend: AUG-CC-PVTZ
  Basis Set: (AUG-CC-PVTZ AUX)
    Blend: AUG-CC-PVTZ-JKFIT
	 Reference Energy          =    -289.2729874433804298 [Eh]
	 Singles Energy            =      -0.0000000000000000 [Eh]
	 Same-Spin Energy          =      -0.3157717733037666 [Eh]
	 Opposite-Spin Energy      =      -1.1027541056253591 [Eh]
	 Correlation Energy        =      -1.4185258789291257 [Eh]
	 Total Energy              =    -290.6915133223095609 [Eh]

	 ================> DF-SCS-MP2 Energies <==================
	-----------------------------------------------------------
	 SCS Same-Spin Scale       =       0.3333333333333333 [-]
	 SCS Opposite-Spin Scale   =       1.2000000000000000 [-]
	 SCS Same-Spin Energy      =      -0.1052572577679222 [Eh]
	 SCS Opposite-Spin Energy  =      -1.3233049267504309 [Eh]
	 SCS Correlation Energy    =      -1.4285621845183532 [Eh]
	 SCS Total Energy          =    -290.7015496278987712 [Eh]
	-----------------------------------------------------------

  Dipole Moment: [D]
     X:    -1.6919      Y:     0.5259      Z:     0.8765     Total:     1.9767

*** Psi4 exiting successfully. Buy a developer a beer!
