                               Psi4 1.4a3.dev225

  ==> Input File <==

--------------------------------------------------------------------------
#psi4
#
memory 32 gb

molecule  {
0 1
  N        2.7287650     0.3187530    -0.1253010
  C        0.3130830    -0.2174900     0.4662370
  C       -0.2538890     1.1369990    -0.0074850
  C       -0.8349900    -1.2410350     0.2435950
  C       -1.7711660     0.9754980     0.0985330
  C       -1.9852080    -0.4520530    -0.4054450
  C        1.6033210    -0.6099780    -0.2562360
  H        0.5371130    -0.1501040     1.5403310
  H        0.0159810     1.3028420    -1.0605530
  H        0.1264302     1.9704351     0.5549618
  H       -1.1585790    -1.6624630     1.2012770
  H       -0.5107060    -2.0839980    -0.3779040
  H       -2.3285430     1.7277130    -0.4695390
  H       -2.0833270     1.0524550     1.1475980
  H       -2.9716640    -0.8601180    -0.1627990
  H       -1.8853360    -0.4679020    -1.4974950
  H        1.3880180    -0.7214600    -1.3270790
  H        1.9406490    -1.5916360     0.0977200
  H        2.9408020     0.4513780     0.8633710
  H        2.4538300     1.2344270    -0.4784390
units angstrom
no_reorient  #important for SAPT in psi4, default
symmetry c1  #important for SAPT in psi4, default
}

set PROPERTIES_ORIGIN ["COM"]
properties('MP2/aug-cc-pvtz', properties = ['dipole'])
--------------------------------------------------------------------------

    Molecular point group: c1
  Charge       = 0
  Multiplicity = 1
  Basis Set: AUG-CC-PVTZ
    Blend: AUG-CC-PVTZ
  Basis Set: (AUG-CC-PVTZ AUX)
    Blend: AUG-CC-PVTZ-JKFIT

    Orbital Energies [Eh]
    ---------------------

    Doubly Occupied:

       1A    -15.537057     2A    -11.242320     3A    -11.219782
       4A    -11.216682     5A    -11.216037     6A    -11.215457
       7A    -11.214286     8A     -1.177349     9A     -1.117761
      10A     -0.982628    11A     -0.962062    12A     -0.865010
      13A     -0.782835    14A     -0.756240    15A     -0.669473
      16A     -0.648663    17A     -0.641383    18A     -0.580637
      19A     -0.572809    20A     -0.558405    21A     -0.518044
      22A     -0.491434    23A     -0.478678    24A     -0.468736
      25A     -0.464326    26A     -0.455074    27A     -0.444600
      28A     -0.382153

  @DF-RHF Final Energy:  -289.32283937878009

   => Energetics <=

    Nuclear Repulsion Energy =            325.0333216292365250
    One-Electron Energy =               -1034.9524758406505498
    Two-Electron Energy =                 420.5963148326339365
    Total Energy =                       -289.3228393787800883
  Basis Set: (AUG-CC-PVTZ AUX)
    Blend: AUG-CC-PVTZ-RI
    Molecular point group: c1

    Geometry (in Angstrom), charge = 0, multiplicity = 1:

       Center              X                  Y                   Z               Mass
    ------------   -----------------  -----------------  -----------------  -----------------
         N            2.713452276260     0.321074176860    -0.124771113732    14.003074004430
         C            0.297770276260    -0.215168823140     0.466766886268    12.000000000000
         C           -0.269201723740     1.139320176860    -0.006955113732    12.000000000000
         C           -0.850302723740    -1.238713823140     0.244124886268    12.000000000000
         C           -1.786478723740     0.977819176860     0.099062886268    12.000000000000
         C           -2.000520723740    -0.449731823140    -0.404915113732    12.000000000000
         C            1.588008276260    -0.607656823140    -0.255706113732    12.000000000000
         H            0.521800276260    -0.147782823140     1.540860886268     1.007825032230
         H            0.000668276260     1.305163176860    -1.060023113732     1.007825032230
         H            0.111117476260     1.972756276860     0.555491686268     1.007825032230
         H           -1.173891723740    -1.660141823140     1.201806886268     1.007825032230
         H           -0.526018723740    -2.081676823140    -0.377374113732     1.007825032230
         H           -2.343855723740     1.730034176860    -0.469009113732     1.007825032230
         H           -2.098639723740     1.054776176860     1.148127886268     1.007825032230
         H           -2.986976723740    -0.857796823140    -0.162269113732     1.007825032230
         H           -1.900648723740    -0.465580823140    -1.496965113732     1.007825032230
         H            1.372705276260    -0.719138823140    -1.326549113732     1.007825032230
         H            1.925336276260    -1.589314823140     0.098249886268     1.007825032230
         H            2.925489276260     0.453699176860     0.863900886268     1.007825032230
         H            2.438517276260     1.236748176860    -0.477909113732     1.007825032230

  Basis Set: AUG-CC-PVTZ
    Blend: AUG-CC-PVTZ
  Basis Set: (AUG-CC-PVTZ AUX)
    Blend: AUG-CC-PVTZ-JKFIT
	 Reference Energy          =    -289.3228393787800883 [Eh]
	 Singles Energy            =      -0.0000000000000000 [Eh]
	 Same-Spin Energy          =      -0.3125967562208489 [Eh]
	 Opposite-Spin Energy      =      -1.0971914340898439 [Eh]
	 Correlation Energy        =      -1.4097881903106928 [Eh]
	 Total Energy              =    -290.7326275690907664 [Eh]

	 ================> DF-SCS-MP2 Energies <==================
	-----------------------------------------------------------
	 SCS Same-Spin Scale       =       0.3333333333333333 [-]
	 SCS Opposite-Spin Scale   =       1.2000000000000000 [-]
	 SCS Same-Spin Energy      =      -0.1041989187402830 [Eh]
	 SCS Opposite-Spin Energy  =      -1.3166297209078126 [Eh]
	 SCS Correlation Energy    =      -1.4208286396480956 [Eh]
	 SCS Total Energy          =    -290.7436680184281954 [Eh]
	-----------------------------------------------------------

  Dipole Moment: [D]
     X:    -1.2994      Y:     0.4819      Z:     0.7728     Total:     1.5868

*** Psi4 exiting successfully. Buy a developer a beer!
