                               Psi4 1.4a3.dev225

  ==> Input File <==

--------------------------------------------------------------------------
#psi4
#
memory 32 gb

molecule  {
0 1
  N        2.7287650     0.3187530    -0.1253010
  C        0.3130830    -0.2174900     0.4662370
  C       -0.2538890     1.1369990    -0.0074850
  C       -0.8349900    -1.2410350     0.2435950
  C       -1.7711660     0.9754980     0.0985330
  C       -1.9852080    -0.4520530    -0.4054450
  C        1.6033210    -0.6099780    -0.2562360
  H        0.5371130    -0.1501040     1.5403310
  H        0.0159810     1.3028420    -1.0605530
  H        0.1335060     1.9859410     0.5654260
  H       -1.1820143    -1.5550525     1.2337633
  H       -0.5107060    -2.0839980    -0.3779040
  H       -2.3285430     1.7277130    -0.4695390
  H       -2.0833270     1.0524550     1.1475980
  H       -2.9716640    -0.8601180    -0.1627990
  H       -1.8853360    -0.4679020    -1.4974950
  H        1.3880180    -0.7214600    -1.3270790
  H        1.9406490    -1.5916360     0.0977200
  H        2.9408020     0.4513780     0.8633710
  H        2.4538300     1.2344270    -0.4784390
units angstrom
no_reorient  #important for SAPT in psi4, default
symmetry c1  #important for SAPT in psi4, default
}

set PROPERTIES_ORIGIN ["COM"]
properties('MP2/aug-cc-pvtz', properties = ['dipole'])
--------------------------------------------------------------------------

    Molecular point group: c1
  Charge       = 0
  Multiplicity = 1
  Basis Set: AUG-CC-PVTZ
    Blend: AUG-CC-PVTZ
  Basis Set: (AUG-CC-PVTZ AUX)
    Blend: AUG-CC-PVTZ-JKFIT

    Orbital Energies [Eh]
    ---------------------

    Doubly Occupied:

       1A    -15.536933     2A    -11.242294     3A    -11.219409
       4A    -11.217036     5A    -11.216465     6A    -11.216201
       7A    -11.215405     8A     -1.177292     9A     -1.118257
      10A     -0.982704    11A     -0.961221    12A     -0.864870
      13A     -0.782475    14A     -0.753948    15A     -0.668051
      16A     -0.648926    17A     -0.641671    18A     -0.581506
      19A     -0.574428    20A     -0.559254    21A     -0.518258
      22A     -0.493123    23A     -0.474351    24A     -0.468042
      25A     -0.465175    26A     -0.455290    27A     -0.443587
      28A     -0.381768

  @DF-RHF Final Energy:  -289.32141499760064

   => Energetics <=

    Nuclear Repulsion Energy =            325.0648227277048932
    One-Electron Energy =               -1035.0165947486441382
    Two-Electron Energy =                 420.6303570233385472
    Total Energy =                       -289.3214149976006411
  Basis Set: (AUG-CC-PVTZ AUX)
    Blend: AUG-CC-PVTZ-RI
    Molecular point group: c1

    Geometry (in Angstrom), charge = 0, multiplicity = 1:

       Center              X                  Y                   Z               Mass
    ------------   -----------------  -----------------  -----------------  -----------------
         N            2.713618640691     0.319824204856    -0.125207889643    14.003074004430
         C            0.297936640691    -0.216418795144     0.466330110357    12.000000000000
         C           -0.269035359309     1.138070204856    -0.007391889643    12.000000000000
         C           -0.850136359309    -1.239963795144     0.243688110357    12.000000000000
         C           -1.786312359309     0.976569204856     0.098626110357    12.000000000000
         C           -2.000354359309    -0.450981795144    -0.405351889643    12.000000000000
         C            1.588174640691    -0.608906795144    -0.256142889643    12.000000000000
         H            0.521966640691    -0.149032795144     1.540424110357     1.007825032230
         H            0.000834640691     1.303913204856    -1.060459889643     1.007825032230
         H            0.118359640691     1.987012204856     0.565519110357     1.007825032230
         H           -1.197160659309    -1.553981295144     1.233856410357     1.007825032230
         H           -0.525852359309    -2.082926795144    -0.377810889643     1.007825032230
         H           -2.343689359309     1.728784204856    -0.469445889643     1.007825032230
         H           -2.098473359309     1.053526204856     1.147691110357     1.007825032230
         H           -2.986810359309    -0.859046795144    -0.162705889643     1.007825032230
         H           -1.900482359309    -0.466830795144    -1.497401889643     1.007825032230
         H            1.372871640691    -0.720388795144    -1.326985889643     1.007825032230
         H            1.925502640691    -1.590564795144     0.097813110357     1.007825032230
         H            2.925655640691     0.452449204856     0.863464110357     1.007825032230
         H            2.438683640691     1.235498204856    -0.478345889643     1.007825032230

  Basis Set: AUG-CC-PVTZ
    Blend: AUG-CC-PVTZ
  Basis Set: (AUG-CC-PVTZ AUX)
    Blend: AUG-CC-PVTZ-JKFIT
	 Reference Energy          =    -289.3214149976006411 [Eh]
	 Singles Energy            =      -0.0000000000000000 [Eh]
	 Same-Spin Energy          =      -0.3127188317304106 [Eh]
	 Opposite-Spin Energy      =      -1.0975647253796836 [Eh]
	 Correlation Energy        =      -1.4102835571100942 [Eh]
	 Total Energy              =    -290.7316985547107606 [Eh]

	 ================> DF-SCS-MP2 Energies <==================
	-----------------------------------------------------------
	 SCS Same-Spin Scale       =       0.3333333333333333 [-]
	 SCS Opposite-Spin Scale   =       1.2000000000000000 [-]
	 SCS Same-Spin Energy      =      -0.1042396105768035 [Eh]
	 SCS Opposite-Spin Energy  =      -1.3170776704556204 [Eh]
	 SCS Correlation Energy    =      -1.4213172810324239 [Eh]
	 SCS Total Energy          =    -290.7427322786330706 [Eh]
	-----------------------------------------------------------

  Dipole Moment: [D]
     X:    -1.3084      Y:     0.4919      Z:     0.7644     Total:     1.5932

*** Psi4 exiting successfully. Buy a developer a beer!
