                               Psi4 1.4a3.dev225

  ==> Input File <==

--------------------------------------------------------------------------
#psi4
#
memory 32 gb

molecule  {
0 1
  N        2.7287650     0.3187530    -0.1253010
  C        0.3130830    -0.2174900     0.4662370
  C       -0.2823561     1.2630259    -0.1020280
  C       -0.8349900    -1.2410350     0.2435950
  C       -1.7711660     0.9754980     0.0985330
  C       -1.9852080    -0.4520530    -0.4054450
  C        1.6033210    -0.6099780    -0.2562360
  H        0.5371130    -0.1501040     1.5403310
  H        0.0159810     1.3028420    -1.0605530
  H        0.1335060     1.9859410     0.5654260
  H       -1.1585790    -1.6624630     1.2012770
  H       -0.5107060    -2.0839980    -0.3779040
  H       -2.3285430     1.7277130    -0.4695390
  H       -2.0833270     1.0524550     1.1475980
  H       -2.9716640    -0.8601180    -0.1627990
  H       -1.8853360    -0.4679020    -1.4974950
  H        1.3880180    -0.7214600    -1.3270790
  H        1.9406490    -1.5916360     0.0977200
  H        2.9408020     0.4513780     0.8633710
  H        2.4538300     1.2344270    -0.4784390
units angstrom
no_reorient  #important for SAPT in psi4, default
symmetry c1  #important for SAPT in psi4, default
}

set PROPERTIES_ORIGIN ["COM"]
properties('MP2/aug-cc-pvtz', properties = ['dipole'])
--------------------------------------------------------------------------

    Molecular point group: c1
  Charge       = 0
  Multiplicity = 1
  Basis Set: AUG-CC-PVTZ
    Blend: AUG-CC-PVTZ
  Basis Set: (AUG-CC-PVTZ AUX)
    Blend: AUG-CC-PVTZ-JKFIT

    Orbital Energies [Eh]
    ---------------------

    Doubly Occupied:

       1A    -15.536396     2A    -11.241310     3A    -11.224948
       4A    -11.218054     5A    -11.216904     6A    -11.215488
       7A    -11.213998     8A     -1.174723     9A     -1.108367
      10A     -0.979566    11A     -0.961546    12A     -0.862509
      13A     -0.788974    14A     -0.754604    15A     -0.666564
      16A     -0.649181    17A     -0.633164    18A     -0.591878
      19A     -0.579736    20A     -0.555129    21A     -0.514717
      22A     -0.499897    23A     -0.483180    24A     -0.477091
      25A     -0.468978    26A     -0.452485    27A     -0.408405
      28A     -0.380200

  @DF-RHF Final Energy:  -289.30229958660652

   => Energetics <=

    Nuclear Repulsion Energy =            322.9658844511674829
    One-Electron Energy =               -1030.8203802452762829
    Two-Electron Energy =                 418.5521962075022202
    Total Energy =                       -289.3022995866065230
  Basis Set: (AUG-CC-PVTZ AUX)
    Blend: AUG-CC-PVTZ-RI
    Molecular point group: c1

    Geometry (in Angstrom), charge = 0, multiplicity = 1:

       Center              X                  Y                   Z               Mass
    ------------   -----------------  -----------------  -----------------  -----------------
         N            2.716827229174     0.305656658808    -0.113429887839    14.003074004430
         C            0.301145229174    -0.230586341192     0.478108112161    12.000000000000
         C           -0.294293870826     1.249929558808    -0.090156887839    12.000000000000
         C           -0.846927770826    -1.254131341192     0.255466112161    12.000000000000
         C           -1.783103770826     0.962401658808     0.110404112161    12.000000000000
         C           -1.997145770826    -0.465149341192    -0.393573887839    12.000000000000
         C            1.591383229174    -0.623074341192    -0.244364887839    12.000000000000
         H            0.525175229174    -0.163200341192     1.552202112161     1.007825032230
         H            0.004043229174     1.289745658808    -1.048681887839     1.007825032230
         H            0.121568229174     1.972844658808     0.577297112161     1.007825032230
         H           -1.170516770826    -1.675559341192     1.213148112161     1.007825032230
         H           -0.522643770826    -2.097094341192    -0.366032887839     1.007825032230
         H           -2.340480770826     1.714616658808    -0.457667887839     1.007825032230
         H           -2.095264770826     1.039358658808     1.159469112161     1.007825032230
         H           -2.983601770826    -0.873214341192    -0.150927887839     1.007825032230
         H           -1.897273770826    -0.480998341192    -1.485623887839     1.007825032230
         H            1.376080229174    -0.734556341192    -1.315207887839     1.007825032230
         H            1.928711229174    -1.604732341192     0.109591112161     1.007825032230
         H            2.928864229174     0.438281658808     0.875242112161     1.007825032230
         H            2.441892229174     1.221330658808    -0.466567887839     1.007825032230

  Basis Set: AUG-CC-PVTZ
    Blend: AUG-CC-PVTZ
  Basis Set: (AUG-CC-PVTZ AUX)
    Blend: AUG-CC-PVTZ-JKFIT
	 Reference Energy          =    -289.3022995866065230 [Eh]
	 Singles Energy            =      -0.0000000000000000 [Eh]
	 Same-Spin Energy          =      -0.3125767197692369 [Eh]
	 Opposite-Spin Energy      =      -1.0983332144929630 [Eh]
	 Correlation Energy        =      -1.4109099342621998 [Eh]
	 Total Energy              =    -290.7132095208687019 [Eh]

	 ================> DF-SCS-MP2 Energies <==================
	-----------------------------------------------------------
	 SCS Same-Spin Scale       =       0.3333333333333333 [-]
	 SCS Opposite-Spin Scale   =       1.2000000000000000 [-]
	 SCS Same-Spin Energy      =      -0.1041922399230790 [Eh]
	 SCS Opposite-Spin Energy  =      -1.3179998573915555 [Eh]
	 SCS Correlation Energy    =      -1.4221920973146345 [Eh]
	 SCS Total Energy          =    -290.7244916839211442 [Eh]
	-----------------------------------------------------------

  Dipole Moment: [D]
     X:    -1.2977      Y:     0.4381      Z:     0.7546     Total:     1.5637

*** Psi4 exiting successfully. Buy a developer a beer!
