                               Psi4 1.4a3.dev225

  ==> Input File <==

--------------------------------------------------------------------------
#psi4
#
memory 32 gb

molecule  {
0 1
  N        2.7287650     0.3187530    -0.1253010
  C        0.3130830    -0.2174900     0.4662370
  C       -0.2538890     1.1369990    -0.0074850
  C       -0.8349900    -1.2410350     0.2435950
  C       -1.7711660     0.9754980     0.0985330
  C       -1.9852080    -0.4520530    -0.4054450
  C        1.6033210    -0.6099780    -0.2562360
  H        0.5371130    -0.1501040     1.5403310
  H        0.0159810     1.3028420    -1.0605530
  H        0.1335060     1.9859410     0.5654260
  H       -1.1585790    -1.6624630     1.2012770
  H       -0.5107060    -2.0839980    -0.3779040
  H       -2.3285430     1.7277130    -0.4695390
  H       -2.1117770     1.0594688     1.2432087
  H       -2.9716640    -0.8601180    -0.1627990
  H       -1.8853360    -0.4679020    -1.4974950
  H        1.3880180    -0.7214600    -1.3270790
  H        1.9406490    -1.5916360     0.0977200
  H        2.9408020     0.4513780     0.8633710
  H        2.4538300     1.2344270    -0.4784390
units angstrom
no_reorient  #important for SAPT in psi4, default
symmetry c1  #important for SAPT in psi4, default
}

set PROPERTIES_ORIGIN ["COM"]
properties('MP2/aug-cc-pvtz', properties = ['dipole'])
--------------------------------------------------------------------------

    Molecular point group: c1
  Charge       = 0
  Multiplicity = 1
  Basis Set: AUG-CC-PVTZ
    Blend: AUG-CC-PVTZ
  Basis Set: (AUG-CC-PVTZ AUX)
    Blend: AUG-CC-PVTZ-JKFIT

    Orbital Energies [Eh]
    ---------------------

    Doubly Occupied:

       1A    -15.537317     2A    -11.242714     3A    -11.229124
       4A    -11.220361     5A    -11.218141     6A    -11.217555
       7A    -11.216129     8A     -1.177637     9A     -1.117228
      10A     -0.981410    11A     -0.961161    12A     -0.864321
      13A     -0.775576    14A     -0.756373    15A     -0.668877
      16A     -0.646494    17A     -0.642215    18A     -0.576450
      19A     -0.571922    20A     -0.557178    21A     -0.518620
      22A     -0.491133    23A     -0.479137    24A     -0.469378
      25A     -0.456066    26A     -0.455372    27A     -0.445222
      28A     -0.382477

  @DF-RHF Final Energy:  -289.31649338672275

   => Energetics <=

    Nuclear Repulsion Energy =            324.4941661554273651
    One-Electron Energy =               -1033.8701416147748660
    Two-Electron Energy =                 420.0594820726247463
    Total Energy =                       -289.3164933867227546
  Basis Set: (AUG-CC-PVTZ AUX)
    Blend: AUG-CC-PVTZ-RI
    Molecular point group: c1

    Geometry (in Angstrom), charge = 0, multiplicity = 1:

       Center              X                  Y                   Z               Mass
    ------------   -----------------  -----------------  -----------------  -----------------
         N            2.713669636609     0.320845167594    -0.125849819709    14.003074004430
         C            0.297987636609    -0.215397832406     0.465688180291    12.000000000000
         C           -0.268984363391     1.139091167594    -0.008033819709    12.000000000000
         C           -0.850085363391    -1.238942832406     0.243046180291    12.000000000000
         C           -1.786261363391     0.977590167594     0.097984180291    12.000000000000
         C           -2.000303363391    -0.449960832406    -0.405993819709    12.000000000000
         C            1.588225636609    -0.607885832406    -0.256784819709    12.000000000000
         H            0.522017636609    -0.148011832406     1.539782180291     1.007825032230
         H            0.000885636609     1.304934167594    -1.061101819709     1.007825032230
         H            0.118410636609     1.988033167594     0.564877180291     1.007825032230
         H           -1.173674363391    -1.660370832406     1.200728180291     1.007825032230
         H           -0.525801363391    -2.081905832406    -0.378452819709     1.007825032230
         H           -2.343638363391     1.729805167594    -0.470087819709     1.007825032230
         H           -2.126872363391     1.061560967594     1.242659880291     1.007825032230
         H           -2.986759363391    -0.858025832406    -0.163347819709     1.007825032230
         H           -1.900431363391    -0.465809832406    -1.498043819709     1.007825032230
         H            1.372922636609    -0.719367832406    -1.327627819709     1.007825032230
         H            1.925553636609    -1.589543832406     0.097171180291     1.007825032230
         H            2.925706636609     0.453470167594     0.862822180291     1.007825032230
         H            2.438734636609     1.236519167594    -0.478987819709     1.007825032230

  Basis Set: AUG-CC-PVTZ
    Blend: AUG-CC-PVTZ
  Basis Set: (AUG-CC-PVTZ AUX)
    Blend: AUG-CC-PVTZ-JKFIT
	 Reference Energy          =    -289.3164933867227546 [Eh]
	 Singles Energy            =      -0.0000000000000000 [Eh]
	 Same-Spin Energy          =      -0.3125906397213372 [Eh]
	 Opposite-Spin Energy      =      -1.0980149796491045 [Eh]
	 Correlation Energy        =      -1.4106056193704417 [Eh]
	 Total Energy              =    -290.7270990060931695 [Eh]

	 ================> DF-SCS-MP2 Energies <==================
	-----------------------------------------------------------
	 SCS Same-Spin Scale       =       0.3333333333333333 [-]
	 SCS Opposite-Spin Scale   =       1.2000000000000000 [-]
	 SCS Same-Spin Energy      =      -0.1041968799071124 [Eh]
	 SCS Opposite-Spin Energy  =      -1.3176179755789255 [Eh]
	 SCS Correlation Energy    =      -1.4218148554860379 [Eh]
	 SCS Total Energy          =    -290.7383082422088023 [Eh]
	-----------------------------------------------------------

  Dipole Moment: [D]
     X:    -1.2685      Y:     0.4490      Z:     0.6938     Total:     1.5140

*** Psi4 exiting successfully. Buy a developer a beer!
