                               Psi4 1.4a3.dev225

  ==> Input File <==

--------------------------------------------------------------------------
#psi4
#
memory 32 gb

molecule  {
0 1
  N        2.7287650     0.3187530    -0.1253010
  C        0.3130830    -0.2174900     0.4662370
  C       -0.2538890     1.1369990    -0.0074850
  C       -0.7667071    -1.1724500     0.1970752
  C       -1.7711660     0.9754980     0.0985330
  C       -1.9852080    -0.4520530    -0.4054450
  C        1.6033210    -0.6099780    -0.2562360
  H        0.5371130    -0.1501040     1.5403310
  H        0.0159810     1.3028420    -1.0605530
  H        0.1335060     1.9859410     0.5654260
  H       -1.1585790    -1.6624630     1.2012770
  H       -0.5107060    -2.0839980    -0.3779040
  H       -2.3285430     1.7277130    -0.4695390
  H       -2.0833270     1.0524550     1.1475980
  H       -2.9716640    -0.8601180    -0.1627990
  H       -1.8853360    -0.4679020    -1.4974950
  H        1.3880180    -0.7214600    -1.3270790
  H        1.9406490    -1.5916360     0.0977200
  H        2.9408020     0.4513780     0.8633710
  H        2.4538300     1.2344270    -0.4784390
units angstrom
no_reorient  #important for SAPT in psi4, default
symmetry c1  #important for SAPT in psi4, default
}

set PROPERTIES_ORIGIN ["COM"]
properties('MP2/aug-cc-pvtz', properties = ['dipole'])
--------------------------------------------------------------------------

    Molecular point group: c1
  Charge       = 0
  Multiplicity = 1
  Basis Set: AUG-CC-PVTZ
    Blend: AUG-CC-PVTZ
  Basis Set: (AUG-CC-PVTZ AUX)
    Blend: AUG-CC-PVTZ-JKFIT

    Orbital Energies [Eh]
    ---------------------

    Doubly Occupied:

       1A    -15.537201     2A    -11.243115     3A    -11.220841
       4A    -11.217930     5A    -11.217039     6A    -11.216645
       7A    -11.216410     8A     -1.179640     9A     -1.126192
      10A     -0.990660    11A     -0.958141    12A     -0.865862
      13A     -0.784402    14A     -0.752714    15A     -0.671728
      16A     -0.649855    17A     -0.644745    18A     -0.580979
      19A     -0.565458    20A     -0.560131    21A     -0.523471
      22A     -0.494808    23A     -0.481650    24A     -0.467522
      25A     -0.462903    26A     -0.461697    27A     -0.429681
      28A     -0.381819

  @DF-RHF Final Energy:  -289.31026618072116

   => Energetics <=

    Nuclear Repulsion Energy =            326.4271352143134663
    One-Electron Energy =               -1037.6683223143095347
    Two-Electron Energy =                 421.9309209192749108
    Total Energy =                       -289.3102661807211575
  Basis Set: (AUG-CC-PVTZ AUX)
    Blend: AUG-CC-PVTZ-RI
    Molecular point group: c1

    Geometry (in Angstrom), charge = 0, multiplicity = 1:

       Center              X                  Y                   Z               Mass
    ------------   -----------------  -----------------  -----------------  -----------------
         N            2.705112357576     0.312611950620    -0.119244726307    14.003074004430
         C            0.289430357576    -0.223631049380     0.472293273693    12.000000000000
         C           -0.277541642424     1.130857950620    -0.001428726307    12.000000000000
         C           -0.790359742424    -1.178591049380     0.203131473693    12.000000000000
         C           -1.794818642424     0.969356950620     0.104589273693    12.000000000000
         C           -2.008860642424    -0.458194049380    -0.399388726307    12.000000000000
         C            1.579668357576    -0.616119049380    -0.250179726307    12.000000000000
         H            0.513460357576    -0.156245049380     1.546387273693     1.007825032230
         H           -0.007671642424     1.296700950620    -1.054496726307     1.007825032230
         H            0.109853357576     1.979799950620     0.571482273693     1.007825032230
         H           -1.182231642424    -1.668604049380     1.207333273693     1.007825032230
         H           -0.534358642424    -2.090139049380    -0.371847726307     1.007825032230
         H           -2.352195642424     1.721571950620    -0.463482726307     1.007825032230
         H           -2.106979642424     1.046313950620     1.153654273693     1.007825032230
         H           -2.995316642424    -0.866259049380    -0.156742726307     1.007825032230
         H           -1.908988642424    -0.474043049380    -1.491438726307     1.007825032230
         H            1.364365357576    -0.727601049380    -1.321022726307     1.007825032230
         H            1.916996357576    -1.597777049380     0.103776273693     1.007825032230
         H            2.917149357576     0.445236950620     0.869427273693     1.007825032230
         H            2.430177357576     1.228285950620    -0.472382726307     1.007825032230

  Basis Set: AUG-CC-PVTZ
    Blend: AUG-CC-PVTZ
  Basis Set: (AUG-CC-PVTZ AUX)
    Blend: AUG-CC-PVTZ-JKFIT
	 Reference Energy          =    -289.3102661807211575 [Eh]
	 Singles Energy            =      -0.0000000000000000 [Eh]
	 Same-Spin Energy          =      -0.3135453089352538 [Eh]
	 Opposite-Spin Energy      =      -1.0985755928111125 [Eh]
	 Correlation Energy        =      -1.4121209017463663 [Eh]
	 Total Energy              =    -290.7223870824675487 [Eh]

	 ================> DF-SCS-MP2 Energies <==================
	-----------------------------------------------------------
	 SCS Same-Spin Scale       =       0.3333333333333333 [-]
	 SCS Opposite-Spin Scale   =       1.2000000000000000 [-]
	 SCS Same-Spin Energy      =      -0.1045151029784179 [Eh]
	 SCS Opposite-Spin Energy  =      -1.3182907113733349 [Eh]
	 SCS Correlation Energy    =      -1.4228058143517528 [Eh]
	 SCS Total Energy          =    -290.7330719950729190 [Eh]
	-----------------------------------------------------------

  Dipole Moment: [D]
     X:    -1.2941      Y:     0.5033      Z:     0.7280     Total:     1.5678

*** Psi4 exiting successfully. Buy a developer a beer!
