                               Psi4 1.4a3.dev225

  ==> Input File <==

--------------------------------------------------------------------------
#psi4
#
memory 32 gb

molecule  {
0 1
  N        2.7287650     0.3187530    -0.1253010
  C        0.3130830    -0.2174900     0.4662370
  C       -0.2538890     1.1369990    -0.0074850
  C       -0.8349900    -1.2410350     0.2435950
  C       -1.7711660     0.9754980     0.0985330
  C       -1.9852080    -0.4520530    -0.4054450
  C        1.6033210    -0.6099780    -0.2562360
  H        0.5371130    -0.1501040     1.5403310
  H        0.0159810     1.3028420    -1.0605530
  H        0.1335060     1.9859410     0.5654260
  H       -1.1290329    -1.6239835     1.1138335
  H       -0.5107060    -2.0839980    -0.3779040
  H       -2.3285430     1.7277130    -0.4695390
  H       -2.0833270     1.0524550     1.1475980
  H       -2.9716640    -0.8601180    -0.1627990
  H       -1.8853360    -0.4679020    -1.4974950
  H        1.3880180    -0.7214600    -1.3270790
  H        1.9406490    -1.5916360     0.0977200
  H        2.9408020     0.4513780     0.8633710
  H        2.4538300     1.2344270    -0.4784390
units angstrom
no_reorient  #important for SAPT in psi4, default
symmetry c1  #important for SAPT in psi4, default
}

set PROPERTIES_ORIGIN ["COM"]
properties('MP2/aug-cc-pvtz', properties = ['dipole'])
--------------------------------------------------------------------------

    Molecular point group: c1
  Charge       = 0
  Multiplicity = 1
  Basis Set: AUG-CC-PVTZ
    Blend: AUG-CC-PVTZ
  Basis Set: (AUG-CC-PVTZ AUX)
    Blend: AUG-CC-PVTZ-JKFIT

    Orbital Energies [Eh]
    ---------------------

    Doubly Occupied:

       1A    -15.536553     2A    -11.241894     3A    -11.219210
       4A    -11.216719     5A    -11.216127     6A    -11.215168
       7A    -11.202980     8A     -1.176965     9A     -1.118630
      10A     -0.982721    11A     -0.965671    12A     -0.867015
      13A     -0.785140    14A     -0.759083    15A     -0.669594
      16A     -0.650432    17A     -0.640859    18A     -0.584055
      19A     -0.575090    20A     -0.558221    21A     -0.517819
      22A     -0.494269    23A     -0.478378    24A     -0.468494
      25A     -0.463647    26A     -0.454234    27A     -0.447552
      28A     -0.381952

  @DF-RHF Final Energy:  -289.31697325823598

   => Energetics <=

    Nuclear Repulsion Energy =            325.4532228078560365
    One-Electron Energy =               -1035.7634552467313824
    Two-Electron Energy =                 420.9932591806393702
    Total Energy =                       -289.3169732582359757
  Basis Set: (AUG-CC-PVTZ AUX)
    Blend: AUG-CC-PVTZ-RI
    Molecular point group: c1

    Geometry (in Angstrom), charge = 0, multiplicity = 1:

       Center              X                  Y                   Z               Mass
    ------------   -----------------  -----------------  -----------------  -----------------
         N            2.713079857691     0.320525183897    -0.123988289228    14.003074004430
         C            0.297397857691    -0.215717816103     0.467549710772    12.000000000000
         C           -0.269574142309     1.138771183897    -0.006172289228    12.000000000000
         C           -0.850675142309    -1.239262816103     0.244907710772    12.000000000000
         C           -1.786851142309     0.977270183897     0.099845710772    12.000000000000
         C           -2.000893142309    -0.450280816103    -0.404132289228    12.000000000000
         C            1.587635857691    -0.608205816103    -0.254923289228    12.000000000000
         H            0.521427857691    -0.148331816103     1.541643710772     1.007825032230
         H            0.000295857691     1.304614183897    -1.059240289228     1.007825032230
         H            0.117820857691     1.987713183897     0.566738710772     1.007825032230
         H           -1.144718042309    -1.622211316103     1.115146210772     1.007825032230
         H           -0.526391142309    -2.082225816103    -0.376591289228     1.007825032230
         H           -2.344228142309     1.729485183897    -0.468226289228     1.007825032230
         H           -2.099012142309     1.054227183897     1.148910710772     1.007825032230
         H           -2.987349142309    -0.858345816103    -0.161486289228     1.007825032230
         H           -1.901021142309    -0.466129816103    -1.496182289228     1.007825032230
         H            1.372332857691    -0.719687816103    -1.325766289228     1.007825032230
         H            1.924963857691    -1.589863816103     0.099032710772     1.007825032230
         H            2.925116857691     0.453150183897     0.864683710772     1.007825032230
         H            2.438144857691     1.236199183897    -0.477126289228     1.007825032230

  Basis Set: AUG-CC-PVTZ
    Blend: AUG-CC-PVTZ
  Basis Set: (AUG-CC-PVTZ AUX)
    Blend: AUG-CC-PVTZ-JKFIT
	 Reference Energy          =    -289.3169732582359757 [Eh]
	 Singles Energy            =      -0.0000000000000000 [Eh]
	 Same-Spin Energy          =      -0.3126110657387153 [Eh]
	 Opposite-Spin Energy      =      -1.0967466164371407 [Eh]
	 Correlation Energy        =      -1.4093576821758560 [Eh]
	 Total Energy              =    -290.7263309404118559 [Eh]

	 ================> DF-SCS-MP2 Energies <==================
	-----------------------------------------------------------
	 SCS Same-Spin Scale       =       0.3333333333333333 [-]
	 SCS Opposite-Spin Scale   =       1.2000000000000000 [-]
	 SCS Same-Spin Energy      =      -0.1042036885795718 [Eh]
	 SCS Opposite-Spin Energy  =      -1.3160959397245688 [Eh]
	 SCS Correlation Energy    =      -1.4202996283041407 [Eh]
	 SCS Total Energy          =    -290.7372728865400973 [Eh]
	-----------------------------------------------------------

  Dipole Moment: [D]
     X:    -1.3266      Y:     0.4287      Z:     0.8139     Total:     1.6143

*** Psi4 exiting successfully. Buy a developer a beer!
