                               Psi4 1.4a3.dev225

  ==> Input File <==

--------------------------------------------------------------------------
#psi4
#
memory 32 gb

molecule  {
0 1
  N        2.7287650     0.3187530    -0.1253010
  C        0.3130830    -0.2174900     0.4662370
  C       -0.2538890     1.1369990    -0.0074850
  C       -0.8719265    -1.2739651     0.2364320
  C       -1.7711660     0.9754980     0.0985330
  C       -1.9852080    -0.4520530    -0.4054450
  C        1.6033210    -0.6099780    -0.2562360
  H        0.5371130    -0.1501040     1.5403310
  H        0.0159810     1.3028420    -1.0605530
  H        0.1335060     1.9859410     0.5654260
  H       -1.1585790    -1.6624630     1.2012770
  H       -0.5107060    -2.0839980    -0.3779040
  H       -2.3285430     1.7277130    -0.4695390
  H       -2.0833270     1.0524550     1.1475980
  H       -2.9716640    -0.8601180    -0.1627990
  H       -1.8853360    -0.4679020    -1.4974950
  H        1.3880180    -0.7214600    -1.3270790
  H        1.9406490    -1.5916360     0.0977200
  H        2.9408020     0.4513780     0.8633710
  H        2.4538300     1.2344270    -0.4784390
units angstrom
no_reorient  #important for SAPT in psi4, default
symmetry c1  #important for SAPT in psi4, default
}

set PROPERTIES_ORIGIN ["COM"]
properties('MP2/aug-cc-pvtz', properties = ['dipole'])
--------------------------------------------------------------------------

    Molecular point group: c1
  Charge       = 0
  Multiplicity = 1
  Basis Set: AUG-CC-PVTZ
    Blend: AUG-CC-PVTZ
  Basis Set: (AUG-CC-PVTZ AUX)
    Blend: AUG-CC-PVTZ-JKFIT

    Orbital Energies [Eh]
    ---------------------

    Doubly Occupied:

       1A    -15.536844     2A    -11.242032     3A    -11.221642
       4A    -11.217272     5A    -11.216504     6A    -11.215803
       7A    -11.214694     8A     -1.176511     9A     -1.115002
      10A     -0.979693    11A     -0.963723    12A     -0.864060
      13A     -0.782115    14A     -0.757179    15A     -0.667070
      16A     -0.647621    17A     -0.640866    18A     -0.580426
      19A     -0.575765    20A     -0.558131    21A     -0.517213
      22A     -0.491938    23A     -0.479644    24A     -0.470702
      25A     -0.465136    26A     -0.448548    27A     -0.445033
      28A     -0.380732

  @DF-RHF Final Energy:  -289.32108177744260

   => Energetics <=

    Nuclear Repulsion Energy =            324.3103026948085699
    One-Electron Energy =               -1033.5189723293087809
    Two-Electron Energy =                 419.8875878570576106
    Total Energy =                       -289.3210817774426005
  Basis Set: (AUG-CC-PVTZ AUX)
    Blend: AUG-CC-PVTZ-RI
    Molecular point group: c1

    Geometry (in Angstrom), charge = 0, multiplicity = 1:

       Center              X                  Y                   Z               Mass
    ------------   -----------------  -----------------  -----------------  -----------------
         N            2.717852737531     0.324903799321    -0.124010202881    14.003074004430
         C            0.302170737531    -0.211339200679     0.467527797119    12.000000000000
         C           -0.264801262469     1.143149799321    -0.006194202881    12.000000000000
         C           -0.882838762469    -1.267814300679     0.237722797119    12.000000000000
         C           -1.782078262469     0.981648799321     0.099823797119    12.000000000000
         C           -1.996120262469    -0.445902200679    -0.404154202881    12.000000000000
         C            1.592408737531    -0.603827200679    -0.254945202881    12.000000000000
         H            0.526200737531    -0.143953200679     1.541621797119     1.007825032230
         H            0.005068737531     1.308992799321    -1.059262202881     1.007825032230
         H            0.122593737531     1.992091799321     0.566716797119     1.007825032230
         H           -1.169491262469    -1.656312200679     1.202567797119     1.007825032230
         H           -0.521618262469    -2.077847200679    -0.376613202881     1.007825032230
         H           -2.339455262469     1.733863799321    -0.468248202881     1.007825032230
         H           -2.094239262469     1.058605799321     1.148888797119     1.007825032230
         H           -2.982576262469    -0.853967200679    -0.161508202881     1.007825032230
         H           -1.896248262469    -0.461751200679    -1.496204202881     1.007825032230
         H            1.377105737531    -0.715309200679    -1.325788202881     1.007825032230
         H            1.929736737531    -1.585485200679     0.099010797119     1.007825032230
         H            2.929889737531     0.457528799321     0.864661797119     1.007825032230
         H            2.442917737531     1.240577799321    -0.477148202881     1.007825032230

  Basis Set: AUG-CC-PVTZ
    Blend: AUG-CC-PVTZ
  Basis Set: (AUG-CC-PVTZ AUX)
    Blend: AUG-CC-PVTZ-JKFIT
	 Reference Energy          =    -289.3210817774426005 [Eh]
	 Singles Energy            =      -0.0000000000000000 [Eh]
	 Same-Spin Energy          =      -0.3124797396674483 [Eh]
	 Opposite-Spin Energy      =      -1.0972868880545090 [Eh]
	 Correlation Energy        =      -1.4097666277219574 [Eh]
	 Total Energy              =    -290.7308484051645792 [Eh]

	 ================> DF-SCS-MP2 Energies <==================
	-----------------------------------------------------------
	 SCS Same-Spin Scale       =       0.3333333333333333 [-]
	 SCS Opposite-Spin Scale   =       1.2000000000000000 [-]
	 SCS Same-Spin Energy      =      -0.1041599132224828 [Eh]
	 SCS Opposite-Spin Energy  =      -1.3167442656654107 [Eh]
	 SCS Correlation Energy    =      -1.4209041788878936 [Eh]
	 SCS Total Energy          =    -290.7419859563304954 [Eh]
	-----------------------------------------------------------

  Dipole Moment: [D]
     X:    -1.3032      Y:     0.4662      Z:     0.7690     Total:     1.5834

*** Psi4 exiting successfully. Buy a developer a beer!
