                               Psi4 1.4a3.dev225

  ==> Input File <==

--------------------------------------------------------------------------
#psi4
#
memory 32 gb

molecule  {
0 1
  N        2.7287650     0.3187530    -0.1253010
  C        0.3130830    -0.2174900     0.4662370
  C       -0.2538890     1.1369990    -0.0074850
  C       -0.8349900    -1.2410350     0.2435950
  C       -1.7711660     0.9754980     0.0985330
  C       -1.9852080    -0.4520530    -0.4054450
  C        1.6033210    -0.6099780    -0.2562360
  H        0.5371130    -0.1501040     1.5403310
  H        0.0159810     1.3028420    -1.0605530
  H        0.1335060     1.9859410     0.5654260
  H       -1.1585790    -1.6624630     1.2012770
  H       -0.5107060    -2.0839980    -0.3779040
  H       -2.3285430     1.7277130    -0.4695390
  H       -2.0833270     1.0524550     1.1475980
  H       -2.9716640    -0.8601180    -0.1627990
  H       -1.8671232    -0.4707922    -1.6966430
  H        1.3880180    -0.7214600    -1.3270790
  H        1.9406490    -1.5916360     0.0977200
  H        2.9408020     0.4513780     0.8633710
  H        2.4538300     1.2344270    -0.4784390
units angstrom
no_reorient  #important for SAPT in psi4, default
symmetry c1  #important for SAPT in psi4, default
}

set PROPERTIES_ORIGIN ["COM"]
properties('MP2/aug-cc-pvtz', properties = ['dipole'])
--------------------------------------------------------------------------

    Molecular point group: c1
  Charge       = 0
  Multiplicity = 1
  Basis Set: AUG-CC-PVTZ
    Blend: AUG-CC-PVTZ
  Basis Set: (AUG-CC-PVTZ AUX)
    Blend: AUG-CC-PVTZ-JKFIT

    Orbital Energies [Eh]
    ---------------------

    Doubly Occupied:

       1A    -15.537365     2A    -11.242732     3A    -11.240286
       4A    -11.221082     5A    -11.219648     6A    -11.218665
       7A    -11.217526     8A     -1.177710     9A     -1.117437
      10A     -0.981983    11A     -0.959771    12A     -0.864582
      13A     -0.773393    14A     -0.754922    15A     -0.669354
      16A     -0.648642    17A     -0.638766    18A     -0.580584
      19A     -0.561625    20A     -0.559090    21A     -0.518345
      22A     -0.492045    23A     -0.479377    24A     -0.471377
      25A     -0.459504    26A     -0.453127    27A     -0.435163
      28A     -0.382719

  @DF-RHF Final Energy:  -289.30335742231262

   => Energetics <=

    Nuclear Repulsion Energy =            324.1150108870379540
    One-Electron Energy =               -1033.0830999171780604
    Two-Electron Energy =                 419.6647316078275480
    Total Energy =                       -289.3033574223126152
  Basis Set: (AUG-CC-PVTZ AUX)
    Blend: AUG-CC-PVTZ-RI
    Molecular point group: c1

    Geometry (in Angstrom), charge = 0, multiplicity = 1:

       Center              X                  Y                   Z               Mass
    ------------   -----------------  -----------------  -----------------  -----------------
         N            2.713195109258     0.320945884201    -0.122852334239    14.003074004430
         C            0.297513109258    -0.215297115799     0.468685665761    12.000000000000
         C           -0.269458890742     1.139191884201    -0.005036334239    12.000000000000
         C           -0.850559890742    -1.238842115799     0.246043665761    12.000000000000
         C           -1.786735890742     0.977690884201     0.100981665761    12.000000000000
         C           -2.000777890742    -0.449860115799    -0.402996334239    12.000000000000
         C            1.587751109258    -0.607785115799    -0.253787334239    12.000000000000
         H            0.521543109258    -0.147911115799     1.542779665761     1.007825032230
         H            0.000411109258     1.305034884201    -1.058104334239     1.007825032230
         H            0.117936109258     1.988133884201     0.567874665761     1.007825032230
         H           -1.174148890742    -1.660270115799     1.203725665761     1.007825032230
         H           -0.526275890742    -2.081805115799    -0.375455334239     1.007825032230
         H           -2.344112890742     1.729905884201    -0.467090334239     1.007825032230
         H           -2.098896890742     1.054647884201     1.150046665761     1.007825032230
         H           -2.987233890742    -0.857925115799    -0.160350334239     1.007825032230
         H           -1.882693090742    -0.468599315799    -1.694194334239     1.007825032230
         H            1.372448109258    -0.719267115799    -1.324630334239     1.007825032230
         H            1.925079109258    -1.589443115799     0.100168665761     1.007825032230
         H            2.925232109258     0.453570884201     0.865819665761     1.007825032230
         H            2.438260109258     1.236619884201    -0.475990334239     1.007825032230

  Basis Set: AUG-CC-PVTZ
    Blend: AUG-CC-PVTZ
  Basis Set: (AUG-CC-PVTZ AUX)
    Blend: AUG-CC-PVTZ-JKFIT
	 Reference Energy          =    -289.3033574223126152 [Eh]
	 Singles Energy            =      -0.0000000000000000 [Eh]
	 Same-Spin Energy          =      -0.3125802007698871 [Eh]
	 Opposite-Spin Energy      =      -1.0988336616007064 [Eh]
	 Correlation Energy        =      -1.4114138623705934 [Eh]
	 Total Energy              =    -290.7147712846831951 [Eh]

	 ================> DF-SCS-MP2 Energies <==================
	-----------------------------------------------------------
	 SCS Same-Spin Scale       =       0.3333333333333333 [-]
	 SCS Opposite-Spin Scale   =       1.2000000000000000 [-]
	 SCS Same-Spin Energy      =      -0.1041934002566290 [Eh]
	 SCS Opposite-Spin Energy  =      -1.3186003939208477 [Eh]
	 SCS Correlation Energy    =      -1.4227937941774766 [Eh]
	 SCS Total Energy          =    -290.7261512164901092 [Eh]
	-----------------------------------------------------------

  Dipole Moment: [D]
     X:    -1.2799      Y:     0.4849      Z:     0.9507     Total:     1.6665

*** Psi4 exiting successfully. Buy a developer a beer!
