                               Psi4 1.4a3.dev225

  ==> Input File <==

--------------------------------------------------------------------------
#psi4
#
memory 32 gb

molecule  {
0 1
  N        2.7287650     0.3187530    -0.1253010
  C        0.3130830    -0.2174900     0.4662370
  C       -0.2538890     1.1369990    -0.0074850
  C       -0.8349900    -1.2410350     0.2435950
  C       -1.7711660     0.9754980     0.0985330
  C       -1.9852080    -0.4520530    -0.4054450
  C        1.6033210    -0.6099780    -0.2562360
  H        0.5371130    -0.1501040     1.5403310
  H        0.0658788     1.4006695    -1.0260685
  H        0.1335060     1.9859410     0.5654260
  H       -1.1585790    -1.6624630     1.2012770
  H       -0.5107060    -2.0839980    -0.3779040
  H       -2.3285430     1.7277130    -0.4695390
  H       -2.0833270     1.0524550     1.1475980
  H       -2.9716640    -0.8601180    -0.1627990
  H       -1.8853360    -0.4679020    -1.4974950
  H        1.3880180    -0.7214600    -1.3270790
  H        1.9406490    -1.5916360     0.0977200
  H        2.9408020     0.4513780     0.8633710
  H        2.4538300     1.2344270    -0.4784390
units angstrom
no_reorient  #important for SAPT in psi4, default
symmetry c1  #important for SAPT in psi4, default
}

set PROPERTIES_ORIGIN ["COM"]
properties('MP2/aug-cc-pvtz', properties = ['dipole'])
--------------------------------------------------------------------------

    Molecular point group: c1
  Charge       = 0
  Multiplicity = 1
  Basis Set: AUG-CC-PVTZ
    Blend: AUG-CC-PVTZ
  Basis Set: (AUG-CC-PVTZ AUX)
    Blend: AUG-CC-PVTZ-JKFIT

    Orbital Energies [Eh]
    ---------------------

    Doubly Occupied:

       1A    -15.537147     2A    -11.242396     3A    -11.220623
       4A    -11.217479     5A    -11.216489     6A    -11.216234
       7A    -11.215671     8A     -1.177337     9A     -1.117210
      10A     -0.982811    11A     -0.961341    12A     -0.865074
      13A     -0.783154    14A     -0.757010    15A     -0.668645
      16A     -0.647091    17A     -0.642230    18A     -0.580488
      19A     -0.569228    20A     -0.558692    21A     -0.518469
      22A     -0.490166    23A     -0.479501    24A     -0.470520
      25A     -0.462138    26A     -0.453738    27A     -0.445614
      28A     -0.382223

  @DF-RHF Final Energy:  -289.32152051790274

   => Energetics <=

    Nuclear Repulsion Energy =            324.7983063059187430
    One-Electron Energy =               -1034.4822161183906246
    Two-Electron Energy =                 420.3623892945691978
    Total Energy =                       -289.3215205179027407
  Basis Set: (AUG-CC-PVTZ AUX)
    Blend: AUG-CC-PVTZ-RI
    Molecular point group: c1

    Geometry (in Angstrom), charge = 0, multiplicity = 1:

       Center              X                  Y                   Z               Mass
    ------------   -----------------  -----------------  -----------------  -----------------
         N            2.712872895437     0.319921657122    -0.125228209910    14.003074004430
         C            0.297190895437    -0.216321342878     0.466309790090    12.000000000000
         C           -0.269781104563     1.138167657122    -0.007412209910    12.000000000000
         C           -0.850882104563    -1.239866342878     0.243667790090    12.000000000000
         C           -1.787058104563     0.976666657122     0.098605790090    12.000000000000
         C           -2.001100104563    -0.450884342878    -0.405372209910    12.000000000000
         C            1.587428895437    -0.608809342878    -0.256163209910    12.000000000000
         H            0.521220895437    -0.148935342878     1.540403790090     1.007825032230
         H            0.049986695437     1.401838157122    -1.025995709910     1.007825032230
         H            0.117613895437     1.987109657122     0.565498790090     1.007825032230
         H           -1.174471104563    -1.661294342878     1.201349790090     1.007825032230
         H           -0.526598104563    -2.082829342878    -0.377831209910     1.007825032230
         H           -2.344435104563     1.728881657122    -0.469466209910     1.007825032230
         H           -2.099219104563     1.053623657122     1.147670790090     1.007825032230
         H           -2.987556104563    -0.858949342878    -0.162726209910     1.007825032230
         H           -1.901228104563    -0.466733342878    -1.497422209910     1.007825032230
         H            1.372125895437    -0.720291342878    -1.327006209910     1.007825032230
         H            1.924756895437    -1.590467342878     0.097792790090     1.007825032230
         H            2.924909895437     0.452546657122     0.863443790090     1.007825032230
         H            2.437937895437     1.235595657122    -0.478366209910     1.007825032230

  Basis Set: AUG-CC-PVTZ
    Blend: AUG-CC-PVTZ
  Basis Set: (AUG-CC-PVTZ AUX)
    Blend: AUG-CC-PVTZ-JKFIT
	 Reference Energy          =    -289.3215205179027407 [Eh]
	 Singles Energy            =      -0.0000000000000000 [Eh]
	 Same-Spin Energy          =      -0.3125501933052859 [Eh]
	 Opposite-Spin Energy      =      -1.0972318933444467 [Eh]
	 Correlation Energy        =      -1.4097820866497326 [Eh]
	 Total Energy              =    -290.7313026045524680 [Eh]

	 ================> DF-SCS-MP2 Energies <==================
	-----------------------------------------------------------
	 SCS Same-Spin Scale       =       0.3333333333333333 [-]
	 SCS Opposite-Spin Scale   =       1.2000000000000000 [-]
	 SCS Same-Spin Energy      =      -0.1041833977684286 [Eh]
	 SCS Opposite-Spin Energy  =      -1.3166782720133361 [Eh]
	 SCS Correlation Energy    =      -1.4208616697817646 [Eh]
	 SCS Total Energy          =    -290.7423821876844841 [Eh]
	-----------------------------------------------------------

  Dipole Moment: [D]
     X:    -1.2956      Y:     0.4857      Z:     0.7650     Total:     1.5811

*** Psi4 exiting successfully. Buy a developer a beer!
