                               Psi4 1.4a3.dev225

  ==> Input File <==

--------------------------------------------------------------------------
#psi4
#
memory 32 gb

molecule  {
0 1
  N        2.7287650     0.3187530    -0.1253010
  C        0.3130830    -0.2174900     0.4662370
  C       -0.2538890     1.1369990    -0.0074850
  C       -0.8349900    -1.2410350     0.2435950
  C       -1.7711660     0.9754980     0.0985330
  C       -1.9852080    -0.4520530    -0.4054450
  C        1.6033210    -0.6099780    -0.2562360
  H        0.5371130    -0.1501040     1.5403310
  H        0.0159810     1.3028420    -1.0605530
  H        0.1335060     1.9859410     0.5654260
  H       -1.1585790    -1.6624630     1.2012770
  H       -0.5107060    -2.0839980    -0.3779040
  H       -2.3285430     1.7277130    -0.4695390
  H       -2.0691020     1.0489481     1.0997927
  H       -2.9716640    -0.8601180    -0.1627990
  H       -1.8853360    -0.4679020    -1.4974950
  H        1.3880180    -0.7214600    -1.3270790
  H        1.9406490    -1.5916360     0.0977200
  H        2.9408020     0.4513780     0.8633710
  H        2.4538300     1.2344270    -0.4784390
units angstrom
no_reorient  #important for SAPT in psi4, default
symmetry c1  #important for SAPT in psi4, default
}

set PROPERTIES_ORIGIN ["COM"]
properties('MP2/aug-cc-pvtz', properties = ['dipole'])
--------------------------------------------------------------------------

    Molecular point group: c1
  Charge       = 0
  Multiplicity = 1
  Basis Set: AUG-CC-PVTZ
    Blend: AUG-CC-PVTZ
  Basis Set: (AUG-CC-PVTZ AUX)
    Blend: AUG-CC-PVTZ-JKFIT

    Orbital Energies [Eh]
    ---------------------

    Doubly Occupied:

       1A    -15.536874     2A    -11.242257     3A    -11.219839
       4A    -11.216320     5A    -11.215957     6A    -11.215367
       7A    -11.210232     8A     -1.177204     9A     -1.118282
      10A     -0.983932    11A     -0.961268    12A     -0.865271
      13A     -0.786900    14A     -0.755637    15A     -0.668234
      16A     -0.649144    17A     -0.641177    18A     -0.583552
      19A     -0.572284    20A     -0.558834    21A     -0.517954
      22A     -0.491501    23A     -0.477643    24A     -0.470297
      25A     -0.465634    26A     -0.454693    27A     -0.444572
      28A     -0.381996

  @DF-RHF Final Energy:  -289.32181341797514

   => Energetics <=

    Nuclear Repulsion Energy =            325.1736153344857598
    One-Electron Energy =               -1035.2251455950890886
    Two-Electron Energy =                 420.7297168426282497
    Total Energy =                       -289.3218134179751360
  Basis Set: (AUG-CC-PVTZ AUX)
    Blend: AUG-CC-PVTZ-RI
    Molecular point group: c1

    Geometry (in Angstrom), charge = 0, multiplicity = 1:

       Center              X                  Y                   Z               Mass
    ------------   -----------------  -----------------  -----------------  -----------------
         N            2.713235662336     0.320952155600    -0.124391381413    14.003074004430
         C            0.297553662336    -0.215290844400     0.467146618587    12.000000000000
         C           -0.269418337664     1.139198155600    -0.006575381413    12.000000000000
         C           -0.850519337664    -1.238835844400     0.244504618587    12.000000000000
         C           -1.786695337664     0.977697155600     0.099442618587    12.000000000000
         C           -2.000737337664    -0.449853844400    -0.404535381413    12.000000000000
         C            1.587791662336    -0.607778844400    -0.255326381413    12.000000000000
         H            0.521583662336    -0.147904844400     1.541240618587     1.007825032230
         H            0.000451662336     1.305041155600    -1.059643381413     1.007825032230
         H            0.117976662336     1.988140155600     0.566335618587     1.007825032230
         H           -1.174108337664    -1.660263844400     1.202186618587     1.007825032230
         H           -0.526235337664    -2.081798844400    -0.376994381413     1.007825032230
         H           -2.344072337664     1.729912155600    -0.468629381413     1.007825032230
         H           -2.084631337664     1.051147255600     1.100702318587     1.007825032230
         H           -2.987193337664    -0.857918844400    -0.161889381413     1.007825032230
         H           -1.900865337664    -0.465702844400    -1.496585381413     1.007825032230
         H            1.372488662336    -0.719260844400    -1.326169381413     1.007825032230
         H            1.925119662336    -1.589436844400     0.098629618587     1.007825032230
         H            2.925272662336     0.453577155600     0.864280618587     1.007825032230
         H            2.438300662336     1.236626155600    -0.477529381413     1.007825032230

  Basis Set: AUG-CC-PVTZ
    Blend: AUG-CC-PVTZ
  Basis Set: (AUG-CC-PVTZ AUX)
    Blend: AUG-CC-PVTZ-JKFIT
	 Reference Energy          =    -289.3218134179751360 [Eh]
	 Singles Energy            =      -0.0000000000000000 [Eh]
	 Same-Spin Energy          =      -0.3126081111105146 [Eh]
	 Opposite-Spin Energy      =      -1.0970387520876683 [Eh]
	 Correlation Energy        =      -1.4096468631981829 [Eh]
	 Total Energy              =    -290.7314602811733266 [Eh]

	 ================> DF-SCS-MP2 Energies <==================
	-----------------------------------------------------------
	 SCS Same-Spin Scale       =       0.3333333333333333 [-]
	 SCS Opposite-Spin Scale   =       1.2000000000000000 [-]
	 SCS Same-Spin Energy      =      -0.1042027037035049 [Eh]
	 SCS Opposite-Spin Energy  =      -1.3164465025052019 [Eh]
	 SCS Correlation Energy    =      -1.4206492062087068 [Eh]
	 SCS Total Energy          =    -290.7424626241838155 [Eh]
	-----------------------------------------------------------

  Dipole Moment: [D]
     X:    -1.3222      Y:     0.4778      Z:     0.8001     Total:     1.6176

*** Psi4 exiting successfully. Buy a developer a beer!
