                               Psi4 1.4a3.dev225

  ==> Input File <==

--------------------------------------------------------------------------
#psi4
#
memory 32 gb

molecule  {
0 1
  N        2.7287650     0.3187530    -0.1253010
  C        0.3130830    -0.2174900     0.4662370
  C       -0.2538890     1.1369990    -0.0074850
  C       -0.8349900    -1.2410350     0.2435950
  C       -1.7711660     0.9754980     0.0985330
  C       -1.9852080    -0.4520530    -0.4054450
  C        1.6033210    -0.6099780    -0.2562360
  H        0.5371130    -0.1501040     1.5403310
  H        0.0159810     1.3028420    -1.0605530
  H        0.1335060     1.9859410     0.5654260
  H       -1.1585790    -1.6624630     1.2012770
  H       -0.5254951    -2.0455543    -0.3495603
  H       -2.3285430     1.7277130    -0.4695390
  H       -2.0833270     1.0524550     1.1475980
  H       -2.9716640    -0.8601180    -0.1627990
  H       -1.8853360    -0.4679020    -1.4974950
  H        1.3880180    -0.7214600    -1.3270790
  H        1.9406490    -1.5916360     0.0977200
  H        2.9408020     0.4513780     0.8633710
  H        2.4538300     1.2344270    -0.4784390
units angstrom
no_reorient  #important for SAPT in psi4, default
symmetry c1  #important for SAPT in psi4, default
}

set PROPERTIES_ORIGIN ["COM"]
properties('MP2/aug-cc-pvtz', properties = ['dipole'])
--------------------------------------------------------------------------

    Molecular point group: c1
  Charge       = 0
  Multiplicity = 1
  Basis Set: AUG-CC-PVTZ
    Blend: AUG-CC-PVTZ
  Basis Set: (AUG-CC-PVTZ AUX)
    Blend: AUG-CC-PVTZ-JKFIT

    Orbital Energies [Eh]
    ---------------------

    Doubly Occupied:

       1A    -15.537012     2A    -11.242408     3A    -11.219441
       4A    -11.216749     5A    -11.216193     6A    -11.215562
       7A    -11.209522     8A     -1.177324     9A     -1.117912
      10A     -0.982826    11A     -0.963208    12A     -0.865405
      13A     -0.782736    14A     -0.758972    15A     -0.668303
      16A     -0.647875    17A     -0.643599    18A     -0.580640
      19A     -0.573277    20A     -0.559836    21A     -0.518050
      22A     -0.492124    23A     -0.478645    24A     -0.468706
      25A     -0.465135    26A     -0.454950    27A     -0.444755
      28A     -0.382047

  @DF-RHF Final Energy:  -289.32193409403521

   => Energetics <=

    Nuclear Repulsion Energy =            325.1758504114030757
    One-Electron Energy =               -1035.2291416708590077
    Two-Electron Energy =                 420.7313571654207180
    Total Energy =                       -289.3219340940352140
  Basis Set: (AUG-CC-PVTZ AUX)
    Blend: AUG-CC-PVTZ-RI
    Molecular point group: c1

    Geometry (in Angstrom), charge = 0, multiplicity = 1:

       Center              X                  Y                   Z               Mass
    ------------   -----------------  -----------------  -----------------  -----------------
         N            2.713530715012     0.320525547958    -0.125165762359    14.003074004430
         C            0.297848715012    -0.215717452042     0.466372237641    12.000000000000
         C           -0.269123284988     1.138771547958    -0.007349762359    12.000000000000
         C           -0.850224284988    -1.239262452042     0.243730237641    12.000000000000
         C           -1.786400284988     0.977270547958     0.098668237641    12.000000000000
         C           -2.000442284988    -0.450280452042    -0.405309762359    12.000000000000
         C            1.588086715012    -0.608205452042    -0.256100762359    12.000000000000
         H            0.521878715012    -0.148331452042     1.540466237641     1.007825032230
         H            0.000746715012     1.304614547958    -1.060417762359     1.007825032230
         H            0.118271715012     1.987713547958     0.565561237641     1.007825032230
         H           -1.173813284988    -1.660690452042     1.201412237641     1.007825032230
         H           -0.540729384988    -2.043781752042    -0.349425062359     1.007825032230
         H           -2.343777284988     1.729485547958    -0.469403762359     1.007825032230
         H           -2.098561284988     1.054227547958     1.147733237641     1.007825032230
         H           -2.986898284988    -0.858345452042    -0.162663762359     1.007825032230
         H           -1.900570284988    -0.466129452042    -1.497359762359     1.007825032230
         H            1.372783715012    -0.719687452042    -1.326943762359     1.007825032230
         H            1.925414715012    -1.589863452042     0.097855237641     1.007825032230
         H            2.925567715012     0.453150547958     0.863506237641     1.007825032230
         H            2.438595715012     1.236199547958    -0.478303762359     1.007825032230

  Basis Set: AUG-CC-PVTZ
    Blend: AUG-CC-PVTZ
  Basis Set: (AUG-CC-PVTZ AUX)
    Blend: AUG-CC-PVTZ-JKFIT
	 Reference Energy          =    -289.3219340940352140 [Eh]
	 Singles Energy            =      -0.0000000000000000 [Eh]
	 Same-Spin Energy          =      -0.3125709313489889 [Eh]
	 Opposite-Spin Energy      =      -1.0969808636175289 [Eh]
	 Correlation Energy        =      -1.4095517949665179 [Eh]
	 Total Energy              =    -290.7314858890017604 [Eh]

	 ================> DF-SCS-MP2 Energies <==================
	-----------------------------------------------------------
	 SCS Same-Spin Scale       =       0.3333333333333333 [-]
	 SCS Opposite-Spin Scale   =       1.2000000000000000 [-]
	 SCS Same-Spin Energy      =      -0.1041903104496630 [Eh]
	 SCS Opposite-Spin Energy  =      -1.3163770363410345 [Eh]
	 SCS Correlation Energy    =      -1.4205673467906974 [Eh]
	 SCS Total Energy          =    -290.7425014408258903 [Eh]
	-----------------------------------------------------------

  Dipole Moment: [D]
     X:    -1.2988      Y:     0.4360      Z:     0.7587     Total:     1.5661

*** Psi4 exiting successfully. Buy a developer a beer!
