                               Psi4 1.4a3.dev225

  ==> Input File <==

--------------------------------------------------------------------------
#psi4
#
memory 32 gb

molecule  {
0 1
  N        2.7287650     0.3187530    -0.1253010
  C        0.3130830    -0.2174900     0.4662370
  C       -0.2538890     1.1369990    -0.0074850
  C       -0.8349900    -1.2410350     0.2435950
  C       -1.7711660     0.9754980     0.0985330
  C       -1.9852080    -0.4520530    -0.4054450
  C        1.6033210    -0.6099780    -0.2562360
  H        0.5371130    -0.1501040     1.5403310
  H        0.0159810     1.3028420    -1.0605530
  H        0.1335060     1.9859410     0.5654260
  H       -1.1585790    -1.6624630     1.2012770
  H       -0.5107060    -2.0839980    -0.3779040
  H       -2.3285430     1.7277130    -0.4695390
  H       -2.0264269     1.0384274     0.9563766
  H       -2.9716640    -0.8601180    -0.1627990
  H       -1.8853360    -0.4679020    -1.4974950
  H        1.3880180    -0.7214600    -1.3270790
  H        1.9406490    -1.5916360     0.0977200
  H        2.9408020     0.4513780     0.8633710
  H        2.4538300     1.2344270    -0.4784390
units angstrom
no_reorient  #important for SAPT in psi4, default
symmetry c1  #important for SAPT in psi4, default
}

set PROPERTIES_ORIGIN ["COM"]
properties('MP2/aug-cc-pvtz', properties = ['dipole'])
--------------------------------------------------------------------------

    Molecular point group: c1
  Charge       = 0
  Multiplicity = 1
  Basis Set: AUG-CC-PVTZ
    Blend: AUG-CC-PVTZ
  Basis Set: (AUG-CC-PVTZ AUX)
    Blend: AUG-CC-PVTZ-JKFIT

    Orbital Energies [Eh]
    ---------------------

    Doubly Occupied:

       1A    -15.536622     2A    -11.242008     3A    -11.219566
       4A    -11.215507     5A    -11.215120     6A    -11.214337
       7A    -11.190843     8A     -1.177057     9A     -1.121488
      10A     -0.990235    11A     -0.962067    12A     -0.868216
      13A     -0.803143    14A     -0.755176    15A     -0.667841
      16A     -0.653249    17A     -0.640450    18A     -0.593144
      19A     -0.572117    20A     -0.559671    21A     -0.517689
      22A     -0.493055    23A     -0.478598    24A     -0.475856
      25A     -0.465156    26A     -0.454266    27A     -0.444066
      28A     -0.381720

  @DF-RHF Final Energy:  -289.28963717441530

   => Energetics <=

    Nuclear Repulsion Energy =            325.9888902736419709
    One-Electron Energy =               -1036.7405316473573293
    Two-Electron Energy =                 421.4620041992999973
    Total Energy =                       -289.2896371744153043
  Basis Set: (AUG-CC-PVTZ AUX)
    Blend: AUG-CC-PVTZ-RI
    Molecular point group: c1

    Geometry (in Angstrom), charge = 0, multiplicity = 1:

       Center              X                  Y                   Z               Mass
    ------------   -----------------  -----------------  -----------------  -----------------
         N            2.712801687047     0.321059143605    -0.122932942100    14.003074004430
         C            0.297119687047    -0.215183856395     0.468605057900    12.000000000000
         C           -0.269852312953     1.139305143605    -0.005116942100    12.000000000000
         C           -0.850953312953    -1.238728856395     0.245963057900    12.000000000000
         C           -1.787129312953     0.977804143605     0.100901057900    12.000000000000
         C           -2.001171312953    -0.449746856395    -0.403076942100    12.000000000000
         C            1.587357687047    -0.607671856395    -0.253867942100    12.000000000000
         H            0.521149687047    -0.147797856395     1.542699057900     1.007825032230
         H            0.000017687047     1.305148143605    -1.058184942100     1.007825032230
         H            0.117542687047     1.988247143605     0.567794057900     1.007825032230
         H           -1.174542312953    -1.660156856395     1.203645057900     1.007825032230
         H           -0.526669312953    -2.081691856395    -0.375535942100     1.007825032230
         H           -2.344506312953     1.730019143605    -0.467170942100     1.007825032230
         H           -2.042390212953     1.040733543605     0.958744657900     1.007825032230
         H           -2.987627312953    -0.857811856395    -0.160430942100     1.007825032230
         H           -1.901299312953    -0.465595856395    -1.495126942100     1.007825032230
         H            1.372054687047    -0.719153856395    -1.324710942100     1.007825032230
         H            1.924685687047    -1.589329856395     0.100088057900     1.007825032230
         H            2.924838687047     0.453684143605     0.865739057900     1.007825032230
         H            2.437866687047     1.236733143605    -0.476070942100     1.007825032230

  Basis Set: AUG-CC-PVTZ
    Blend: AUG-CC-PVTZ
  Basis Set: (AUG-CC-PVTZ AUX)
    Blend: AUG-CC-PVTZ-JKFIT
	 Reference Energy          =    -289.2896371744153043 [Eh]
	 Singles Energy            =      -0.0000000000000000 [Eh]
	 Same-Spin Energy          =      -0.3126920846968255 [Eh]
	 Opposite-Spin Energy      =      -1.0967031979851418 [Eh]
	 Correlation Energy        =      -1.4093952826819673 [Eh]
	 Total Energy              =    -290.6990324570972462 [Eh]

	 ================> DF-SCS-MP2 Energies <==================
	-----------------------------------------------------------
	 SCS Same-Spin Scale       =       0.3333333333333333 [-]
	 SCS Opposite-Spin Scale   =       1.2000000000000000 [-]
	 SCS Same-Spin Energy      =      -0.1042306948989418 [Eh]
	 SCS Opposite-Spin Energy  =      -1.3160438375821701 [Eh]
	 SCS Correlation Energy    =      -1.4202745324811119 [Eh]
	 SCS Total Energy          =    -290.7099117068964347 [Eh]
	-----------------------------------------------------------

  Dipole Moment: [D]
     X:    -1.3554      Y:     0.4960      Z:     0.8652     Total:     1.6828

*** Psi4 exiting successfully. Buy a developer a beer!
