                               Psi4 1.4a3.dev225

  ==> Input File <==

--------------------------------------------------------------------------
#psi4
#
memory 32 gb

molecule  {
0 1
  N        2.7287650     0.3187530    -0.1253010
  C        0.3130830    -0.2174900     0.4662370
  C       -0.2538890     1.1369990    -0.0074850
  C       -0.9088629    -1.3068951     0.2292691
  C       -1.7711660     0.9754980     0.0985330
  C       -1.9852080    -0.4520530    -0.4054450
  C        1.6033210    -0.6099780    -0.2562360
  H        0.5371130    -0.1501040     1.5403310
  H        0.0159810     1.3028420    -1.0605530
  H        0.1335060     1.9859410     0.5654260
  H       -1.1585790    -1.6624630     1.2012770
  H       -0.5107060    -2.0839980    -0.3779040
  H       -2.3285430     1.7277130    -0.4695390
  H       -2.0833270     1.0524550     1.1475980
  H       -2.9716640    -0.8601180    -0.1627990
  H       -1.8853360    -0.4679020    -1.4974950
  H        1.3880180    -0.7214600    -1.3270790
  H        1.9406490    -1.5916360     0.0977200
  H        2.9408020     0.4513780     0.8633710
  H        2.4538300     1.2344270    -0.4784390
units angstrom
no_reorient  #important for SAPT in psi4, default
symmetry c1  #important for SAPT in psi4, default
}

set PROPERTIES_ORIGIN ["COM"]
properties('MP2/aug-cc-pvtz', properties = ['dipole'])
--------------------------------------------------------------------------

    Molecular point group: c1
  Charge       = 0
  Multiplicity = 1
  Basis Set: AUG-CC-PVTZ
    Blend: AUG-CC-PVTZ
  Basis Set: (AUG-CC-PVTZ AUX)
    Blend: AUG-CC-PVTZ-JKFIT

    Orbital Energies [Eh]
    ---------------------

    Doubly Occupied:

       1A    -15.536702     2A    -11.241748     3A    -11.223050
       4A    -11.217630     5A    -11.216452     6A    -11.215713
       7A    -11.214310     8A     -1.175857     9A     -1.112716
      10A     -0.977650    11A     -0.965701    12A     -0.863567
      13A     -0.782233    14A     -0.758060    15A     -0.665979
      16A     -0.647825    17A     -0.639853    18A     -0.582109
      19A     -0.577758    20A     -0.557840    21A     -0.516884
      22A     -0.494680    23A     -0.482977    24A     -0.471177
      25A     -0.465575    26A     -0.449001    27A     -0.435410
      28A     -0.378520

  @DF-RHF Final Energy:  -289.31564248824998

   => Energetics <=

    Nuclear Repulsion Energy =            323.6952606025643036
    One-Electron Energy =               -1032.2878521707998516
    Two-Electron Energy =                 419.2769490799855703
    Total Energy =                       -289.3156424882499778
  Basis Set: (AUG-CC-PVTZ AUX)
    Blend: AUG-CC-PVTZ-RI
    Molecular point group: c1

    Geometry (in Angstrom), charge = 0, multiplicity = 1:

       Center              X                  Y                   Z               Mass
    ------------   -----------------  -----------------  -----------------  -----------------
         N            2.722325142526     0.328891093602    -0.123142890697    14.003074004430
         C            0.306643142526    -0.207351906398     0.468395109303    12.000000000000
         C           -0.260328857474     1.147137093602    -0.005326890697    12.000000000000
         C           -0.915302757474    -1.296757006398     0.231427209303    12.000000000000
         C           -1.777605857474     0.985636093602     0.100691109303    12.000000000000
         C           -1.991647857474    -0.441914906398    -0.403286890697    12.000000000000
         C            1.596881142526    -0.599839906398    -0.254077890697    12.000000000000
         H            0.530673142526    -0.139965906398     1.542489109303     1.007825032230
         H            0.009541142526     1.312980093602    -1.058394890697     1.007825032230
         H            0.127066142526     1.996079093602     0.567584109303     1.007825032230
         H           -1.165018857474    -1.652324906398     1.203435109303     1.007825032230
         H           -0.517145857474    -2.073859906398    -0.375745890697     1.007825032230
         H           -2.334982857474     1.737851093602    -0.467380890697     1.007825032230
         H           -2.089766857474     1.062593093602     1.149756109303     1.007825032230
         H           -2.978103857474    -0.849979906398    -0.160640890697     1.007825032230
         H           -1.891775857474    -0.457763906398    -1.495336890697     1.007825032230
         H            1.381578142526    -0.711321906398    -1.324920890697     1.007825032230
         H            1.934209142526    -1.581497906398     0.099878109303     1.007825032230
         H            2.934362142526     0.461516093602     0.865529109303     1.007825032230
         H            2.447390142526     1.244565093602    -0.476280890697     1.007825032230

  Basis Set: AUG-CC-PVTZ
    Blend: AUG-CC-PVTZ
  Basis Set: (AUG-CC-PVTZ AUX)
    Blend: AUG-CC-PVTZ-JKFIT
	 Reference Energy          =    -289.3156424882499778 [Eh]
	 Singles Energy            =      -0.0000000000000000 [Eh]
	 Same-Spin Energy          =      -0.3125606481137321 [Eh]
	 Opposite-Spin Energy      =      -1.0975991962533855 [Eh]
	 Correlation Energy        =      -1.4101598443671177 [Eh]
	 Total Energy              =    -290.7258023326170928 [Eh]

	 ================> DF-SCS-MP2 Energies <==================
	-----------------------------------------------------------
	 SCS Same-Spin Scale       =       0.3333333333333333 [-]
	 SCS Opposite-Spin Scale   =       1.2000000000000000 [-]
	 SCS Same-Spin Energy      =      -0.1041868827045773 [Eh]
	 SCS Opposite-Spin Energy  =      -1.3171190355040625 [Eh]
	 SCS Correlation Energy    =      -1.4213059182086398 [Eh]
	 SCS Total Energy          =    -290.7369484064586231 [Eh]
	-----------------------------------------------------------

  Dipole Moment: [D]
     X:    -1.2964      Y:     0.4708      Z:     0.7684     Total:     1.5788

*** Psi4 exiting successfully. Buy a developer a beer!
