                               Psi4 1.4a3.dev225

  ==> Input File <==

--------------------------------------------------------------------------
#psi4
#
memory 32 gb

molecule  {
0 1
  N        2.7287650     0.3187530    -0.1253010
  C        0.3130830    -0.2174900     0.4662370
  C       -0.2538890     1.1369990    -0.0074850
  C       -0.8349900    -1.2410350     0.2435950
  C       -1.7711660     0.9754980     0.0985330
  C       -1.9852080    -0.4520530    -0.4054450
  C        1.6876534    -0.6356318    -0.3034582
  H        0.5371130    -0.1501040     1.5403310
  H        0.0159810     1.3028420    -1.0605530
  H        0.1335060     1.9859410     0.5654260
  H       -1.1585790    -1.6624630     1.2012770
  H       -0.5107060    -2.0839980    -0.3779040
  H       -2.3285430     1.7277130    -0.4695390
  H       -2.0833270     1.0524550     1.1475980
  H       -2.9716640    -0.8601180    -0.1627990
  H       -1.8853360    -0.4679020    -1.4974950
  H        1.3880180    -0.7214600    -1.3270790
  H        1.9406490    -1.5916360     0.0977200
  H        2.9408020     0.4513780     0.8633710
  H        2.4538300     1.2344270    -0.4784390
units angstrom
no_reorient  #important for SAPT in psi4, default
symmetry c1  #important for SAPT in psi4, default
}

set PROPERTIES_ORIGIN ["COM"]
properties('MP2/aug-cc-pvtz', properties = ['dipole'])
--------------------------------------------------------------------------

    Molecular point group: c1
  Charge       = 0
  Multiplicity = 1
  Basis Set: AUG-CC-PVTZ
    Blend: AUG-CC-PVTZ
  Basis Set: (AUG-CC-PVTZ AUX)
    Blend: AUG-CC-PVTZ-JKFIT

    Orbital Energies [Eh]
    ---------------------

    Doubly Occupied:

       1A    -15.536911     2A    -11.241830     3A    -11.219800
       4A    -11.215752     5A    -11.215168     6A    -11.214631
       7A    -11.213446     8A     -1.184796     9A     -1.115410
      10A     -0.971055    11A     -0.958813    12A     -0.868622
      13A     -0.780367    14A     -0.752034    15A     -0.673598
      16A     -0.648542    17A     -0.638072    18A     -0.588854
      19A     -0.569626    20A     -0.561679    21A     -0.521471
      22A     -0.493426    23A     -0.476628    24A     -0.467083
      25A     -0.462574    26A     -0.454352    27A     -0.447243
      28A     -0.363236

  @DF-RHF Final Energy:  -289.31593163422599

   => Energetics <=

    Nuclear Repulsion Energy =            323.8645422875364375
    One-Electron Energy =               -1032.6509164362419142
    Two-Electron Energy =                 419.4704425144794868
    Total Energy =                       -289.3159316342259899
  Basis Set: (AUG-CC-PVTZ AUX)
    Blend: AUG-CC-PVTZ-RI
    Molecular point group: c1

    Geometry (in Angstrom), charge = 0, multiplicity = 1:

       Center              X                  Y                   Z               Mass
    ------------   -----------------  -----------------  -----------------  -----------------
         N            2.703169020814     0.324022756218    -0.119159676945    14.003074004430
         C            0.287487020814    -0.212220243782     0.472378323055    12.000000000000
         C           -0.279484979186     1.142268756218    -0.001343676945    12.000000000000
         C           -0.860585979186    -1.235765243782     0.249736323055    12.000000000000
         C           -1.796761979186     0.980767756218     0.104674323055    12.000000000000
         C           -2.010803979186    -0.446783243782    -0.399303676945    12.000000000000
         C            1.662057420814    -0.630362043782    -0.297316876945    12.000000000000
         H            0.511517020814    -0.144834243782     1.546472323055     1.007825032230
         H           -0.009614979186     1.308111756218    -1.054411676945     1.007825032230
         H            0.107910020814     1.991210756218     0.571567323055     1.007825032230
         H           -1.184174979186    -1.657193243782     1.207418323055     1.007825032230
         H           -0.536301979186    -2.078728243782    -0.371762676945     1.007825032230
         H           -2.354138979186     1.732982756218    -0.463397676945     1.007825032230
         H           -2.108922979186     1.057724756218     1.153739323055     1.007825032230
         H           -2.997259979186    -0.854848243782    -0.156657676945     1.007825032230
         H           -1.910931979186    -0.462632243782    -1.491353676945     1.007825032230
         H            1.362422020814    -0.716190243782    -1.320937676945     1.007825032230
         H            1.915053020814    -1.586366243782     0.103861323055     1.007825032230
         H            2.915206020814     0.456647756218     0.869512323055     1.007825032230
         H            2.428234020814     1.239696756218    -0.472297676945     1.007825032230

  Basis Set: AUG-CC-PVTZ
    Blend: AUG-CC-PVTZ
  Basis Set: (AUG-CC-PVTZ AUX)
    Blend: AUG-CC-PVTZ-JKFIT
	 Reference Energy          =    -289.3159316342259899 [Eh]
	 Singles Energy            =      -0.0000000000000000 [Eh]
	 Same-Spin Energy          =      -0.3125018368477837 [Eh]
	 Opposite-Spin Energy      =      -1.0970750773345896 [Eh]
	 Correlation Energy        =      -1.4095769141823733 [Eh]
	 Total Energy              =    -290.7255085484083565 [Eh]

	 ================> DF-SCS-MP2 Energies <==================
	-----------------------------------------------------------
	 SCS Same-Spin Scale       =       0.3333333333333333 [-]
	 SCS Opposite-Spin Scale   =       1.2000000000000000 [-]
	 SCS Same-Spin Energy      =      -0.1041672789492612 [Eh]
	 SCS Opposite-Spin Energy  =      -1.3164900928015075 [Eh]
	 SCS Correlation Energy    =      -1.4206573717507687 [Eh]
	 SCS Total Energy          =    -290.7365890059767821 [Eh]
	-----------------------------------------------------------

  Dipole Moment: [D]
     X:    -1.1083      Y:     0.4691      Z:     0.7258     Total:     1.4054

*** Psi4 exiting successfully. Buy a developer a beer!
