                               Psi4 1.4a3.dev225

  ==> Input File <==

--------------------------------------------------------------------------
#psi4
#
memory 32 gb

molecule  {
0 1
  N        2.7287650     0.3187530    -0.1253010
  C        0.3130830    -0.2174900     0.4662370
  C       -0.2538890     1.1369990    -0.0074850
  C       -0.8349900    -1.2410350     0.2435950
  C       -1.7711660     0.9754980     0.0985330
  C       -1.9852080    -0.4520530    -0.4054450
  C        1.6033210    -0.6099780    -0.2562360
  H        0.5371130    -0.1501040     1.5403310
  H        0.0159810     1.3028420    -1.0605530
  H        0.1335060     1.9859410     0.5654260
  H       -1.1585790    -1.6624630     1.2012770
  H       -0.5698624    -1.9302233    -0.2645291
  H       -2.3285430     1.7277130    -0.4695390
  H       -2.0833270     1.0524550     1.1475980
  H       -2.9716640    -0.8601180    -0.1627990
  H       -1.8853360    -0.4679020    -1.4974950
  H        1.3880180    -0.7214600    -1.3270790
  H        1.9406490    -1.5916360     0.0977200
  H        2.9408020     0.4513780     0.8633710
  H        2.4538300     1.2344270    -0.4784390
units angstrom
no_reorient  #important for SAPT in psi4, default
symmetry c1  #important for SAPT in psi4, default
}

set PROPERTIES_ORIGIN ["COM"]
properties('MP2/aug-cc-pvtz', properties = ['dipole'])
--------------------------------------------------------------------------

    Molecular point group: c1
  Charge       = 0
  Multiplicity = 1
  Basis Set: AUG-CC-PVTZ
    Blend: AUG-CC-PVTZ
  Basis Set: (AUG-CC-PVTZ AUX)
    Blend: AUG-CC-PVTZ-JKFIT

    Orbital Energies [Eh]
    ---------------------

    Doubly Occupied:

       1A    -15.537109     2A    -11.242529     3A    -11.218278
       4A    -11.215920     5A    -11.215332     6A    -11.214574
       7A    -11.190505     8A     -1.177510     9A     -1.119717
      10A     -0.985141    11A     -0.971413    12A     -0.868384
      13A     -0.786306    14A     -0.768681    15A     -0.668193
      16A     -0.651587    17A     -0.646707    18A     -0.581786
      19A     -0.576630    20A     -0.562647    21A     -0.517989
      22A     -0.495886    23A     -0.480371    24A     -0.469265
      25A     -0.465898    26A     -0.454801    27A     -0.444492
      28A     -0.381914

  @DF-RHF Final Energy:  -289.28992834446069

   => Energetics <=

    Nuclear Repulsion Energy =            325.9995691940146685
    One-Electron Energy =               -1036.7598655244012207
    Two-Electron Energy =                 421.4703679859259182
    Total Energy =                       -289.2899283444606908
  Basis Set: (AUG-CC-PVTZ AUX)
    Blend: AUG-CC-PVTZ-RI
    Molecular point group: c1

    Geometry (in Angstrom), charge = 0, multiplicity = 1:

       Center              X                  Y                   Z               Mass
    ------------   -----------------  -----------------  -----------------  -----------------
         N            2.713981898767     0.319352714054    -0.126030468937    14.003074004430
         C            0.298299898767    -0.216890285946     0.465507531063    12.000000000000
         C           -0.268672101233     1.137598714054    -0.008214468937    12.000000000000
         C           -0.849773101233    -1.240435285946     0.242865531063    12.000000000000
         C           -1.785949101233     0.976097714054     0.097803531063    12.000000000000
         C           -1.999991101233    -0.451453285946    -0.406174468937    12.000000000000
         C            1.588537898767    -0.609378285946    -0.256965468937    12.000000000000
         H            0.522329898767    -0.149504285946     1.539601531063     1.007825032230
         H            0.001197898767     1.303441714054    -1.061282468937     1.007825032230
         H            0.118722898767     1.986540714054     0.564696531063     1.007825032230
         H           -1.173362101233    -1.661863285946     1.200547531063     1.007825032230
         H           -0.584645501233    -1.929623585946    -0.265258568937     1.007825032230
         H           -2.343326101233     1.728312714054    -0.470268468937     1.007825032230
         H           -2.098110101233     1.053054714054     1.146868531063     1.007825032230
         H           -2.986447101233    -0.859518285946    -0.163528468937     1.007825032230
         H           -1.900119101233    -0.467302285946    -1.498224468937     1.007825032230
         H            1.373234898767    -0.720860285946    -1.327808468937     1.007825032230
         H            1.925865898767    -1.591036285946     0.096990531063     1.007825032230
         H            2.926018898767     0.451977714054     0.862641531063     1.007825032230
         H            2.439046898767     1.235026714054    -0.479168468937     1.007825032230

  Basis Set: AUG-CC-PVTZ
    Blend: AUG-CC-PVTZ
  Basis Set: (AUG-CC-PVTZ AUX)
    Blend: AUG-CC-PVTZ-JKFIT
	 Reference Energy          =    -289.2899283444606908 [Eh]
	 Singles Energy            =      -0.0000000000000000 [Eh]
	 Same-Spin Energy          =      -0.3125549844881247 [Eh]
	 Opposite-Spin Energy      =      -1.0964595052478185 [Eh]
	 Correlation Energy        =      -1.4090144897359433 [Eh]
	 Total Energy              =    -290.6989428341966573 [Eh]

	 ================> DF-SCS-MP2 Energies <==================
	-----------------------------------------------------------
	 SCS Same-Spin Scale       =       0.3333333333333333 [-]
	 SCS Opposite-Spin Scale   =       1.2000000000000000 [-]
	 SCS Same-Spin Energy      =      -0.1041849948293749 [Eh]
	 SCS Opposite-Spin Energy  =      -1.3157514062973823 [Eh]
	 SCS Correlation Energy    =      -1.4199364011267572 [Eh]
	 SCS Total Energy          =    -290.7098647455874243 [Eh]
	-----------------------------------------------------------

  Dipole Moment: [D]
     X:    -1.2811      Y:     0.3622      Z:     0.7384     Total:     1.5224

*** Psi4 exiting successfully. Buy a developer a beer!
