                               Psi4 1.4a3.dev225

  ==> Input File <==

--------------------------------------------------------------------------
#psi4
#
memory 32 gb

molecule  {
0 1
  N        2.7287650     0.3187530    -0.1253010
  C        0.3130830    -0.2174900     0.4662370
  C       -0.2538890     1.1369990    -0.0074850
  C       -0.7980535    -1.2081049     0.2507580
  C       -1.7711660     0.9754980     0.0985330
  C       -1.9852080    -0.4520530    -0.4054450
  C        1.6033210    -0.6099780    -0.2562360
  H        0.5371130    -0.1501040     1.5403310
  H        0.0159810     1.3028420    -1.0605530
  H        0.1335060     1.9859410     0.5654260
  H       -1.1585790    -1.6624630     1.2012770
  H       -0.5107060    -2.0839980    -0.3779040
  H       -2.3285430     1.7277130    -0.4695390
  H       -2.0833270     1.0524550     1.1475980
  H       -2.9716640    -0.8601180    -0.1627990
  H       -1.8853360    -0.4679020    -1.4974950
  H        1.3880180    -0.7214600    -1.3270790
  H        1.9406490    -1.5916360     0.0977200
  H        2.9408020     0.4513780     0.8633710
  H        2.4538300     1.2344270    -0.4784390
units angstrom
no_reorient  #important for SAPT in psi4, default
symmetry c1  #important for SAPT in psi4, default
}

set PROPERTIES_ORIGIN ["COM"]
properties('MP2/aug-cc-pvtz', properties = ['dipole'])
--------------------------------------------------------------------------

    Molecular point group: c1
  Charge       = 0
  Multiplicity = 1
  Basis Set: AUG-CC-PVTZ
    Blend: AUG-CC-PVTZ
  Basis Set: (AUG-CC-PVTZ AUX)
    Blend: AUG-CC-PVTZ-JKFIT

    Orbital Energies [Eh]
    ---------------------

    Doubly Occupied:

       1A    -15.537171     2A    -11.242815     3A    -11.218223
       4A    -11.217485     5A    -11.217250     6A    -11.216795
       7A    -11.216167     8A     -1.178328     9A     -1.120986
      10A     -0.986640    11A     -0.958240    12A     -0.865781
      13A     -0.783429    14A     -0.754049    15A     -0.670042
      16A     -0.648908    17A     -0.642023    18A     -0.581445
      19A     -0.569193    20A     -0.558519    21A     -0.519985
      22A     -0.494030    23A     -0.477898    24A     -0.467156
      25A     -0.461068    26A     -0.459162    27A     -0.441117
      28A     -0.382918

  @DF-RHF Final Energy:  -289.32000596106451

   => Energetics <=

    Nuclear Repulsion Energy =            325.5725502673990377
    One-Electron Energy =               -1036.0114666526708334
    Two-Electron Energy =                 421.1189104242072858
    Total Energy =                       -289.3200059610645098
  Basis Set: (AUG-CC-PVTZ AUX)
    Blend: AUG-CC-PVTZ-RI
    Molecular point group: c1

    Geometry (in Angstrom), charge = 0, multiplicity = 1:

       Center              X                  Y                   Z               Mass
    ------------   -----------------  -----------------  -----------------  -----------------
         N            2.708907903324     0.316929186541    -0.125744851465    14.003074004430
         C            0.293225903324    -0.219313813459     0.465793148535    12.000000000000
         C           -0.273746096676     1.135175186541    -0.007928851465    12.000000000000
         C           -0.817910596676    -1.209928713459     0.250314148535    12.000000000000
         C           -1.791023096676     0.973674186541     0.098089148535    12.000000000000
         C           -2.005065096676    -0.453876813459    -0.405888851465    12.000000000000
         C            1.583463903324    -0.611801813459    -0.256679851465    12.000000000000
         H            0.517255903324    -0.151927813459     1.539887148535     1.007825032230
         H           -0.003876096676     1.301018186541    -1.060996851465     1.007825032230
         H            0.113648903324     1.984117186541     0.564982148535     1.007825032230
         H           -1.178436096676    -1.664286813459     1.200833148535     1.007825032230
         H           -0.530563096676    -2.085821813459    -0.378347851465     1.007825032230
         H           -2.348400096676     1.725889186541    -0.469982851465     1.007825032230
         H           -2.103184096676     1.050631186541     1.147154148535     1.007825032230
         H           -2.991521096676    -0.861941813459    -0.163242851465     1.007825032230
         H           -1.905193096676    -0.469725813459    -1.497938851465     1.007825032230
         H            1.368160903324    -0.723283813459    -1.327522851465     1.007825032230
         H            1.920791903324    -1.593459813459     0.097276148535     1.007825032230
         H            2.920944903324     0.449554186541     0.862927148535     1.007825032230
         H            2.433972903324     1.232603186541    -0.478882851465     1.007825032230

  Basis Set: AUG-CC-PVTZ
    Blend: AUG-CC-PVTZ
  Basis Set: (AUG-CC-PVTZ AUX)
    Blend: AUG-CC-PVTZ-JKFIT
	 Reference Energy          =    -289.3200059610645098 [Eh]
	 Singles Energy            =      -0.0000000000000000 [Eh]
	 Same-Spin Energy          =      -0.3129390914432698 [Eh]
	 Opposite-Spin Energy      =      -1.0976976022203693 [Eh]
	 Correlation Energy        =      -1.4106366936636392 [Eh]
	 Total Energy              =    -290.7306426547281717 [Eh]

	 ================> DF-SCS-MP2 Energies <==================
	-----------------------------------------------------------
	 SCS Same-Spin Scale       =       0.3333333333333333 [-]
	 SCS Opposite-Spin Scale   =       1.2000000000000000 [-]
	 SCS Same-Spin Energy      =      -0.1043130304810899 [Eh]
	 SCS Opposite-Spin Energy  =      -1.3172371226644430 [Eh]
	 SCS Correlation Energy    =      -1.4215501531455330 [Eh]
	 SCS Total Energy          =    -290.7415561142100273 [Eh]
	-----------------------------------------------------------

  Dipole Moment: [D]
     X:    -1.3067      Y:     0.4805      Z:     0.7689     Total:     1.5905

*** Psi4 exiting successfully. Buy a developer a beer!
