                               Psi4 1.4a3.dev225

  ==> Input File <==

--------------------------------------------------------------------------
#psi4
#
memory 32 gb

molecule  {
0 1
  N        2.7287650     0.3187530    -0.1253010
  C        0.3130830    -0.2174900     0.4662370
  C       -0.2538890     1.1369990    -0.0074850
  C       -0.8349900    -1.2410350     0.2435950
  C       -1.7711660     0.9754980     0.0985330
  C       -1.9852080    -0.4520530    -0.4054450
  C        1.6033210    -0.6099780    -0.2562360
  H        0.5371130    -0.1501040     1.5403310
  H        0.0159810     1.3028420    -1.0605530
  H        0.1335060     1.9859410     0.5654260
  H       -1.1438060    -1.6432233     1.1575553
  H       -0.5107060    -2.0839980    -0.3779040
  H       -2.3285430     1.7277130    -0.4695390
  H       -2.0833270     1.0524550     1.1475980
  H       -2.9716640    -0.8601180    -0.1627990
  H       -1.8853360    -0.4679020    -1.4974950
  H        1.3880180    -0.7214600    -1.3270790
  H        1.9406490    -1.5916360     0.0977200
  H        2.9408020     0.4513780     0.8633710
  H        2.4538300     1.2344270    -0.4784390
units angstrom
no_reorient  #important for SAPT in psi4, default
symmetry c1  #important for SAPT in psi4, default
}

set PROPERTIES_ORIGIN ["COM"]
properties('MP2/aug-cc-pvtz', properties = ['dipole'])
--------------------------------------------------------------------------

    Molecular point group: c1
  Charge       = 0
  Multiplicity = 1
  Basis Set: AUG-CC-PVTZ
    Blend: AUG-CC-PVTZ
  Basis Set: (AUG-CC-PVTZ AUX)
    Blend: AUG-CC-PVTZ-JKFIT

    Orbital Energies [Eh]
    ---------------------

    Doubly Occupied:

       1A    -15.536758     2A    -11.242117     3A    -11.219557
       4A    -11.216901     5A    -11.216327     6A    -11.215573
       7A    -11.209438     8A     -1.177116     9A     -1.118078
      10A     -0.982659    11A     -0.963170    12A     -0.865774
      13A     -0.783622    14A     -0.757420    15A     -0.668910
      16A     -0.649227    17A     -0.641155    18A     -0.581967
      19A     -0.574033    20A     -0.558317    21A     -0.517949
      22A     -0.492699    23A     -0.478256    24A     -0.468579
      25A     -0.463866    26A     -0.454532    27A     -0.446332
      28A     -0.382031

  @DF-RHF Final Energy:  -289.32187705535966

   => Energetics <=

    Nuclear Repulsion Energy =            325.1861076060835103
    One-Electron Energy =               -1035.2512396091449318
    Two-Electron Energy =                 420.7432549477017574
    Total Energy =                       -289.3218770553596642
  Basis Set: (AUG-CC-PVTZ AUX)
    Blend: AUG-CC-PVTZ-RI
    Molecular point group: c1

    Geometry (in Angstrom), charge = 0, multiplicity = 1:

       Center              X                  Y                   Z               Mass
    ------------   -----------------  -----------------  -----------------  -----------------
         N            2.713230089568     0.320720838923    -0.124432908709    14.003074004430
         C            0.297548089568    -0.215522161077     0.467105091291    12.000000000000
         C           -0.269423910432     1.138966838923    -0.006616908709    12.000000000000
         C           -0.850524910432    -1.239067161077     0.244463091291    12.000000000000
         C           -1.786700910432     0.977465838923     0.099401091291    12.000000000000
         C           -2.000742910432    -0.450085161077    -0.404576908709    12.000000000000
         C            1.587786089568    -0.608010161077    -0.255367908709    12.000000000000
         H            0.521578089568    -0.148136161077     1.541199091291     1.007825032230
         H            0.000446089568     1.304809838923    -1.059684908709     1.007825032230
         H            0.117971089568     1.987908838923     0.566294091291     1.007825032230
         H           -1.159340910432    -1.641255461077     1.158423391291     1.007825032230
         H           -0.526240910432    -2.082030161077    -0.377035908709     1.007825032230
         H           -2.344077910432     1.729680838923    -0.468670908709     1.007825032230
         H           -2.098861910432     1.054422838923     1.148466091291     1.007825032230
         H           -2.987198910432    -0.858150161077    -0.161930908709     1.007825032230
         H           -1.900870910432    -0.465934161077    -1.496626908709     1.007825032230
         H            1.372483089568    -0.719492161077    -1.326210908709     1.007825032230
         H            1.925114089568    -1.589668161077     0.098588091291     1.007825032230
         H            2.925267089568     0.453345838923     0.864239091291     1.007825032230
         H            2.438295089568     1.236394838923    -0.477570908709     1.007825032230

  Basis Set: AUG-CC-PVTZ
    Blend: AUG-CC-PVTZ
  Basis Set: (AUG-CC-PVTZ AUX)
    Blend: AUG-CC-PVTZ-JKFIT
	 Reference Energy          =    -289.3218770553596642 [Eh]
	 Singles Energy            =      -0.0000000000000000 [Eh]
	 Same-Spin Energy          =      -0.3126019263706158 [Eh]
	 Opposite-Spin Energy      =      -1.0969979576192683 [Eh]
	 Correlation Energy        =      -1.4095998839898840 [Eh]
	 Total Energy              =    -290.7314769393495340 [Eh]

	 ================> DF-SCS-MP2 Energies <==================
	-----------------------------------------------------------
	 SCS Same-Spin Scale       =       0.3333333333333333 [-]
	 SCS Opposite-Spin Scale   =       1.2000000000000000 [-]
	 SCS Same-Spin Energy      =      -0.1042006421235386 [Eh]
	 SCS Opposite-Spin Energy  =      -1.3163975491431219 [Eh]
	 SCS Correlation Energy    =      -1.4205981912666605 [Eh]
	 SCS Total Energy          =    -290.7424752466263271 [Eh]
	-----------------------------------------------------------

  Dipole Moment: [D]
     X:    -1.3175      Y:     0.4475      Z:     0.7936     Total:     1.6018

*** Psi4 exiting successfully. Buy a developer a beer!
