                               Psi4 1.4a3.dev225

  ==> Input File <==

--------------------------------------------------------------------------
#psi4
#
memory 32 gb

molecule  {
0 1
  N        2.7287650     0.3187530    -0.1253010
  C        0.3130830    -0.2174900     0.4662370
  C       -0.2538890     1.1369990    -0.0074850
  C       -0.8349900    -1.2410350     0.2435950
  C       -1.7711660     0.9754980     0.0985330
  C       -1.9852080    -0.4520530    -0.4054450
  C        1.6033210    -0.6099780    -0.2562360
  H        0.5371130    -0.1501040     1.5403310
  H        0.0159810     1.3028420    -1.0605530
  H        0.1335060     1.9859410     0.5654260
  H       -1.1585790    -1.6624630     1.2012770
  H       -0.5402842    -2.0071107    -0.3212166
  H       -2.3285430     1.7277130    -0.4695390
  H       -2.0833270     1.0524550     1.1475980
  H       -2.9716640    -0.8601180    -0.1627990
  H       -1.8853360    -0.4679020    -1.4974950
  H        1.3880180    -0.7214600    -1.3270790
  H        1.9406490    -1.5916360     0.0977200
  H        2.9408020     0.4513780     0.8633710
  H        2.4538300     1.2344270    -0.4784390
units angstrom
no_reorient  #important for SAPT in psi4, default
symmetry c1  #important for SAPT in psi4, default
}

set PROPERTIES_ORIGIN ["COM"]
properties('MP2/aug-cc-pvtz', properties = ['dipole'])
--------------------------------------------------------------------------

    Molecular point group: c1
  Charge       = 0
  Multiplicity = 1
  Basis Set: AUG-CC-PVTZ
    Blend: AUG-CC-PVTZ
  Basis Set: (AUG-CC-PVTZ AUX)
    Blend: AUG-CC-PVTZ-JKFIT

    Orbital Energies [Eh]
    ---------------------

    Doubly Occupied:

       1A    -15.537036     2A    -11.242442     3A    -11.218980
       4A    -11.216423     5A    -11.215853     6A    -11.215165
       7A    -11.203136     8A     -1.177358     9A     -1.118284
      10A     -0.983114    11A     -0.965688    12A     -0.866203
      13A     -0.783312    14A     -0.762325    15A     -0.668228
      16A     -0.648007    17A     -0.645602    18A     -0.580766
      19A     -0.574423    20A     -0.561024    21A     -0.518003
      22A     -0.493233    23A     -0.479278    24A     -0.468863
      25A     -0.465661    26A     -0.454898    27A     -0.444668
      28A     -0.381983

  @DF-RHF Final Energy:  -289.31710276194269

   => Energetics <=

    Nuclear Repulsion Energy =            325.4322752821806262
    One-Electron Energy =               -1035.7188443907352848
    Two-Electron Energy =                 420.9694663466119664
    Total Energy =                       -289.3171027619426923
  Basis Set: (AUG-CC-PVTZ AUX)
    Blend: AUG-CC-PVTZ-RI
    Molecular point group: c1

    Geometry (in Angstrom), charge = 0, multiplicity = 1:

       Center              X                  Y                   Z               Mass
    ------------   -----------------  -----------------  -----------------  -----------------
         N            2.713681109597     0.320134604001    -0.125453997546    14.003074004430
         C            0.297999109597    -0.216108395999     0.466084002454    12.000000000000
         C           -0.268972890403     1.138380604001    -0.007637997546    12.000000000000
         C           -0.850073890403    -1.239653395999     0.243442002454    12.000000000000
         C           -1.786249890403     0.976879604001     0.098380002454    12.000000000000
         C           -2.000291890403    -0.450671395999    -0.405597997546    12.000000000000
         C            1.588237109597    -0.608596395999    -0.256388997546    12.000000000000
         H            0.522029109597    -0.148722395999     1.540178002454     1.007825032230
         H            0.000897109597     1.304223604001    -1.060705997546     1.007825032230
         H            0.118422109597     1.987322604001     0.565273002454     1.007825032230
         H           -1.173662890403    -1.661081395999     1.201124002454     1.007825032230
         H           -0.555368090403    -2.005729095999    -0.321369597546     1.007825032230
         H           -2.343626890403     1.729094604001    -0.469691997546     1.007825032230
         H           -2.098410890403     1.053836604001     1.147445002454     1.007825032230
         H           -2.986747890403    -0.858736395999    -0.162951997546     1.007825032230
         H           -1.900419890403    -0.466520395999    -1.497647997546     1.007825032230
         H            1.372934109597    -0.720078395999    -1.327231997546     1.007825032230
         H            1.925565109597    -1.590254395999     0.097567002454     1.007825032230
         H            2.925718109597     0.452759604001     0.863218002454     1.007825032230
         H            2.438746109597     1.235808604001    -0.478591997546     1.007825032230

  Basis Set: AUG-CC-PVTZ
    Blend: AUG-CC-PVTZ
  Basis Set: (AUG-CC-PVTZ AUX)
    Blend: AUG-CC-PVTZ-JKFIT
	 Reference Energy          =    -289.3171027619426923 [Eh]
	 Singles Energy            =      -0.0000000000000000 [Eh]
	 Same-Spin Energy          =      -0.3125506066535545 [Eh]
	 Opposite-Spin Energy      =      -1.0967144350450866 [Eh]
	 Correlation Energy        =      -1.4092650416986410 [Eh]
	 Total Energy              =    -290.7263678036413239 [Eh]

	 ================> DF-SCS-MP2 Energies <==================
	-----------------------------------------------------------
	 SCS Same-Spin Scale       =       0.3333333333333333 [-]
	 SCS Opposite-Spin Scale   =       1.2000000000000000 [-]
	 SCS Same-Spin Energy      =      -0.1041835355511848 [Eh]
	 SCS Opposite-Spin Energy  =      -1.3160573220541039 [Eh]
	 SCS Correlation Energy    =      -1.4202408576052887 [Eh]
	 SCS Total Energy          =    -290.7373436195479712 [Eh]
	-----------------------------------------------------------

  Dipole Moment: [D]
     X:    -1.2920      Y:     0.4070      Z:     0.7501     Total:     1.5484

*** Psi4 exiting successfully. Buy a developer a beer!
