                               Psi4 1.4a3.dev225

  ==> Input File <==

--------------------------------------------------------------------------
#psi4
#
memory 32 gb

molecule  {
0 1
  N        2.7287650     0.3187530    -0.1253010
  C        0.3130830    -0.2174900     0.4662370
  C       -0.2538890     1.1369990    -0.0074850
  C       -0.8349900    -1.2410350     0.2435950
  C       -1.7711660     0.9754980     0.0985330
  C       -1.9852080    -0.4520530    -0.4054450
  C        1.6033210    -0.6099780    -0.2562360
  H        0.5371130    -0.1501040     1.5403310
  H        0.0496092     1.3683289    -1.0388245
  H        0.1335060     1.9859410     0.5654260
  H       -1.1585790    -1.6624630     1.2012770
  H       -0.5107060    -2.0839980    -0.3779040
  H       -2.3285430     1.7277130    -0.4695390
  H       -2.0833270     1.0524550     1.1475980
  H       -2.9716640    -0.8601180    -0.1627990
  H       -1.8853360    -0.4679020    -1.4974950
  H        1.3880180    -0.7214600    -1.3270790
  H        1.9406490    -1.5916360     0.0977200
  H        2.9408020     0.4513780     0.8633710
  H        2.4538300     1.2344270    -0.4784390
units angstrom
no_reorient  #important for SAPT in psi4, default
symmetry c1  #important for SAPT in psi4, default
}

set PROPERTIES_ORIGIN ["COM"]
properties('MP2/aug-cc-pvtz', properties = ['dipole'])
--------------------------------------------------------------------------

    Molecular point group: c1
  Charge       = 0
  Multiplicity = 1
  Basis Set: AUG-CC-PVTZ
    Blend: AUG-CC-PVTZ
  Basis Set: (AUG-CC-PVTZ AUX)
    Blend: AUG-CC-PVTZ-JKFIT

    Orbital Energies [Eh]
    ---------------------

    Doubly Occupied:

       1A    -15.537095     2A    -11.242394     3A    -11.220399
       4A    -11.217317     5A    -11.216551     6A    -11.216217
       7A    -11.215652     8A     -1.177326     9A     -1.117362
      10A     -0.982791    11A     -0.961250    12A     -0.864967
      13A     -0.782911    14A     -0.756614    15A     -0.668521
      16A     -0.647292    17A     -0.642057    18A     -0.580527
      19A     -0.570322    20A     -0.558594    21A     -0.518351
      22A     -0.490460    23A     -0.478789    24A     -0.470076
      25A     -0.462911    26A     -0.454260    27A     -0.445409
      28A     -0.382195

  @DF-RHF Final Energy:  -289.32223845207380

   => Energetics <=

    Nuclear Repulsion Energy =            324.8417368049547918
    One-Electron Energy =               -1034.5707308226171790
    Two-Electron Energy =                 420.4067555655886395
    Total Energy =                       -289.3222384520738046
  Basis Set: (AUG-CC-PVTZ AUX)
    Blend: AUG-CC-PVTZ-RI
    Molecular point group: c1

    Geometry (in Angstrom), charge = 0, multiplicity = 1:

       Center              X                  Y                   Z               Mass
    ------------   -----------------  -----------------  -----------------  -----------------
         N            2.713038345650     0.320250537927    -0.125098490500    14.003074004430
         C            0.297356345650    -0.215992462073     0.466439509500    12.000000000000
         C           -0.269615654350     1.138496537927    -0.007282490500    12.000000000000
         C           -0.850716654350    -1.239537462073     0.243797509500    12.000000000000
         C           -1.786892654350     0.976995537927     0.098735509500    12.000000000000
         C           -2.000934654350    -0.450555462073    -0.405242490500    12.000000000000
         C            1.587594345650    -0.608480462073    -0.256033490500    12.000000000000
         H            0.521386345650    -0.148606462073     1.540533509500     1.007825032230
         H            0.033882545650     1.369826437927    -1.038621990500     1.007825032230
         H            0.117779345650     1.987438537927     0.565628509500     1.007825032230
         H           -1.174305654350    -1.660965462073     1.201479509500     1.007825032230
         H           -0.526432654350    -2.082500462073    -0.377701490500     1.007825032230
         H           -2.344269654350     1.729210537927    -0.469336490500     1.007825032230
         H           -2.099053654350     1.053952537927     1.147800509500     1.007825032230
         H           -2.987390654350    -0.858620462073    -0.162596490500     1.007825032230
         H           -1.901062654350    -0.466404462073    -1.497292490500     1.007825032230
         H            1.372291345650    -0.719962462073    -1.326876490500     1.007825032230
         H            1.924922345650    -1.590138462073     0.097922509500     1.007825032230
         H            2.925075345650     0.452875537927     0.863573509500     1.007825032230
         H            2.438103345650     1.235924537927    -0.478236490500     1.007825032230

  Basis Set: AUG-CC-PVTZ
    Blend: AUG-CC-PVTZ
  Basis Set: (AUG-CC-PVTZ AUX)
    Blend: AUG-CC-PVTZ-JKFIT
	 Reference Energy          =    -289.3222384520738046 [Eh]
	 Singles Energy            =      -0.0000000000000000 [Eh]
	 Same-Spin Energy          =      -0.3125510127641880 [Eh]
	 Opposite-Spin Energy      =      -1.0972390963153380 [Eh]
	 Correlation Energy        =      -1.4097901090795260 [Eh]
	 Total Energy              =    -290.7320285611533563 [Eh]

	 ================> DF-SCS-MP2 Energies <==================
	-----------------------------------------------------------
	 SCS Same-Spin Scale       =       0.3333333333333333 [-]
	 SCS Opposite-Spin Scale   =       1.2000000000000000 [-]
	 SCS Same-Spin Energy      =      -0.1041836709213960 [Eh]
	 SCS Opposite-Spin Energy  =      -1.3166869155784056 [Eh]
	 SCS Correlation Energy    =      -1.4208705864998015 [Eh]
	 SCS Total Energy          =    -290.7431090385736070 [Eh]
	-----------------------------------------------------------

  Dipole Moment: [D]
     X:    -1.2993      Y:     0.4800      Z:     0.7657     Total:     1.5827

*** Psi4 exiting successfully. Buy a developer a beer!
