                               Psi4 1.4a3.dev225

  ==> Input File <==

--------------------------------------------------------------------------
#psi4
#
memory 32 gb

molecule  {
0 1
  N        2.7287650     0.3187530    -0.1253010
  C        0.3130830    -0.2174900     0.4662370
  C       -0.2538890     1.1369990    -0.0074850
  C       -0.8349900    -1.2410350     0.2435950
  C       -1.7711660     0.9754980     0.0985330
  C       -1.9852080    -0.4520530    -0.4054450
  C        1.6033210    -0.6099780    -0.2562360
  H        0.5371130    -0.1501040     1.5403310
  H        0.0159810     1.3028420    -1.0605530
  H        0.1511954     2.0247058     0.5915865
  H       -1.1585790    -1.6624630     1.2012770
  H       -0.5107060    -2.0839980    -0.3779040
  H       -2.3285430     1.7277130    -0.4695390
  H       -2.0833270     1.0524550     1.1475980
  H       -2.9716640    -0.8601180    -0.1627990
  H       -1.8853360    -0.4679020    -1.4974950
  H        1.3880180    -0.7214600    -1.3270790
  H        1.9406490    -1.5916360     0.0977200
  H        2.9408020     0.4513780     0.8633710
  H        2.4538300     1.2344270    -0.4784390
units angstrom
no_reorient  #important for SAPT in psi4, default
symmetry c1  #important for SAPT in psi4, default
}

set PROPERTIES_ORIGIN ["COM"]
properties('MP2/aug-cc-pvtz', properties = ['dipole'])
--------------------------------------------------------------------------

    Molecular point group: c1
  Charge       = 0
  Multiplicity = 1
  Basis Set: AUG-CC-PVTZ
    Blend: AUG-CC-PVTZ
  Basis Set: (AUG-CC-PVTZ AUX)
    Blend: AUG-CC-PVTZ-JKFIT

    Orbital Energies [Eh]
    ---------------------

    Doubly Occupied:

       1A    -15.536854     2A    -11.242563     3A    -11.223133
       4A    -11.220439     5A    -11.217405     6A    -11.216718
       7A    -11.216116     8A     -1.177254     9A     -1.117772
      10A     -0.983140    11A     -0.959195    12A     -0.864323
      13A     -0.781939    14A     -0.755011    15A     -0.666204
      16A     -0.646445    17A     -0.641814    18A     -0.580765
      19A     -0.571084    20A     -0.558383    21A     -0.518370
      22A     -0.491027    23A     -0.476721    24A     -0.468738
      25A     -0.463243    26A     -0.454159    27A     -0.445331
      28A     -0.382079

  @DF-RHF Final Energy:  -289.32061479612503

   => Energetics <=

    Nuclear Repulsion Energy =            324.6969747058856797
    One-Electron Energy =               -1034.2827265856667509
    Two-Electron Energy =                 420.2651370836561000
    Total Energy =                       -289.3206147961250281
  Basis Set: (AUG-CC-PVTZ AUX)
    Blend: AUG-CC-PVTZ-RI
    Molecular point group: c1

    Geometry (in Angstrom), charge = 0, multiplicity = 1:

       Center              X                  Y                   Z               Mass
    ------------   -----------------  -----------------  -----------------  -----------------
         N            2.713200431863     0.320522282600    -0.125143560775    14.003074004430
         C            0.297518431863    -0.215720717400     0.466394439225    12.000000000000
         C           -0.269453568137     1.138768282600    -0.007327560775    12.000000000000
         C           -0.850554568137    -1.239265717400     0.243752439225    12.000000000000
         C           -1.786730568137     0.977267282600     0.098690439225    12.000000000000
         C           -2.000772568137    -0.450283717400    -0.405287560775    12.000000000000
         C            1.587756431863    -0.608208717400    -0.256078560775    12.000000000000
         H            0.521548431863    -0.148334717400     1.540488439225     1.007825032230
         H            0.000416431863     1.304611282600    -1.060395560775     1.007825032230
         H            0.135630831863     2.026475082600     0.591743939225     1.007825032230
         H           -1.174143568137    -1.660693717400     1.201434439225     1.007825032230
         H           -0.526270568137    -2.082228717400    -0.377746560775     1.007825032230
         H           -2.344107568137     1.729482282600    -0.469381560775     1.007825032230
         H           -2.098891568137     1.054224282600     1.147755439225     1.007825032230
         H           -2.987228568137    -0.858348717400    -0.162641560775     1.007825032230
         H           -1.900900568137    -0.466132717400    -1.497337560775     1.007825032230
         H            1.372453431863    -0.719690717400    -1.326921560775     1.007825032230
         H            1.925084431863    -1.589866717400     0.097877439225     1.007825032230
         H            2.925237431863     0.453147282600     0.863528439225     1.007825032230
         H            2.438265431863     1.236196282600    -0.478281560775     1.007825032230

  Basis Set: AUG-CC-PVTZ
    Blend: AUG-CC-PVTZ
  Basis Set: (AUG-CC-PVTZ AUX)
    Blend: AUG-CC-PVTZ-JKFIT
	 Reference Energy          =    -289.3206147961250281 [Eh]
	 Singles Energy            =      -0.0000000000000000 [Eh]
	 Same-Spin Energy          =      -0.3126119816646314 [Eh]
	 Opposite-Spin Energy      =      -1.0976639311542371 [Eh]
	 Correlation Energy        =      -1.4102759128188684 [Eh]
	 Total Energy              =    -290.7308907089438890 [Eh]

	 ================> DF-SCS-MP2 Energies <==================
	-----------------------------------------------------------
	 SCS Same-Spin Scale       =       0.3333333333333333 [-]
	 SCS Opposite-Spin Scale   =       1.2000000000000000 [-]
	 SCS Same-Spin Energy      =      -0.1042039938882105 [Eh]
	 SCS Opposite-Spin Energy  =      -1.3171967173850845 [Eh]
	 SCS Correlation Energy    =      -1.4214007112732949 [Eh]
	 SCS Total Energy          =    -290.7420155073983210 [Eh]
	-----------------------------------------------------------

  Dipole Moment: [D]
     X:    -1.3261      Y:     0.4351      Z:     0.7589     Total:     1.5886

*** Psi4 exiting successfully. Buy a developer a beer!
