                               Psi4 1.4a3.dev225

  ==> Input File <==

--------------------------------------------------------------------------
#psi4
#
memory 32 gb

molecule  {
0 1
  N        2.7287650     0.3187530    -0.1253010
  C        0.3130830    -0.2174900     0.4662370
  C       -0.2538890     1.1369990    -0.0074850
  C       -0.8349900    -1.2410350     0.2435950
  C       -1.7910058     0.9733862     0.0999193
  C       -1.9852080    -0.4520530    -0.4054450
  C        1.6033210    -0.6099780    -0.2562360
  H        0.5371130    -0.1501040     1.5403310
  H        0.0159810     1.3028420    -1.0605530
  H        0.1335060     1.9859410     0.5654260
  H       -1.1585790    -1.6624630     1.2012770
  H       -0.5107060    -2.0839980    -0.3779040
  H       -2.3285430     1.7277130    -0.4695390
  H       -2.0833270     1.0524550     1.1475980
  H       -2.9716640    -0.8601180    -0.1627990
  H       -1.8853360    -0.4679020    -1.4974950
  H        1.3880180    -0.7214600    -1.3270790
  H        1.9406490    -1.5916360     0.0977200
  H        2.9408020     0.4513780     0.8633710
  H        2.4538300     1.2344270    -0.4784390
units angstrom
no_reorient  #important for SAPT in psi4, default
symmetry c1  #important for SAPT in psi4, default
}

set PROPERTIES_ORIGIN ["COM"]
properties('MP2/aug-cc-pvtz', properties = ['dipole'])
--------------------------------------------------------------------------

    Molecular point group: c1
  Charge       = 0
  Multiplicity = 1
  Basis Set: AUG-CC-PVTZ
    Blend: AUG-CC-PVTZ
  Basis Set: (AUG-CC-PVTZ AUX)
    Blend: AUG-CC-PVTZ-JKFIT

    Orbital Energies [Eh]
    ---------------------

    Doubly Occupied:

       1A    -15.536907     2A    -11.242330     3A    -11.219895
       4A    -11.217567     5A    -11.216541     6A    -11.216082
       7A    -11.215654     8A     -1.177118     9A     -1.116308
      10A     -0.983306    11A     -0.959212    12A     -0.865278
      13A     -0.783631    14A     -0.755322    15A     -0.668031
      16A     -0.647521    17A     -0.641538    18A     -0.581406
      19A     -0.571807    20A     -0.558488    21A     -0.518508
      22A     -0.491433    23A     -0.477089    24A     -0.467297
      25A     -0.466617    26A     -0.453768    27A     -0.444525
      28A     -0.382041

  @DF-RHF Final Energy:  -289.32256237570789

   => Energetics <=

    Nuclear Repulsion Energy =            324.6991959833509327
    One-Electron Energy =               -1034.2930743246713519
    Two-Electron Energy =                 420.2713159656125299
    Total Energy =                       -289.3225623757078893
  Basis Set: (AUG-CC-PVTZ AUX)
    Blend: AUG-CC-PVTZ-RI
    Molecular point group: c1

    Geometry (in Angstrom), charge = 0, multiplicity = 1:

       Center              X                  Y                   Z               Mass
    ------------   -----------------  -----------------  -----------------  -----------------
         N            2.715782601663     0.321172198004    -0.125045385845    14.003074004430
         C            0.300100601663    -0.215070801996     0.466492614155    12.000000000000
         C           -0.266871398337     1.139418198004    -0.007229385845    12.000000000000
         C           -0.847972398337    -1.238615801996     0.243850614155    12.000000000000
         C           -1.803988198337     0.975805398004     0.100174914155    12.000000000000
         C           -1.998190398337    -0.449633801996    -0.405189385845    12.000000000000
         C            1.590338601663    -0.607558801996    -0.255980385845    12.000000000000
         H            0.524130601663    -0.147684801996     1.540586614155     1.007825032230
         H            0.002998601663     1.305261198004    -1.060297385845     1.007825032230
         H            0.120523601663     1.988360198004     0.565681614155     1.007825032230
         H           -1.171561398337    -1.660043801996     1.201532614155     1.007825032230
         H           -0.523688398337    -2.081578801996    -0.377648385845     1.007825032230
         H           -2.341525398337     1.730132198004    -0.469283385845     1.007825032230
         H           -2.096309398337     1.054874198004     1.147853614155     1.007825032230
         H           -2.984646398337    -0.857698801996    -0.162543385845     1.007825032230
         H           -1.898318398337    -0.465482801996    -1.497239385845     1.007825032230
         H            1.375035601663    -0.719040801996    -1.326823385845     1.007825032230
         H            1.927666601663    -1.589216801996     0.097975614155     1.007825032230
         H            2.927819601663     0.453797198004     0.863626614155     1.007825032230
         H            2.440847601663     1.236846198004    -0.478183385845     1.007825032230

  Basis Set: AUG-CC-PVTZ
    Blend: AUG-CC-PVTZ
  Basis Set: (AUG-CC-PVTZ AUX)
    Blend: AUG-CC-PVTZ-JKFIT
	 Reference Energy          =    -289.3225623757078893 [Eh]
	 Singles Energy            =      -0.0000000000000000 [Eh]
	 Same-Spin Energy          =      -0.3125292286482932 [Eh]
	 Opposite-Spin Energy      =      -1.0972869111923886 [Eh]
	 Correlation Energy        =      -1.4098161398406819 [Eh]
	 Total Energy              =    -290.7323785155485893 [Eh]

	 ================> DF-SCS-MP2 Energies <==================
	-----------------------------------------------------------
	 SCS Same-Spin Scale       =       0.3333333333333333 [-]
	 SCS Opposite-Spin Scale   =       1.2000000000000000 [-]
	 SCS Same-Spin Energy      =      -0.1041764095494311 [Eh]
	 SCS Opposite-Spin Energy  =      -1.3167442934308664 [Eh]
	 SCS Correlation Energy    =      -1.4209207029802975 [Eh]
	 SCS Total Energy          =    -290.7434830786882003 [Eh]
	-----------------------------------------------------------

  Dipole Moment: [D]
     X:    -1.3120      Y:     0.4717      Z:     0.7697     Total:     1.5926

*** Psi4 exiting successfully. Buy a developer a beer!
