                               Psi4 1.4a3.dev225

  ==> Input File <==

--------------------------------------------------------------------------
#psi4
#
memory 32 gb

molecule  {
0 1
  N        2.7287650     0.3187530    -0.1253010
  C        0.3130830    -0.2174900     0.4662370
  C       -0.2538890     1.1369990    -0.0074850
  C       -0.8349900    -1.2410350     0.2435950
  C       -1.7711660     0.9754980     0.0985330
  C       -1.9852080    -0.4520530    -0.4054450
  C        1.6033210    -0.6099780    -0.2562360
  H        0.5371130    -0.1501040     1.5403310
  H        0.0159810     1.3028420    -1.0605530
  H        0.1335060     1.9859410     0.5654260
  H       -1.1499655    -1.6972972     1.1880956
  H       -0.5107060    -2.0839980    -0.3779040
  H       -2.3285430     1.7277130    -0.4695390
  H       -2.0833270     1.0524550     1.1475980
  H       -2.9716640    -0.8601180    -0.1627990
  H       -1.8853360    -0.4679020    -1.4974950
  H        1.3880180    -0.7214600    -1.3270790
  H        1.9406490    -1.5916360     0.0977200
  H        2.9408020     0.4513780     0.8633710
  H        2.4538300     1.2344270    -0.4784390
units angstrom
no_reorient  #important for SAPT in psi4, default
symmetry c1  #important for SAPT in psi4, default
}

set PROPERTIES_ORIGIN ["COM"]
properties('MP2/aug-cc-pvtz', properties = ['dipole'])
--------------------------------------------------------------------------

    Molecular point group: c1
  Charge       = 0
  Multiplicity = 1
  Basis Set: AUG-CC-PVTZ
    Blend: AUG-CC-PVTZ
  Basis Set: (AUG-CC-PVTZ AUX)
    Blend: AUG-CC-PVTZ-JKFIT

    Orbital Energies [Eh]
    ---------------------

    Doubly Occupied:

       1A    -15.537019     2A    -11.242407     3A    -11.220197
       4A    -11.217186     5A    -11.216711     6A    -11.216247
       7A    -11.215606     8A     -1.177327     9A     -1.117599
      10A     -0.982796    11A     -0.961154    12A     -0.864776
      13A     -0.782566    14A     -0.756537    15A     -0.668552
      16A     -0.647999    17A     -0.641364    18A     -0.580442
      19A     -0.571561    20A     -0.558025    21A     -0.518089
      22A     -0.490701    23A     -0.479417    24A     -0.468861
      25A     -0.463776    26A     -0.454787    27A     -0.444751
      28A     -0.382217

  @DF-RHF Final Energy:  -289.32263849094340

   => Energetics <=

    Nuclear Repulsion Energy =            324.8957891080269746
    One-Electron Energy =               -1034.6795176018677012
    Two-Electron Energy =                 420.4610900028973219
    Total Energy =                       -289.3226384909434046
  Basis Set: (AUG-CC-PVTZ AUX)
    Blend: AUG-CC-PVTZ-RI
    Molecular point group: c1

    Geometry (in Angstrom), charge = 0, multiplicity = 1:

       Center              X                  Y                   Z               Mass
    ------------   -----------------  -----------------  -----------------  -----------------
         N            2.713292727284     0.321270731868    -0.124743481749    14.003074004430
         C            0.297610727284    -0.214972268132     0.466794518251    12.000000000000
         C           -0.269361272716     1.139516731868    -0.006927481749    12.000000000000
         C           -0.850462272716    -1.238517268132     0.244152518251    12.000000000000
         C           -1.786638272716     0.978015731868     0.099090518251    12.000000000000
         C           -2.000680272716    -0.449535268132    -0.404887481749    12.000000000000
         C            1.587848727284    -0.607460268132    -0.255678481749    12.000000000000
         H            0.521640727284    -0.147586268132     1.540888518251     1.007825032230
         H            0.000508727284     1.305359731868    -1.059995481749     1.007825032230
         H            0.118033727284     1.988458731868     0.565983518251     1.007825032230
         H           -1.165437772716    -1.694779468132     1.188653118251     1.007825032230
         H           -0.526178272716    -2.081480268132    -0.377346481749     1.007825032230
         H           -2.344015272716     1.730230731868    -0.468981481749     1.007825032230
         H           -2.098799272716     1.054972731868     1.148155518251     1.007825032230
         H           -2.987136272716    -0.857600268132    -0.162241481749     1.007825032230
         H           -1.900808272716    -0.465384268132    -1.496937481749     1.007825032230
         H            1.372545727284    -0.718942268132    -1.326521481749     1.007825032230
         H            1.925176727284    -1.589118268132     0.098277518251     1.007825032230
         H            2.925329727284     0.453895731868     0.863928518251     1.007825032230
         H            2.438357727284     1.236944731868    -0.477881481749     1.007825032230

  Basis Set: AUG-CC-PVTZ
    Blend: AUG-CC-PVTZ
  Basis Set: (AUG-CC-PVTZ AUX)
    Blend: AUG-CC-PVTZ-JKFIT
	 Reference Energy          =    -289.3226384909434046 [Eh]
	 Singles Energy            =      -0.0000000000000000 [Eh]
	 Same-Spin Energy          =      -0.3125907308002900 [Eh]
	 Opposite-Spin Energy      =      -1.0972728248602259 [Eh]
	 Correlation Energy        =      -1.4098635556605159 [Eh]
	 Total Energy              =    -290.7325020466039405 [Eh]

	 ================> DF-SCS-MP2 Energies <==================
	-----------------------------------------------------------
	 SCS Same-Spin Scale       =       0.3333333333333333 [-]
	 SCS Opposite-Spin Scale   =       1.2000000000000000 [-]
	 SCS Same-Spin Energy      =      -0.1041969102667633 [Eh]
	 SCS Opposite-Spin Energy  =      -1.3167273898322711 [Eh]
	 SCS Correlation Energy    =      -1.4209243000990344 [Eh]
	 SCS Total Energy          =    -290.7435627910424500 [Eh]
	-----------------------------------------------------------

  Dipole Moment: [D]
     X:    -1.3054      Y:     0.4620      Z:     0.7691     Total:     1.5840

*** Psi4 exiting successfully. Buy a developer a beer!
