                               Psi4 1.4a3.dev225

  ==> Input File <==

--------------------------------------------------------------------------
#psi4
#
memory 32 gb

molecule  {
0 1
  N        2.7287650     0.3187530    -0.1253010
  C        0.3130830    -0.2174900     0.4662370
  C       -0.2574853     1.1581640    -0.0233510
  C       -0.8349900    -1.2410350     0.2435950
  C       -1.7711660     0.9754980     0.0985330
  C       -1.9852080    -0.4520530    -0.4054450
  C        1.6033210    -0.6099780    -0.2562360
  H        0.5371130    -0.1501040     1.5403310
  H        0.0159810     1.3028420    -1.0605530
  H        0.1335060     1.9859410     0.5654260
  H       -1.1585790    -1.6624630     1.2012770
  H       -0.5107060    -2.0839980    -0.3779040
  H       -2.3285430     1.7277130    -0.4695390
  H       -2.0833270     1.0524550     1.1475980
  H       -2.9716640    -0.8601180    -0.1627990
  H       -1.8853360    -0.4679020    -1.4974950
  H        1.3880180    -0.7214600    -1.3270790
  H        1.9406490    -1.5916360     0.0977200
  H        2.9408020     0.4513780     0.8633710
  H        2.4538300     1.2344270    -0.4784390
units angstrom
no_reorient  #important for SAPT in psi4, default
symmetry c1  #important for SAPT in psi4, default
}

set PROPERTIES_ORIGIN ["COM"]
properties('MP2/aug-cc-pvtz', properties = ['dipole'])
--------------------------------------------------------------------------

    Molecular point group: c1
  Charge       = 0
  Multiplicity = 1
  Basis Set: AUG-CC-PVTZ
    Blend: AUG-CC-PVTZ
  Basis Set: (AUG-CC-PVTZ AUX)
    Blend: AUG-CC-PVTZ-JKFIT

    Orbital Energies [Eh]
    ---------------------

    Doubly Occupied:

       1A    -15.536896     2A    -11.242128     3A    -11.220892
       4A    -11.216949     5A    -11.216279     6A    -11.215771
       7A    -11.215558     8A     -1.176781     9A     -1.115820
      10A     -0.981694    11A     -0.961360    12A     -0.864185
      13A     -0.783167    14A     -0.755956    15A     -0.668098
      16A     -0.648003    17A     -0.640104    18A     -0.580958
      19A     -0.574532    20A     -0.557772    21A     -0.517052
      22A     -0.491950    23A     -0.478779    24A     -0.470748
      25A     -0.465677    26A     -0.453853    27A     -0.440568
      28A     -0.381938

  @DF-RHF Final Energy:  -289.32237677855932

   => Energetics <=

    Nuclear Repulsion Energy =            324.6002324704878106
    One-Electron Energy =               -1034.0982776861153525
    Two-Electron Energy =                 420.1756684370682819
    Total Energy =                       -289.3223767785593168
  Basis Set: (AUG-CC-PVTZ AUX)
    Blend: AUG-CC-PVTZ-RI
    Molecular point group: c1

    Geometry (in Angstrom), charge = 0, multiplicity = 1:

       Center              X                  Y                   Z               Mass
    ------------   -----------------  -----------------  -----------------  -----------------
         N            2.713815774616     0.318353751253    -0.122956409315    14.003074004430
         C            0.298133774616    -0.217889248747     0.468581590685    12.000000000000
         C           -0.272434525384     1.157764751253    -0.021006409315    12.000000000000
         C           -0.849939225384    -1.241434248747     0.245939590685    12.000000000000
         C           -1.786115225384     0.975098751253     0.100877590685    12.000000000000
         C           -2.000157225384    -0.452452248747    -0.403100409315    12.000000000000
         C            1.588371774616    -0.610377248747    -0.253891409315    12.000000000000
         H            0.522163774616    -0.150503248747     1.542675590685     1.007825032230
         H            0.001031774616     1.302442751253    -1.058208409315     1.007825032230
         H            0.118556774616     1.985541751253     0.567770590685     1.007825032230
         H           -1.173528225384    -1.662862248747     1.203621590685     1.007825032230
         H           -0.525655225384    -2.084397248747    -0.375559409315     1.007825032230
         H           -2.343492225384     1.727313751253    -0.467194409315     1.007825032230
         H           -2.098276225384     1.052055751253     1.149942590685     1.007825032230
         H           -2.986613225384    -0.860517248747    -0.160454409315     1.007825032230
         H           -1.900285225384    -0.468301248747    -1.495150409315     1.007825032230
         H            1.373068774616    -0.721859248747    -1.324734409315     1.007825032230
         H            1.925699774616    -1.592035248747     0.100064590685     1.007825032230
         H            2.925852774616     0.450978751253     0.865715590685     1.007825032230
         H            2.438880774616     1.234027751253    -0.476094409315     1.007825032230

  Basis Set: AUG-CC-PVTZ
    Blend: AUG-CC-PVTZ
  Basis Set: (AUG-CC-PVTZ AUX)
    Blend: AUG-CC-PVTZ-JKFIT
	 Reference Energy          =    -289.3223767785593168 [Eh]
	 Singles Energy            =      -0.0000000000000000 [Eh]
	 Same-Spin Energy          =      -0.3124671287647172 [Eh]
	 Opposite-Spin Energy      =      -1.0972493021594769 [Eh]
	 Correlation Energy        =      -1.4097164309241941 [Eh]
	 Total Energy              =    -290.7320932094835371 [Eh]

	 ================> DF-SCS-MP2 Energies <==================
	-----------------------------------------------------------
	 SCS Same-Spin Scale       =       0.3333333333333333 [-]
	 SCS Opposite-Spin Scale   =       1.2000000000000000 [-]
	 SCS Same-Spin Energy      =      -0.1041557095882391 [Eh]
	 SCS Opposite-Spin Energy  =      -1.3166991625913722 [Eh]
	 SCS Correlation Energy    =      -1.4208548721796113 [Eh]
	 SCS Total Energy          =    -290.7432316507389487 [Eh]
	-----------------------------------------------------------

  Dipole Moment: [D]
     X:    -1.3043      Y:     0.4698      Z:     0.7638     Total:     1.5828

*** Psi4 exiting successfully. Buy a developer a beer!
