                               Psi4 1.4a3.dev225

  ==> Input File <==

--------------------------------------------------------------------------
#psi4
#
memory 32 gb

molecule  {
0 1
  N        2.7287650     0.3187530    -0.1253010
  C        0.3130830    -0.2174900     0.4662370
  C       -0.2538890     1.1369990    -0.0074850
  C       -0.8349900    -1.2410350     0.2435950
  C       -1.5727678     0.9966158     0.0846701
  C       -1.9852080    -0.4520530    -0.4054450
  C        1.6033210    -0.6099780    -0.2562360
  H        0.5371130    -0.1501040     1.5403310
  H        0.0159810     1.3028420    -1.0605530
  H        0.1335060     1.9859410     0.5654260
  H       -1.1585790    -1.6624630     1.2012770
  H       -0.5107060    -2.0839980    -0.3779040
  H       -2.3285430     1.7277130    -0.4695390
  H       -2.0833270     1.0524550     1.1475980
  H       -2.9716640    -0.8601180    -0.1627990
  H       -1.8853360    -0.4679020    -1.4974950
  H        1.3880180    -0.7214600    -1.3270790
  H        1.9406490    -1.5916360     0.0977200
  H        2.9408020     0.4513780     0.8633710
  H        2.4538300     1.2344270    -0.4784390
units angstrom
no_reorient  #important for SAPT in psi4, default
symmetry c1  #important for SAPT in psi4, default
}

set PROPERTIES_ORIGIN ["COM"]
properties('MP2/aug-cc-pvtz', properties = ['dipole'])
--------------------------------------------------------------------------

    Molecular point group: c1
  Charge       = 0
  Multiplicity = 1
  Basis Set: AUG-CC-PVTZ
    Blend: AUG-CC-PVTZ
  Basis Set: (AUG-CC-PVTZ AUX)
    Blend: AUG-CC-PVTZ-JKFIT

    Orbital Energies [Eh]
    ---------------------

    Doubly Occupied:

       1A    -15.538318     2A    -11.243613     3A    -11.226018
       4A    -11.222371     5A    -11.218928     6A    -11.215195
       7A    -11.208222     8A     -1.181236     9A     -1.139286
      10A     -0.992485    11A     -0.971769    12A     -0.859402
      13A     -0.771876    14A     -0.761876    15A     -0.675347
      16A     -0.656203    17A     -0.641711    18A     -0.582544
      19A     -0.576805    20A     -0.559835    21A     -0.527720
      22A     -0.513638    23A     -0.490295    24A     -0.469645
      25A     -0.452794    26A     -0.428017    27A     -0.424855
      28A     -0.382932

  @DF-RHF Final Energy:  -289.27397716016560

   => Energetics <=

    Nuclear Repulsion Energy =            327.4488976971432521
    One-Electron Energy =               -1039.5798776500171243
    Two-Electron Energy =                 422.8570027927082720
    Total Energy =                       -289.2739771601656003
  Basis Set: (AUG-CC-PVTZ AUX)
    Blend: AUG-CC-PVTZ-RI
    Molecular point group: c1

    Geometry (in Angstrom), charge = 0, multiplicity = 1:

       Center              X                  Y                   Z               Mass
    ------------   -----------------  -----------------  -----------------  -----------------
         N            2.689357483856     0.318359466415    -0.123198952563    14.003074004430
         C            0.273675483856    -0.217883533585     0.468339047437    12.000000000000
         C           -0.293296516144     1.136605466415    -0.005382952563    12.000000000000
         C           -0.874397516144    -1.241428533585     0.245697047437    12.000000000000
         C           -1.612175316144     0.996222266415     0.086772147437    12.000000000000
         C           -2.024615516144    -0.452446533585    -0.403342952563    12.000000000000
         C            1.563913483856    -0.610371533585    -0.254133952563    12.000000000000
         H            0.497705483856    -0.150497533585     1.542433047437     1.007825032230
         H           -0.023426516144     1.302448466415    -1.058450952563     1.007825032230
         H            0.094098483856     1.985547466415     0.567528047437     1.007825032230
         H           -1.197986516144    -1.662856533585     1.203379047437     1.007825032230
         H           -0.550113516144    -2.084391533585    -0.375801952563     1.007825032230
         H           -2.367950516144     1.727319466415    -0.467436952563     1.007825032230
         H           -2.122734516144     1.052061466415     1.149700047437     1.007825032230
         H           -3.011071516144    -0.860511533585    -0.160696952563     1.007825032230
         H           -1.924743516144    -0.468295533585    -1.495392952563     1.007825032230
         H            1.348610483856    -0.721853533585    -1.324976952563     1.007825032230
         H            1.901241483856    -1.592029533585     0.099822047437     1.007825032230
         H            2.901394483856     0.450984466415     0.865473047437     1.007825032230
         H            2.414422483856     1.234033466415    -0.476336952563     1.007825032230

  Basis Set: AUG-CC-PVTZ
    Blend: AUG-CC-PVTZ
  Basis Set: (AUG-CC-PVTZ AUX)
    Blend: AUG-CC-PVTZ-JKFIT
	 Reference Energy          =    -289.2739771601656003 [Eh]
	 Singles Energy            =      -0.0000000000000000 [Eh]
	 Same-Spin Energy          =      -0.3152463103932031 [Eh]
	 Opposite-Spin Energy      =      -1.1009563229806087 [Eh]
	 Correlation Energy        =      -1.4162026333738118 [Eh]
	 Total Energy              =    -290.6901797935394143 [Eh]

	 ================> DF-SCS-MP2 Energies <==================
	-----------------------------------------------------------
	 SCS Same-Spin Scale       =       0.3333333333333333 [-]
	 SCS Opposite-Spin Scale   =       1.2000000000000000 [-]
	 SCS Same-Spin Energy      =      -0.1050821034644010 [Eh]
	 SCS Opposite-Spin Energy  =      -1.3211475875767305 [Eh]
	 SCS Correlation Energy    =      -1.4262296910411314 [Eh]
	 SCS Total Energy          =    -290.7002068512067581 [Eh]
	-----------------------------------------------------------

  Dipole Moment: [D]
     X:    -1.1720      Y:     0.4094      Z:     0.7564     Total:     1.4537

*** Psi4 exiting successfully. Buy a developer a beer!
