                               Psi4 1.4a3.dev225

  ==> Input File <==

--------------------------------------------------------------------------
#psi4
#
memory 32 gb

molecule  {
0 1
  N        2.7287650     0.3187530    -0.1253010
  C        0.2635960    -0.2206016     0.3716582
  C       -0.2538890     1.1369990    -0.0074850
  C       -0.8349900    -1.2410350     0.2435950
  C       -1.7711660     0.9754980     0.0985330
  C       -1.9852080    -0.4520530    -0.4054450
  C        1.6033210    -0.6099780    -0.2562360
  H        0.5371130    -0.1501040     1.5403310
  H        0.0159810     1.3028420    -1.0605530
  H        0.1335060     1.9859410     0.5654260
  H       -1.1585790    -1.6624630     1.2012770
  H       -0.5107060    -2.0839980    -0.3779040
  H       -2.3285430     1.7277130    -0.4695390
  H       -2.0833270     1.0524550     1.1475980
  H       -2.9716640    -0.8601180    -0.1627990
  H       -1.8853360    -0.4679020    -1.4974950
  H        1.3880180    -0.7214600    -1.3270790
  H        1.9406490    -1.5916360     0.0977200
  H        2.9408020     0.4513780     0.8633710
  H        2.4538300     1.2344270    -0.4784390
units angstrom
no_reorient  #important for SAPT in psi4, default
symmetry c1  #important for SAPT in psi4, default
}

set PROPERTIES_ORIGIN ["COM"]
properties('MP2/aug-cc-pvtz', properties = ['dipole'])
--------------------------------------------------------------------------

    Molecular point group: c1
  Charge       = 0
  Multiplicity = 1
  Basis Set: AUG-CC-PVTZ
    Blend: AUG-CC-PVTZ
  Basis Set: (AUG-CC-PVTZ AUX)
    Blend: AUG-CC-PVTZ-JKFIT

    Orbital Energies [Eh]
    ---------------------

    Doubly Occupied:

       1A    -15.539068     2A    -11.243525     3A    -11.225309
       4A    -11.217687     5A    -11.216877     6A    -11.216364
       7A    -11.215415     8A     -1.179000     9A     -1.127124
      10A     -0.984127    11A     -0.967286    12A     -0.868162
      13A     -0.786153    14A     -0.744552    15A     -0.671038
      16A     -0.651842    17A     -0.646581    18A     -0.578060
      19A     -0.573238    20A     -0.558771    21A     -0.515174
      22A     -0.497380    23A     -0.488808    24A     -0.470195
      25A     -0.464338    26A     -0.463582    27A     -0.419570
      28A     -0.383961

  @DF-RHF Final Energy:  -289.30972034582589

   => Energetics <=

    Nuclear Repulsion Energy =            325.9179522638690401
    One-Electron Energy =               -1036.6289679154253918
    Two-Electron Energy =                 421.4012953057305140
    Total Energy =                       -289.3097203458258946
  Basis Set: (AUG-CC-PVTZ AUX)
    Blend: AUG-CC-PVTZ-RI
    Molecular point group: c1

    Geometry (in Angstrom), charge = 0, multiplicity = 1:

       Center              X                  Y                   Z               Mass
    ------------   -----------------  -----------------  -----------------  -----------------
         N            2.719372401572     0.321293257732    -0.113425553034    14.003074004430
         C            0.254203401572    -0.218061342268     0.383533646966    12.000000000000
         C           -0.263281598428     1.139539257732     0.004390446966    12.000000000000
         C           -0.844382598428    -1.238494742268     0.255470446966    12.000000000000
         C           -1.780558598428     0.978038257732     0.110408446966    12.000000000000
         C           -1.994600598428    -0.449512742268    -0.393569553034    12.000000000000
         C            1.593928401572    -0.607437742268    -0.244360553034    12.000000000000
         H            0.527720401572    -0.147563742268     1.552206446966     1.007825032230
         H            0.006588401572     1.305382257732    -1.048677553034     1.007825032230
         H            0.124113401572     1.988481257732     0.577301446966     1.007825032230
         H           -1.167971598428    -1.659922742268     1.213152446966     1.007825032230
         H           -0.520098598428    -2.081457742268    -0.366028553034     1.007825032230
         H           -2.337935598428     1.730253257732    -0.457663553034     1.007825032230
         H           -2.092719598428     1.054995257732     1.159473446966     1.007825032230
         H           -2.981056598428    -0.857577742268    -0.150923553034     1.007825032230
         H           -1.894728598428    -0.465361742268    -1.485619553034     1.007825032230
         H            1.378625401572    -0.718919742268    -1.315203553034     1.007825032230
         H            1.931256401572    -1.589095742268     0.109595446966     1.007825032230
         H            2.931409401572     0.453918257732     0.875246446966     1.007825032230
         H            2.444437401572     1.236967257732    -0.466563553034     1.007825032230

  Basis Set: AUG-CC-PVTZ
    Blend: AUG-CC-PVTZ
  Basis Set: (AUG-CC-PVTZ AUX)
    Blend: AUG-CC-PVTZ-JKFIT
	 Reference Energy          =    -289.3097203458258946 [Eh]
	 Singles Energy            =      -0.0000000000000000 [Eh]
	 Same-Spin Energy          =      -0.3135384163517164 [Eh]
	 Opposite-Spin Energy      =      -1.0986519029688413 [Eh]
	 Correlation Energy        =      -1.4121903193205578 [Eh]
	 Total Energy              =    -290.7219106651464244 [Eh]

	 ================> DF-SCS-MP2 Energies <==================
	-----------------------------------------------------------
	 SCS Same-Spin Scale       =       0.3333333333333333 [-]
	 SCS Opposite-Spin Scale   =       1.2000000000000000 [-]
	 SCS Same-Spin Energy      =      -0.1045128054505721 [Eh]
	 SCS Opposite-Spin Energy  =      -1.3183822835626096 [Eh]
	 SCS Correlation Energy    =      -1.4228950890131817 [Eh]
	 SCS Total Energy          =    -290.7326154348390901 [Eh]
	-----------------------------------------------------------

  Dipole Moment: [D]
     X:    -1.3335      Y:     0.4750      Z:     0.6993     Total:     1.5789

*** Psi4 exiting successfully. Buy a developer a beer!
