                               Psi4 1.4a3.dev225

  ==> Input File <==

--------------------------------------------------------------------------
#psi4
#
memory 32 gb

molecule  {
0 1
  N        2.7287650     0.3187530    -0.1253010
  C        0.3130830    -0.2174900     0.4662370
  C       -0.2538890     1.1369990    -0.0074850
  C       -0.8349900    -1.2410350     0.2435950
  C       -1.7711660     0.9754980     0.0985330
  C       -1.9852080    -0.4520530    -0.4054450
  C        1.6033210    -0.6099780    -0.2562360
  H        0.5371130    -0.1501040     1.5403310
  H        0.0159810     1.3028420    -1.0605530
  H        0.1335060     1.9859410     0.5654260
  H       -1.1733520    -1.6817027     1.2449987
  H       -0.5107060    -2.0839980    -0.3779040
  H       -2.3285430     1.7277130    -0.4695390
  H       -2.0833270     1.0524550     1.1475980
  H       -2.9716640    -0.8601180    -0.1627990
  H       -1.8853360    -0.4679020    -1.4974950
  H        1.3880180    -0.7214600    -1.3270790
  H        1.9406490    -1.5916360     0.0977200
  H        2.9408020     0.4513780     0.8633710
  H        2.4538300     1.2344270    -0.4784390
units angstrom
no_reorient  #important for SAPT in psi4, default
symmetry c1  #important for SAPT in psi4, default
}

set PROPERTIES_ORIGIN ["COM"]
properties('MP2/aug-cc-pvtz', properties = ['dipole'])
--------------------------------------------------------------------------

    Molecular point group: c1
  Charge       = 0
  Multiplicity = 1
  Basis Set: AUG-CC-PVTZ
    Blend: AUG-CC-PVTZ
  Basis Set: (AUG-CC-PVTZ AUX)
    Blend: AUG-CC-PVTZ-JKFIT

    Orbital Energies [Eh]
    ---------------------

    Doubly Occupied:

       1A    -15.537277     2A    -11.242696     3A    -11.222155
       4A    -11.220402     5A    -11.217405     6A    -11.216937
       7A    -11.216444     8A     -1.177567     9A     -1.117567
      10A     -0.982988    11A     -0.959547    12A     -0.864024
      13A     -0.781746    14A     -0.754457    15A     -0.668101
      16A     -0.646983    17A     -0.641921    18A     -0.580029
      19A     -0.570150    20A     -0.558447    21A     -0.518363
      22A     -0.490080    23A     -0.477709    24A     -0.468874
      25A     -0.464379    26A     -0.455371    27A     -0.442861
      28A     -0.382246

  @DF-RHF Final Energy:  -289.32065877067964

   => Energetics <=

    Nuclear Repulsion Energy =            324.6966794731458208
    One-Electron Energy =               -1034.2812279725305871
    Two-Electron Energy =                 420.2638897287050668
    Total Energy =                       -289.3206587706796427
  Basis Set: (AUG-CC-PVTZ AUX)
    Blend: AUG-CC-PVTZ-RI
    Molecular point group: c1

    Geometry (in Angstrom), charge = 0, multiplicity = 1:

       Center              X                  Y                   Z               Mass
    ------------   -----------------  -----------------  -----------------  -----------------
         N            2.713530551287     0.321112146940    -0.125322145637    14.003074004430
         C            0.297848551287    -0.215130853060     0.466215854363    12.000000000000
         C           -0.269123448713     1.139358146940    -0.007506145637    12.000000000000
         C           -0.850224448713    -1.238675853060     0.243573854363    12.000000000000
         C           -1.786400448713     0.977857146940     0.098511854363    12.000000000000
         C           -2.000442448713    -0.449693853060    -0.405466145637    12.000000000000
         C            1.588086551287    -0.607618853060    -0.256257145637    12.000000000000
         H            0.521878551287    -0.147744853060     1.540309854363     1.007825032230
         H            0.000746551287     1.305201146940    -1.060574145637     1.007825032230
         H            0.118271551287     1.988300146940     0.565404854363     1.007825032230
         H           -1.188586448713    -1.679343553060     1.244977554363     1.007825032230
         H           -0.525940448713    -2.081638853060    -0.377925145637     1.007825032230
         H           -2.343777448713     1.730072146940    -0.469560145637     1.007825032230
         H           -2.098561448713     1.054814146940     1.147576854363     1.007825032230
         H           -2.986898448713    -0.857758853060    -0.162820145637     1.007825032230
         H           -1.900570448713    -0.465542853060    -1.497516145637     1.007825032230
         H            1.372783551287    -0.719100853060    -1.327100145637     1.007825032230
         H            1.925414551287    -1.589276853060     0.097698854363     1.007825032230
         H            2.925567551287     0.453737146940     0.863349854363     1.007825032230
         H            2.438595551287     1.236786146940    -0.478460145637     1.007825032230

  Basis Set: AUG-CC-PVTZ
    Blend: AUG-CC-PVTZ
  Basis Set: (AUG-CC-PVTZ AUX)
    Blend: AUG-CC-PVTZ-JKFIT
	 Reference Energy          =    -289.3206587706796427 [Eh]
	 Singles Energy            =      -0.0000000000000000 [Eh]
	 Same-Spin Energy          =      -0.3126026627130865 [Eh]
	 Opposite-Spin Energy      =      -1.0976831909499769 [Eh]
	 Correlation Energy        =      -1.4102858536630634 [Eh]
	 Total Energy              =    -290.7309446243427260 [Eh]

	 ================> DF-SCS-MP2 Energies <==================
	-----------------------------------------------------------
	 SCS Same-Spin Scale       =       0.3333333333333333 [-]
	 SCS Opposite-Spin Scale   =       1.2000000000000000 [-]
	 SCS Same-Spin Energy      =      -0.1042008875710288 [Eh]
	 SCS Opposite-Spin Energy  =      -1.3172198291399722 [Eh]
	 SCS Correlation Energy    =      -1.4214207167110009 [Eh]
	 SCS Total Energy          =    -290.7420794873906402 [Eh]
	-----------------------------------------------------------

  Dipole Moment: [D]
     X:    -1.2940      Y:     0.4945      Z:     0.7405     Total:     1.5708

*** Psi4 exiting successfully. Buy a developer a beer!
