                               Psi4 1.4a3.dev225

  ==> Input File <==

--------------------------------------------------------------------------
#psi4
#
memory 32 gb

molecule  {
0 1
  N        2.7287650     0.3187530    -0.1253010
  C        0.3130830    -0.2174900     0.4662370
  C       -0.2538890     1.1369990    -0.0074850
  C       -0.8349900    -1.2410350     0.2435950
  C       -1.7711660     0.9754980     0.0985330
  C       -1.9852080    -0.4520530    -0.4054450
  C        1.6033210    -0.6099780    -0.2562360
  H        0.5371130    -0.1501040     1.5403310
  H        0.0159810     1.3028420    -1.0605530
  H        0.0627483     1.8308818     0.4607838
  H       -1.1585790    -1.6624630     1.2012770
  H       -0.5107060    -2.0839980    -0.3779040
  H       -2.3285430     1.7277130    -0.4695390
  H       -2.0833270     1.0524550     1.1475980
  H       -2.9716640    -0.8601180    -0.1627990
  H       -1.8853360    -0.4679020    -1.4974950
  H        1.3880180    -0.7214600    -1.3270790
  H        1.9406490    -1.5916360     0.0977200
  H        2.9408020     0.4513780     0.8633710
  H        2.4538300     1.2344270    -0.4784390
units angstrom
no_reorient  #important for SAPT in psi4, default
symmetry c1  #important for SAPT in psi4, default
}

set PROPERTIES_ORIGIN ["COM"]
properties('MP2/aug-cc-pvtz', properties = ['dipole'])
--------------------------------------------------------------------------

    Molecular point group: c1
  Charge       = 0
  Multiplicity = 1
  Basis Set: AUG-CC-PVTZ
    Blend: AUG-CC-PVTZ
  Basis Set: (AUG-CC-PVTZ AUX)
    Blend: AUG-CC-PVTZ-JKFIT

    Orbital Energies [Eh]
    ---------------------

    Doubly Occupied:

       1A    -15.537546     2A    -11.241941     3A    -11.218565
       4A    -11.215322     5A    -11.214797     6A    -11.214283
       7A    -11.191368     8A     -1.177830     9A     -1.119491
      10A     -0.981825    11A     -0.975048    12A     -0.868251
      13A     -0.788951    14A     -0.760543    15A     -0.682139
      16A     -0.652310    17A     -0.640473    18A     -0.581695
      19A     -0.576331    20A     -0.558388    21A     -0.517541
      22A     -0.495428    23A     -0.483576    24A     -0.469023
      25A     -0.464429    26A     -0.455495    27A     -0.443373
      28A     -0.382363

  @DF-RHF Final Energy:  -289.28953579909330

   => Energetics <=

    Nuclear Repulsion Energy =            326.0433310786943935
    One-Electron Energy =               -1036.8490857509757461
    Two-Electron Energy =                 421.5162188731881088
    Total Energy =                       -289.2895357990933007
  Basis Set: (AUG-CC-PVTZ AUX)
    Blend: AUG-CC-PVTZ-RI
    Molecular point group: c1

    Geometry (in Angstrom), charge = 0, multiplicity = 1:

       Center              X                  Y                   Z               Mass
    ------------   -----------------  -----------------  -----------------  -----------------
         N            2.714099875703     0.322493334256    -0.123813390731    14.003074004430
         C            0.298417875703    -0.213749665744     0.467724609269    12.000000000000
         C           -0.268554124297     1.140739334256    -0.005997390731    12.000000000000
         C           -0.849655124297    -1.237294665744     0.245082609269    12.000000000000
         C           -1.785831124297     0.979238334256     0.100020609269    12.000000000000
         C           -1.999873124297    -0.448312665744    -0.403957390731    12.000000000000
         C            1.588655875703    -0.606237665744    -0.254748390731    12.000000000000
         H            0.522447875703    -0.146363665744     1.541818609269     1.007825032230
         H            0.001315875703     1.306582334256    -1.059065390731     1.007825032230
         H            0.048083175703     1.834622134256     0.462271409269     1.007825032230
         H           -1.173244124297    -1.658722665744     1.202764609269     1.007825032230
         H           -0.525371124297    -2.080257665744    -0.376416390731     1.007825032230
         H           -2.343208124297     1.731453334256    -0.468051390731     1.007825032230
         H           -2.097992124297     1.056195334256     1.149085609269     1.007825032230
         H           -2.986329124297    -0.856377665744    -0.161311390731     1.007825032230
         H           -1.900001124297    -0.464161665744    -1.496007390731     1.007825032230
         H            1.373352875703    -0.717719665744    -1.325591390731     1.007825032230
         H            1.925983875703    -1.587895665744     0.099207609269     1.007825032230
         H            2.926136875703     0.455118334256     0.864858609269     1.007825032230
         H            2.439164875703     1.238167334256    -0.476951390731     1.007825032230

  Basis Set: AUG-CC-PVTZ
    Blend: AUG-CC-PVTZ
  Basis Set: (AUG-CC-PVTZ AUX)
    Blend: AUG-CC-PVTZ-JKFIT
	 Reference Energy          =    -289.2895357990933007 [Eh]
	 Singles Energy            =      -0.0000000000000000 [Eh]
	 Same-Spin Energy          =      -0.3126305953299859 [Eh]
	 Opposite-Spin Energy      =      -1.0966252681490485 [Eh]
	 Correlation Energy        =      -1.4092558634790344 [Eh]
	 Total Energy              =    -290.6987916625723187 [Eh]

	 ================> DF-SCS-MP2 Energies <==================
	-----------------------------------------------------------
	 SCS Same-Spin Scale       =       0.3333333333333333 [-]
	 SCS Opposite-Spin Scale   =       1.2000000000000000 [-]
	 SCS Same-Spin Energy      =      -0.1042101984433286 [Eh]
	 SCS Opposite-Spin Energy  =      -1.3159503217788582 [Eh]
	 SCS Correlation Energy    =      -1.4201605202221868 [Eh]
	 SCS Total Energy          =    -290.7096963193154693 [Eh]
	-----------------------------------------------------------

  Dipole Moment: [D]
     X:    -1.2490      Y:     0.5621      Z:     0.7915     Total:     1.5819

*** Psi4 exiting successfully. Buy a developer a beer!
