                               Psi4 1.4a3.dev225

  ==> Input File <==

--------------------------------------------------------------------------
#psi4
#
memory 32 gb

molecule  {
0 1
  N        2.7287650     0.3187530    -0.1253010
  C        0.3130830    -0.2174900     0.4662370
  C       -0.2538890     1.1369990    -0.0074850
  C       -0.9478100    -1.3366060     0.3073792
  C       -1.7711660     0.9754980     0.0985330
  C       -1.9852080    -0.4520530    -0.4054450
  C        1.6033210    -0.6099780    -0.2562360
  H        0.5371130    -0.1501040     1.5403310
  H        0.0159810     1.3028420    -1.0605530
  H        0.1335060     1.9859410     0.5654260
  H       -1.1585790    -1.6624630     1.2012770
  H       -0.5107060    -2.0839980    -0.3779040
  H       -2.3285430     1.7277130    -0.4695390
  H       -2.0833270     1.0524550     1.1475980
  H       -2.9716640    -0.8601180    -0.1627990
  H       -1.8853360    -0.4679020    -1.4974950
  H        1.3880180    -0.7214600    -1.3270790
  H        1.9406490    -1.5916360     0.0977200
  H        2.9408020     0.4513780     0.8633710
  H        2.4538300     1.2344270    -0.4784390
units angstrom
no_reorient  #important for SAPT in psi4, default
symmetry c1  #important for SAPT in psi4, default
}

set PROPERTIES_ORIGIN ["COM"]
properties('MP2/aug-cc-pvtz', properties = ['dipole'])
--------------------------------------------------------------------------

    Molecular point group: c1
  Charge       = 0
  Multiplicity = 1
  Basis Set: AUG-CC-PVTZ
    Blend: AUG-CC-PVTZ
  Basis Set: (AUG-CC-PVTZ AUX)
    Blend: AUG-CC-PVTZ-JKFIT

    Orbital Energies [Eh]
    ---------------------

    Doubly Occupied:

       1A    -15.537071     2A    -11.242019     3A    -11.224098
       4A    -11.217979     5A    -11.217218     6A    -11.216386
       7A    -11.213984     8A     -1.175567     9A     -1.108922
      10A     -0.975566    11A     -0.965744    12A     -0.865753
      13A     -0.786012    14A     -0.757683    15A     -0.665738
      16A     -0.649379    17A     -0.634819    18A     -0.592344
      19A     -0.577956    20A     -0.556855    21A     -0.518395
      22A     -0.496008    23A     -0.481920    24A     -0.471046
      25A     -0.463881    26A     -0.450223    27A     -0.423766
      28A     -0.377736

  @DF-RHF Final Energy:  -289.29866265420316

   => Energetics <=

    Nuclear Repulsion Energy =            322.8382175638336093
    One-Electron Energy =               -1030.5456242229831787
    Two-Electron Energy =                 418.4087440049464135
    Total Energy =                       -289.2986626542031559
  Basis Set: (AUG-CC-PVTZ AUX)
    Blend: AUG-CC-PVTZ-RI
    Molecular point group: c1

    Geometry (in Angstrom), charge = 0, multiplicity = 1:

       Center              X                  Y                   Z               Mass
    ------------   -----------------  -----------------  -----------------  -----------------
         N            2.727041011008     0.332488606559    -0.132600769684    14.003074004430
         C            0.311359011008    -0.203754393441     0.458937230316    12.000000000000
         C           -0.255612988992     1.150734606559    -0.014784769684    12.000000000000
         C           -0.949533988992    -1.322870393441     0.300079430316    12.000000000000
         C           -1.772889988992     0.989233606559     0.091233230316    12.000000000000
         C           -1.986931988992    -0.438317393441    -0.412744769684    12.000000000000
         C            1.601597011008    -0.596242393441    -0.263535769684    12.000000000000
         H            0.535389011008    -0.136368393441     1.533031230316     1.007825032230
         H            0.014257011008     1.316577606559    -1.067852769684     1.007825032230
         H            0.131782011008     1.999676606559     0.558126230316     1.007825032230
         H           -1.160302988992    -1.648727393441     1.193977230316     1.007825032230
         H           -0.512429988992    -2.070262393441    -0.385203769684     1.007825032230
         H           -2.330266988992     1.741448606559    -0.476838769684     1.007825032230
         H           -2.085050988992     1.066190606559     1.140298230316     1.007825032230
         H           -2.973387988992    -0.846382393441    -0.170098769684     1.007825032230
         H           -1.887059988992    -0.454166393441    -1.504794769684     1.007825032230
         H            1.386294011008    -0.707724393441    -1.334378769684     1.007825032230
         H            1.938925011008    -1.577900393441     0.090420230316     1.007825032230
         H            2.939078011008     0.465113606559     0.856071230316     1.007825032230
         H            2.452106011008     1.248162606559    -0.485738769684     1.007825032230

  Basis Set: AUG-CC-PVTZ
    Blend: AUG-CC-PVTZ
  Basis Set: (AUG-CC-PVTZ AUX)
    Blend: AUG-CC-PVTZ-JKFIT
	 Reference Energy          =    -289.2986626542031559 [Eh]
	 Singles Energy            =      -0.0000000000000000 [Eh]
	 Same-Spin Energy          =      -0.3127042182384599 [Eh]
	 Opposite-Spin Energy      =      -1.0982977487291128 [Eh]
	 Correlation Energy        =      -1.4110019669675726 [Eh]
	 Total Energy              =    -290.7096646211707025 [Eh]

	 ================> DF-SCS-MP2 Energies <==================
	-----------------------------------------------------------
	 SCS Same-Spin Scale       =       0.3333333333333333 [-]
	 SCS Opposite-Spin Scale   =       1.2000000000000000 [-]
	 SCS Same-Spin Energy      =      -0.1042347394128200 [Eh]
	 SCS Opposite-Spin Energy  =      -1.3179572984749353 [Eh]
	 SCS Correlation Energy    =      -1.4221920378877553 [Eh]
	 SCS Total Energy          =    -290.7208546920909384 [Eh]
	-----------------------------------------------------------

  Dipole Moment: [D]
     X:    -1.2939      Y:     0.4878      Z:     0.7970     Total:     1.5961

*** Psi4 exiting successfully. Buy a developer a beer!
