                               Psi4 1.4a3.dev225

  ==> Input File <==

--------------------------------------------------------------------------
#psi4
#
memory 32 gb

molecule  {
0 1
  N        2.7287650     0.3187530    -0.1253010
  C        0.3130830    -0.2174900     0.4662370
  C       -0.2538890     1.1369990    -0.0074850
  C       -0.8349900    -1.2410350     0.2435950
  C       -1.7711660     0.9754980     0.0985330
  C       -1.9852080    -0.4520530    -0.4054450
  C        1.6033210    -0.6099780    -0.2562360
  H        0.5371130    -0.1501040     1.5403310
  H        0.0159810     1.3028420    -1.0605530
  H        0.1335060     1.9859410     0.5654260
  H       -1.1409683    -1.7315756     1.1737635
  H       -0.5107060    -2.0839980    -0.3779040
  H       -2.3285430     1.7277130    -0.4695390
  H       -2.0833270     1.0524550     1.1475980
  H       -2.9716640    -0.8601180    -0.1627990
  H       -1.8853360    -0.4679020    -1.4974950
  H        1.3880180    -0.7214600    -1.3270790
  H        1.9406490    -1.5916360     0.0977200
  H        2.9408020     0.4513780     0.8633710
  H        2.4538300     1.2344270    -0.4784390
units angstrom
no_reorient  #important for SAPT in psi4, default
symmetry c1  #important for SAPT in psi4, default
}

set PROPERTIES_ORIGIN ["COM"]
properties('MP2/aug-cc-pvtz', properties = ['dipole'])
--------------------------------------------------------------------------

    Molecular point group: c1
  Charge       = 0
  Multiplicity = 1
  Basis Set: AUG-CC-PVTZ
    Blend: AUG-CC-PVTZ
  Basis Set: (AUG-CC-PVTZ AUX)
    Blend: AUG-CC-PVTZ-JKFIT

    Orbital Energies [Eh]
    ---------------------

    Doubly Occupied:

       1A    -15.537036     2A    -11.242428     3A    -11.220423
       4A    -11.217256     5A    -11.216835     6A    -11.216338
       7A    -11.215550     8A     -1.177337     9A     -1.117485
      10A     -0.982833    11A     -0.961195    12A     -0.864779
      13A     -0.782641    14A     -0.757250    15A     -0.668690
      16A     -0.648032    17A     -0.641185    18A     -0.580264
      19A     -0.570815    20A     -0.557590    21A     -0.518049
      22A     -0.490214    23A     -0.480782    24A     -0.469001
      25A     -0.463455    26A     -0.454677    27A     -0.444462
      28A     -0.382287

  @DF-RHF Final Energy:  -289.32220764051630

   => Energetics <=

    Nuclear Repulsion Energy =            324.8593697566897163
    One-Electron Energy =               -1034.6053770017263105
    Two-Electron Energy =                 420.4237996045202976
    Total Energy =                       -289.3222076405162966
  Basis Set: (AUG-CC-PVTZ AUX)
    Blend: AUG-CC-PVTZ-RI
    Molecular point group: c1

    Geometry (in Angstrom), charge = 0, multiplicity = 1:

       Center              X                  Y                   Z               Mass
    ------------   -----------------  -----------------  -----------------  -----------------
         N            2.713201232185     0.321619318715    -0.124597734527    14.003074004430
         C            0.297519232185    -0.214623681285     0.466940265473    12.000000000000
         C           -0.269452767815     1.139865318715    -0.006781734527    12.000000000000
         C           -0.850553767815    -1.238168681285     0.244298265473    12.000000000000
         C           -1.786729767815     0.978364318715     0.099236265473    12.000000000000
         C           -2.000771767815    -0.449186681285    -0.404741734527    12.000000000000
         C            1.587757232185    -0.607111681285    -0.255532734527    12.000000000000
         H            0.521549232185    -0.147237681285     1.541034265473     1.007825032230
         H            0.000417232185     1.305708318715    -1.059849734527     1.007825032230
         H            0.117942232185     1.988807318715     0.566129265473     1.007825032230
         H           -1.156532067815    -1.728709281285     1.174466765473     1.007825032230
         H           -0.526269767815    -2.081131681285    -0.377200734527     1.007825032230
         H           -2.344106767815     1.730579318715    -0.468835734527     1.007825032230
         H           -2.098890767815     1.055321318715     1.148301265473     1.007825032230
         H           -2.987227767815    -0.857251681285    -0.162095734527     1.007825032230
         H           -1.900899767815    -0.465035681285    -1.496791734527     1.007825032230
         H            1.372454232185    -0.718593681285    -1.326375734527     1.007825032230
         H            1.925085232185    -1.588769681285     0.098423265473     1.007825032230
         H            2.925238232185     0.454244318715     0.864074265473     1.007825032230
         H            2.438266232185     1.237293318715    -0.477735734527     1.007825032230

  Basis Set: AUG-CC-PVTZ
    Blend: AUG-CC-PVTZ
  Basis Set: (AUG-CC-PVTZ AUX)
    Blend: AUG-CC-PVTZ-JKFIT
	 Reference Energy          =    -289.3222076405162966 [Eh]
	 Singles Energy            =      -0.0000000000000000 [Eh]
	 Same-Spin Energy          =      -0.3125955452817542 [Eh]
	 Opposite-Spin Energy      =      -1.0972496471909219 [Eh]
	 Correlation Energy        =      -1.4098451924726760 [Eh]
	 Total Energy              =    -290.7320528329889839 [Eh]

	 ================> DF-SCS-MP2 Energies <==================
	-----------------------------------------------------------
	 SCS Same-Spin Scale       =       0.3333333333333333 [-]
	 SCS Opposite-Spin Scale   =       1.2000000000000000 [-]
	 SCS Same-Spin Energy      =      -0.1041985150939180 [Eh]
	 SCS Opposite-Spin Energy  =      -1.3166995766291063 [Eh]
	 SCS Correlation Energy    =      -1.4208980917230243 [Eh]
	 SCS Total Energy          =    -290.7431057322393144 [Eh]
	-----------------------------------------------------------

  Dipole Moment: [D]
     X:    -1.3039      Y:     0.4544      Z:     0.7682     Total:     1.5801

*** Psi4 exiting successfully. Buy a developer a beer!
