                               Psi4 1.4a3.dev225

  ==> Input File <==

--------------------------------------------------------------------------
#psi4
#
memory 32 gb

molecule  {
0 1
  N        2.7287650     0.3187530    -0.1253010
  C        0.3130830    -0.2174900     0.4662370
  C       -0.2420455     1.0092027     0.0882195
  C       -0.8349900    -1.2410350     0.2435950
  C       -1.7711660     0.9754980     0.0985330
  C       -1.9852080    -0.4520530    -0.4054450
  C        1.6033210    -0.6099780    -0.2562360
  H        0.5371130    -0.1501040     1.5403310
  H        0.0159810     1.3028420    -1.0605530
  H        0.1335060     1.9859410     0.5654260
  H       -1.1585790    -1.6624630     1.2012770
  H       -0.5107060    -2.0839980    -0.3779040
  H       -2.3285430     1.7277130    -0.4695390
  H       -2.0833270     1.0524550     1.1475980
  H       -2.9716640    -0.8601180    -0.1627990
  H       -1.8853360    -0.4679020    -1.4974950
  H        1.3880180    -0.7214600    -1.3270790
  H        1.9406490    -1.5916360     0.0977200
  H        2.9408020     0.4513780     0.8633710
  H        2.4538300     1.2344270    -0.4784390
units angstrom
no_reorient  #important for SAPT in psi4, default
symmetry c1  #important for SAPT in psi4, default
}

set PROPERTIES_ORIGIN ["COM"]
properties('MP2/aug-cc-pvtz', properties = ['dipole'])
--------------------------------------------------------------------------

    Molecular point group: c1
  Charge       = 0
  Multiplicity = 1
  Basis Set: AUG-CC-PVTZ
    Blend: AUG-CC-PVTZ
  Basis Set: (AUG-CC-PVTZ AUX)
    Blend: AUG-CC-PVTZ-JKFIT

    Orbital Energies [Eh]
    ---------------------

    Doubly Occupied:

       1A    -15.537690     2A    -11.244738     3A    -11.226317
       4A    -11.218374     5A    -11.217614     6A    -11.216036
       7A    -11.213771     8A     -1.182233     9A     -1.132442
      10A     -0.993601    11A     -0.959248    12A     -0.870578
      13A     -0.784427    14A     -0.750254    15A     -0.670371
      16A     -0.653238    17A     -0.647136    18A     -0.581831
      19A     -0.567172    20A     -0.559625    21A     -0.531280
      22A     -0.494222    23A     -0.477790    24A     -0.474092
      25A     -0.458266    26A     -0.452301    27A     -0.428622
      28A     -0.381882

  @DF-RHF Final Energy:  -289.29394112314094

   => Energetics <=

    Nuclear Repulsion Energy =            327.0072263235853143
    One-Electron Energy =               -1038.7520394634334480
    Two-Electron Energy =                 422.4508720167071942
    Total Energy =                       -289.2939411231409395
  Basis Set: (AUG-CC-PVTZ AUX)
    Blend: AUG-CC-PVTZ-RI
    Molecular point group: c1

    Geometry (in Angstrom), charge = 0, multiplicity = 1:

       Center              X                  Y                   Z               Mass
    ------------   -----------------  -----------------  -----------------  -----------------
         N            2.711946262735     0.336390572985    -0.136465805507    14.003074004430
         C            0.296264262735    -0.199852427015     0.455072194493    12.000000000000
         C           -0.258864237265     1.026840272985     0.077054694493    12.000000000000
         C           -0.851808737265    -1.223397427015     0.232430194493    12.000000000000
         C           -1.787984737265     0.993135572985     0.087368194493    12.000000000000
         C           -2.002026737265    -0.434415427015    -0.416609805507    12.000000000000
         C            1.586502262735    -0.592340427015    -0.267400805507    12.000000000000
         H            0.520294262735    -0.132466427015     1.529166194493     1.007825032230
         H           -0.000837737265     1.320479572985    -1.071717805507     1.007825032230
         H            0.116687262735     2.003578572985     0.554261194493     1.007825032230
         H           -1.175397737265    -1.644825427015     1.190112194493     1.007825032230
         H           -0.527524737265    -2.066360427015    -0.389068805507     1.007825032230
         H           -2.345361737265     1.745350572985    -0.480703805507     1.007825032230
         H           -2.100145737265     1.070092572985     1.136433194493     1.007825032230
         H           -2.988482737265    -0.842480427015    -0.173963805507     1.007825032230
         H           -1.902154737265    -0.450264427015    -1.508659805507     1.007825032230
         H            1.371199262735    -0.703822427015    -1.338243805507     1.007825032230
         H            1.923830262735    -1.573998427015     0.086555194493     1.007825032230
         H            2.923983262735     0.469015572985     0.852206194493     1.007825032230
         H            2.437011262735     1.252064572985    -0.489603805507     1.007825032230

  Basis Set: AUG-CC-PVTZ
    Blend: AUG-CC-PVTZ
  Basis Set: (AUG-CC-PVTZ AUX)
    Blend: AUG-CC-PVTZ-JKFIT
	 Reference Energy          =    -289.2939411231409395 [Eh]
	 Singles Energy            =      -0.0000000000000000 [Eh]
	 Same-Spin Energy          =      -0.3145714559572257 [Eh]
	 Opposite-Spin Energy      =      -1.0997774449859219 [Eh]
	 Correlation Energy        =      -1.4143489009431476 [Eh]
	 Total Energy              =    -290.7082900240840786 [Eh]

	 ================> DF-SCS-MP2 Energies <==================
	-----------------------------------------------------------
	 SCS Same-Spin Scale       =       0.3333333333333333 [-]
	 SCS Opposite-Spin Scale   =       1.2000000000000000 [-]
	 SCS Same-Spin Energy      =      -0.1048571519857419 [Eh]
	 SCS Opposite-Spin Energy  =      -1.3197329339831063 [Eh]
	 SCS Correlation Energy    =      -1.4245900859688483 [Eh]
	 SCS Total Energy          =    -290.7185312091098126 [Eh]
	-----------------------------------------------------------

  Dipole Moment: [D]
     X:    -1.3298      Y:     0.4125      Z:     0.8301     Total:     1.6209

*** Psi4 exiting successfully. Buy a developer a beer!
