                               Psi4 1.4a3.dev225

  ==> Input File <==

--------------------------------------------------------------------------
#psi4
#
memory 32 gb

molecule  {
0 1
  N        2.7287650     0.3187530    -0.1253010
  C        0.3130830    -0.2174900     0.4662370
  C       -0.2538890     1.1369990    -0.0074850
  C       -0.8349900    -1.2410350     0.2435950
  C       -1.7711660     0.9754980     0.0985330
  C       -1.9852080    -0.4520530    -0.4054450
  C        1.6033210    -0.6099780    -0.2562360
  H        0.5371130    -0.1501040     1.5403310
  H        0.0159810     1.3028420    -1.0605530
  H        0.1335060     1.9859410     0.5654260
  H       -1.1881251    -1.7009425     1.2887205
  H       -0.5107060    -2.0839980    -0.3779040
  H       -2.3285430     1.7277130    -0.4695390
  H       -2.0833270     1.0524550     1.1475980
  H       -2.9716640    -0.8601180    -0.1627990
  H       -1.8853360    -0.4679020    -1.4974950
  H        1.3880180    -0.7214600    -1.3270790
  H        1.9406490    -1.5916360     0.0977200
  H        2.9408020     0.4513780     0.8633710
  H        2.4538300     1.2344270    -0.4784390
units angstrom
no_reorient  #important for SAPT in psi4, default
symmetry c1  #important for SAPT in psi4, default
}

set PROPERTIES_ORIGIN ["COM"]
properties('MP2/aug-cc-pvtz', properties = ['dipole'])
--------------------------------------------------------------------------

    Molecular point group: c1
  Charge       = 0
  Multiplicity = 1
  Basis Set: AUG-CC-PVTZ
    Blend: AUG-CC-PVTZ
  Basis Set: (AUG-CC-PVTZ AUX)
    Blend: AUG-CC-PVTZ-JKFIT

    Orbital Energies [Eh]
    ---------------------

    Doubly Occupied:

       1A    -15.537592     2A    -11.243056     3A    -11.228192
       4A    -11.220991     5A    -11.217758     6A    -11.217443
       7A    -11.216842     8A     -1.177865     9A     -1.117564
      10A     -0.983309    11A     -0.958352    12A     -0.863478
      13A     -0.781262    14A     -0.753289    15A     -0.667940
      16A     -0.646047    17A     -0.642382    18A     -0.579838
      19A     -0.567952    20A     -0.558391    21A     -0.518653
      22A     -0.489245    23A     -0.477255    24A     -0.469099
      25A     -0.464649    26A     -0.455902    27A     -0.440450
      28A     -0.382368

  @DF-RHF Final Energy:  -289.31629167909972

   => Energetics <=

    Nuclear Repulsion Energy =            324.4711025541402023
    One-Electron Energy =               -1033.8204612626761900
    Two-Electron Energy =                 420.0330670294362676
    Total Energy =                       -289.3162916790997201
  Basis Set: (AUG-CC-PVTZ AUX)
    Blend: AUG-CC-PVTZ-RI
    Molecular point group: c1

    Geometry (in Angstrom), charge = 0, multiplicity = 1:

       Center              X                  Y                   Z               Mass
    ------------   -----------------  -----------------  -----------------  -----------------
         N            2.713680783163     0.321307801965    -0.125766765118    14.003074004430
         C            0.297998783163    -0.214935198035     0.465771234882    12.000000000000
         C           -0.268973216837     1.139553801965    -0.007950765118    12.000000000000
         C           -0.850074216837    -1.238480198035     0.243129234882    12.000000000000
         C           -1.786250216837     0.978052801965     0.098067234882    12.000000000000
         C           -2.000292216837    -0.449498198035    -0.405910765118    12.000000000000
         C            1.588236783163    -0.607423198035    -0.256701765118    12.000000000000
         H            0.522028783163    -0.147549198035     1.539865234882     1.007825032230
         H            0.000896783163     1.305396801965    -1.061018765118     1.007825032230
         H            0.118421783163     1.988495801965     0.564960234882     1.007825032230
         H           -1.203209316837    -1.698387698035     1.288254734882     1.007825032230
         H           -0.525790216837    -2.081443198035    -0.378369765118     1.007825032230
         H           -2.343627216837     1.730267801965    -0.470004765118     1.007825032230
         H           -2.098411216837     1.055009801965     1.147132234882     1.007825032230
         H           -2.986748216837    -0.857563198035    -0.163264765118     1.007825032230
         H           -1.900420216837    -0.465347198035    -1.497960765118     1.007825032230
         H            1.372933783163    -0.718905198035    -1.327544765118     1.007825032230
         H            1.925564783163    -1.589081198035     0.097254234882     1.007825032230
         H            2.925717783163     0.453932801965     0.862905234882     1.007825032230
         H            2.438745783163     1.236981801965    -0.478904765118     1.007825032230

  Basis Set: AUG-CC-PVTZ
    Blend: AUG-CC-PVTZ
  Basis Set: (AUG-CC-PVTZ AUX)
    Blend: AUG-CC-PVTZ-JKFIT
	 Reference Energy          =    -289.3162916790997201 [Eh]
	 Singles Energy            =      -0.0000000000000000 [Eh]
	 Same-Spin Energy          =      -0.3126038007110030 [Eh]
	 Opposite-Spin Energy      =      -1.0980830249771452 [Eh]
	 Correlation Energy        =      -1.4106868256881482 [Eh]
	 Total Energy              =    -290.7269785047878941 [Eh]

	 ================> DF-SCS-MP2 Energies <==================
	-----------------------------------------------------------
	 SCS Same-Spin Scale       =       0.3333333333333333 [-]
	 SCS Opposite-Spin Scale   =       1.2000000000000000 [-]
	 SCS Same-Spin Energy      =      -0.1042012669036677 [Eh]
	 SCS Opposite-Spin Energy  =      -1.3176996299725741 [Eh]
	 SCS Correlation Energy    =      -1.4219008968762417 [Eh]
	 SCS Total Energy          =    -290.7381925759759724 [Eh]
	-----------------------------------------------------------

  Dipole Moment: [D]
     X:    -1.2797      Y:     0.5227      Z:     0.7077     Total:     1.5529

*** Psi4 exiting successfully. Buy a developer a beer!
