                               Psi4 1.4a3.dev225

  ==> Input File <==

--------------------------------------------------------------------------
#psi4
#
memory 32 gb

molecule  {
0 1
  N        2.7287650     0.3187530    -0.1253010
  C        0.2963190    -0.2023014     0.4812035
  C       -0.2538890     1.1369990    -0.0074850
  C       -0.8349900    -1.2410350     0.2435950
  C       -1.7711660     0.9754980     0.0985330
  C       -1.9852080    -0.4520530    -0.4054450
  C        1.6033210    -0.6099780    -0.2562360
  H        0.5371130    -0.1501040     1.5403310
  H        0.0159810     1.3028420    -1.0605530
  H        0.1335060     1.9859410     0.5654260
  H       -1.1585790    -1.6624630     1.2012770
  H       -0.5107060    -2.0839980    -0.3779040
  H       -2.3285430     1.7277130    -0.4695390
  H       -2.0833270     1.0524550     1.1475980
  H       -2.9716640    -0.8601180    -0.1627990
  H       -1.8853360    -0.4679020    -1.4974950
  H        1.3880180    -0.7214600    -1.3270790
  H        1.9406490    -1.5916360     0.0977200
  H        2.9408020     0.4513780     0.8633710
  H        2.4538300     1.2344270    -0.4784390
units angstrom
no_reorient  #important for SAPT in psi4, default
symmetry c1  #important for SAPT in psi4, default
}

set PROPERTIES_ORIGIN ["COM"]
properties('MP2/aug-cc-pvtz', properties = ['dipole'])
--------------------------------------------------------------------------

    Molecular point group: c1
  Charge       = 0
  Multiplicity = 1
  Basis Set: AUG-CC-PVTZ
    Blend: AUG-CC-PVTZ
  Basis Set: (AUG-CC-PVTZ AUX)
    Blend: AUG-CC-PVTZ-JKFIT

    Orbital Energies [Eh]
    ---------------------

    Doubly Occupied:

       1A    -15.536702     2A    -11.243176     3A    -11.219204
       4A    -11.216830     5A    -11.216194     6A    -11.215857
       7A    -11.215277     8A     -1.176166     9A     -1.118970
      10A     -0.980264    11A     -0.961999    12A     -0.863419
      13A     -0.782741    14A     -0.757170    15A     -0.668010
      16A     -0.648395    17A     -0.641217    18A     -0.579910
      19A     -0.572376    20A     -0.557629    21A     -0.516373
      22A     -0.489743    23A     -0.478463    24A     -0.468681
      25A     -0.465063    26A     -0.455771    27A     -0.449221
      28A     -0.378571

  @DF-RHF Final Energy:  -289.32207530206074

   => Energetics <=

    Nuclear Repulsion Energy =            324.9040870850198530
    One-Electron Energy =               -1034.7055404877517049
    Two-Electron Energy =                 420.4793781006710560
    Total Energy =                       -289.3220753020607390
  Basis Set: (AUG-CC-PVTZ AUX)
    Blend: AUG-CC-PVTZ-RI
    Molecular point group: c1

    Geometry (in Angstrom), charge = 0, multiplicity = 1:

       Center              X                  Y                   Z               Mass
    ------------   -----------------  -----------------  -----------------  -----------------
         N            2.715410171667     0.319077397337    -0.126689730023    14.003074004430
         C            0.282964171667    -0.201977002663     0.479814769977    12.000000000000
         C           -0.267243828333     1.137323397337    -0.008873730023    12.000000000000
         C           -0.848344828333    -1.240710602663     0.242206269977    12.000000000000
         C           -1.784520828333     0.975822397337     0.097144269977    12.000000000000
         C           -1.998562828333    -0.451728602663    -0.406833730023    12.000000000000
         C            1.589966171667    -0.609653602663    -0.257624730023    12.000000000000
         H            0.523758171667    -0.149779602663     1.538942269977     1.007825032230
         H            0.002626171667     1.303166397337    -1.061941730023     1.007825032230
         H            0.120151171667     1.986265397337     0.564037269977     1.007825032230
         H           -1.171933828333    -1.662138602663     1.199888269977     1.007825032230
         H           -0.524060828333    -2.083673602663    -0.379292730023     1.007825032230
         H           -2.341897828333     1.728037397337    -0.470927730023     1.007825032230
         H           -2.096681828333     1.052779397337     1.146209269977     1.007825032230
         H           -2.985018828333    -0.859793602663    -0.164187730023     1.007825032230
         H           -1.898690828333    -0.467577602663    -1.498883730023     1.007825032230
         H            1.374663171667    -0.721135602663    -1.328467730023     1.007825032230
         H            1.927294171667    -1.591311602663     0.096331269977     1.007825032230
         H            2.927447171667     0.451702397337     0.861982269977     1.007825032230
         H            2.440475171667     1.234751397337    -0.479827730023     1.007825032230

  Basis Set: AUG-CC-PVTZ
    Blend: AUG-CC-PVTZ
  Basis Set: (AUG-CC-PVTZ AUX)
    Blend: AUG-CC-PVTZ-JKFIT
	 Reference Energy          =    -289.3220753020607390 [Eh]
	 Singles Energy            =      -0.0000000000000000 [Eh]
	 Same-Spin Energy          =      -0.3125989488831789 [Eh]
	 Opposite-Spin Energy      =      -1.0973317778671512 [Eh]
	 Correlation Energy        =      -1.4099307267503300 [Eh]
	 Total Energy              =    -290.7320060288110426 [Eh]

	 ================> DF-SCS-MP2 Energies <==================
	-----------------------------------------------------------
	 SCS Same-Spin Scale       =       0.3333333333333333 [-]
	 SCS Opposite-Spin Scale   =       1.2000000000000000 [-]
	 SCS Same-Spin Energy      =      -0.1041996496277263 [Eh]
	 SCS Opposite-Spin Energy  =      -1.3167981334405814 [Eh]
	 SCS Correlation Energy    =      -1.4209977830683076 [Eh]
	 SCS Total Energy          =    -290.7430730851290264 [Eh]
	-----------------------------------------------------------

  Dipole Moment: [D]
     X:    -1.2937      Y:     0.4746      Z:     0.7762     Total:     1.5815

*** Psi4 exiting successfully. Buy a developer a beer!
