                               Psi4 1.4a3.dev225

  ==> Input File <==

--------------------------------------------------------------------------
#psi4
#
memory 32 gb

molecule  {
0 1
  N        2.7287650     0.3187530    -0.1253010
  C        0.3130830    -0.2174900     0.4662370
  C       -0.2538890     1.1369990    -0.0074850
  C       -0.8349900    -1.2410350     0.2435950
  C       -1.7711660     0.9754980     0.0985330
  C       -1.9852080    -0.4520530    -0.4054450
  C        1.5189886    -0.5843242    -0.2090138
  H        0.5371130    -0.1501040     1.5403310
  H        0.0159810     1.3028420    -1.0605530
  H        0.1335060     1.9859410     0.5654260
  H       -1.1585790    -1.6624630     1.2012770
  H       -0.5107060    -2.0839980    -0.3779040
  H       -2.3285430     1.7277130    -0.4695390
  H       -2.0833270     1.0524550     1.1475980
  H       -2.9716640    -0.8601180    -0.1627990
  H       -1.8853360    -0.4679020    -1.4974950
  H        1.3880180    -0.7214600    -1.3270790
  H        1.9406490    -1.5916360     0.0977200
  H        2.9408020     0.4513780     0.8633710
  H        2.4538300     1.2344270    -0.4784390
units angstrom
no_reorient  #important for SAPT in psi4, default
symmetry c1  #important for SAPT in psi4, default
}

set PROPERTIES_ORIGIN ["COM"]
properties('MP2/aug-cc-pvtz', properties = ['dipole'])
--------------------------------------------------------------------------

    Molecular point group: c1
  Charge       = 0
  Multiplicity = 1
  Basis Set: AUG-CC-PVTZ
    Blend: AUG-CC-PVTZ
  Basis Set: (AUG-CC-PVTZ AUX)
    Blend: AUG-CC-PVTZ-JKFIT

    Orbital Energies [Eh]
    ---------------------

    Doubly Occupied:

       1A    -15.538023     2A    -11.245551     3A    -11.218796
       4A    -11.218454     5A    -11.218094     6A    -11.217692
       7A    -11.217321     8A     -1.172933     9A     -1.119294
      10A     -0.997755    11A     -0.963492    12A     -0.861985
      13A     -0.784818    14A     -0.758614    15A     -0.667014
      16A     -0.646436    17A     -0.645448    18A     -0.584115
      19A     -0.574766    20A     -0.548648    21A     -0.519132
      22A     -0.487418    23A     -0.478373    24A     -0.470786
      25A     -0.465527    26A     -0.452703    27A     -0.436541
      28A     -0.395526

  @DF-RHF Final Energy:  -289.31077239893716

   => Energetics <=

    Nuclear Repulsion Energy =            326.0839437909173171
    One-Electron Energy =               -1036.9789204489636631
    Two-Electron Energy =                 421.5842042591091285
    Total Energy =                       -289.3107723989371607
  Basis Set: (AUG-CC-PVTZ AUX)
    Blend: AUG-CC-PVTZ-RI
    Molecular point group: c1

    Geometry (in Angstrom), charge = 0, multiplicity = 1:

       Center              X                  Y                   Z               Mass
    ------------   -----------------  -----------------  -----------------  -----------------
         N            2.723591620040     0.317810229644    -0.130595377401    14.003074004430
         C            0.307909620040    -0.218432770356     0.460942622599    12.000000000000
         C           -0.259062379960     1.136056229644    -0.012779377401    12.000000000000
         C           -0.840163379960    -1.241977770356     0.238300622599    12.000000000000
         C           -1.776339379960     0.974555229644     0.093238622599    12.000000000000
         C           -1.990381379960    -0.452995770356    -0.410739377401    12.000000000000
         C            1.513815220040    -0.585266970356    -0.214308177401    12.000000000000
         H            0.531939620040    -0.151046770356     1.535036622599     1.007825032230
         H            0.010807620040     1.301899229644    -1.065847377401     1.007825032230
         H            0.128332620040     1.984998229644     0.560131622599     1.007825032230
         H           -1.163752379960    -1.663405770356     1.195982622599     1.007825032230
         H           -0.515879379960    -2.084940770356    -0.383198377401     1.007825032230
         H           -2.333716379960     1.726770229644    -0.474833377401     1.007825032230
         H           -2.088500379960     1.051512229644     1.142303622599     1.007825032230
         H           -2.976837379960    -0.861060770356    -0.168093377401     1.007825032230
         H           -1.890509379960    -0.468844770356    -1.502789377401     1.007825032230
         H            1.382844620040    -0.722402770356    -1.332373377401     1.007825032230
         H            1.935475620040    -1.592578770356     0.092425622599     1.007825032230
         H            2.935628620040     0.450435229644     0.858076622599     1.007825032230
         H            2.448656620040     1.233484229644    -0.483733377401     1.007825032230

  Basis Set: AUG-CC-PVTZ
    Blend: AUG-CC-PVTZ
  Basis Set: (AUG-CC-PVTZ AUX)
    Blend: AUG-CC-PVTZ-JKFIT
	 Reference Energy          =    -289.3107723989371607 [Eh]
	 Singles Energy            =      -0.0000000000000000 [Eh]
	 Same-Spin Energy          =      -0.3136429055837113 [Eh]
	 Opposite-Spin Energy      =      -1.0991364045452010 [Eh]
	 Correlation Energy        =      -1.4127793101289123 [Eh]
	 Total Energy              =    -290.7235517090661006 [Eh]

	 ================> DF-SCS-MP2 Energies <==================
	-----------------------------------------------------------
	 SCS Same-Spin Scale       =       0.3333333333333333 [-]
	 SCS Opposite-Spin Scale   =       1.2000000000000000 [-]
	 SCS Same-Spin Energy      =      -0.1045476351945704 [Eh]
	 SCS Opposite-Spin Energy  =      -1.3189636854542413 [Eh]
	 SCS Correlation Energy    =      -1.4235113206488117 [Eh]
	 SCS Total Energy          =    -290.7342837195859602 [Eh]
	-----------------------------------------------------------

  Dipole Moment: [D]
     X:    -1.4922      Y:     0.4876      Z:     0.8172     Total:     1.7698

*** Psi4 exiting successfully. Buy a developer a beer!
