                               Psi4 1.4a3.dev225

  ==> Input File <==

--------------------------------------------------------------------------
#psi4
#
memory 32 gb

molecule  {
0 1
  N        2.7287650     0.3187530    -0.1253010
  C        0.3130830    -0.2174900     0.4662370
  C       -0.2538890     1.1369990    -0.0074850
  C       -0.8349900    -1.2410350     0.2435950
  C       -1.7711660     0.9754980     0.0985330
  C       -1.9852080    -0.4520530    -0.4054450
  C        1.6033210    -0.6099780    -0.2562360
  H        0.5371130    -0.1501040     1.5403310
  H        0.0159810     1.3028420    -1.0605530
  H        0.1335060     1.9859410     0.5654260
  H       -1.1585790    -1.6624630     1.2012770
  H       -0.5107060    -2.0839980    -0.3779040
  H       -2.3285430     1.7277130    -0.4695390
  H       -2.1402271     1.0664826     1.3388194
  H       -2.9716640    -0.8601180    -0.1627990
  H       -1.8853360    -0.4679020    -1.4974950
  H        1.3880180    -0.7214600    -1.3270790
  H        1.9406490    -1.5916360     0.0977200
  H        2.9408020     0.4513780     0.8633710
  H        2.4538300     1.2344270    -0.4784390
units angstrom
no_reorient  #important for SAPT in psi4, default
symmetry c1  #important for SAPT in psi4, default
}

set PROPERTIES_ORIGIN ["COM"]
properties('MP2/aug-cc-pvtz', properties = ['dipole'])
--------------------------------------------------------------------------

    Molecular point group: c1
  Charge       = 0
  Multiplicity = 1
  Basis Set: AUG-CC-PVTZ
    Blend: AUG-CC-PVTZ
  Basis Set: (AUG-CC-PVTZ AUX)
    Blend: AUG-CC-PVTZ-JKFIT

    Orbital Energies [Eh]
    ---------------------

    Doubly Occupied:

       1A    -15.537731     2A    -11.243155     3A    -11.240769
       4A    -11.220900     5A    -11.219718     6A    -11.219160
       7A    -11.216657     8A     -1.178085     9A     -1.117382
      10A     -0.981030    11A     -0.961600    12A     -0.864384
      13A     -0.770965    14A     -0.757015    15A     -0.669467
      16A     -0.646041    17A     -0.642684    18A     -0.575394
      19A     -0.570392    20A     -0.555475    21A     -0.519306
      22A     -0.491379    23A     -0.480561    24A     -0.471183
      25A     -0.456238    26A     -0.447842    27A     -0.443036
      28A     -0.382927

  @DF-RHF Final Energy:  -289.30347417979340

   => Energetics <=

    Nuclear Repulsion Energy =            324.0957018623465160
    One-Electron Energy =               -1033.0373978108527808
    Two-Electron Energy =                 419.6382217687129241
    Total Energy =                       -289.3034741797933975
  Basis Set: (AUG-CC-PVTZ AUX)
    Blend: AUG-CC-PVTZ-RI
    Molecular point group: c1

    Geometry (in Angstrom), charge = 0, multiplicity = 1:

       Center              X                  Y                   Z               Mass
    ------------   -----------------  -----------------  -----------------  -----------------
         N            2.713958953808     0.320773842257    -0.126822112246    14.003074004430
         C            0.298276953808    -0.215469157743     0.464715887754    12.000000000000
         C           -0.268695046192     1.139019842257    -0.009006112246    12.000000000000
         C           -0.849796046192    -1.239014157743     0.242073887754    12.000000000000
         C           -1.785972046192     0.977518842257     0.097011887754    12.000000000000
         C           -2.000014046192    -0.450032157743    -0.406966112246    12.000000000000
         C            1.588514953808    -0.607957157743    -0.257757112246    12.000000000000
         H            0.522306953808    -0.148083157743     1.538809887754     1.007825032230
         H            0.001174953808     1.304862842257    -1.062074112246     1.007825032230
         H            0.118699953808     1.987961842257     0.563904887754     1.007825032230
         H           -1.173385046192    -1.660442157743     1.199755887754     1.007825032230
         H           -0.525512046192    -2.081977157743    -0.379425112246     1.007825032230
         H           -2.343349046192     1.729733842257    -0.471060112246     1.007825032230
         H           -2.155033146192     1.068503442257     1.337298287754     1.007825032230
         H           -2.986470046192    -0.858097157743    -0.164320112246     1.007825032230
         H           -1.900142046192    -0.465881157743    -1.499016112246     1.007825032230
         H            1.373211953808    -0.719439157743    -1.328600112246     1.007825032230
         H            1.925842953808    -1.589615157743     0.096198887754     1.007825032230
         H            2.925995953808     0.453398842257     0.861849887754     1.007825032230
         H            2.439023953808     1.236447842257    -0.479960112246     1.007825032230

  Basis Set: AUG-CC-PVTZ
    Blend: AUG-CC-PVTZ
  Basis Set: (AUG-CC-PVTZ AUX)
    Blend: AUG-CC-PVTZ-JKFIT
	 Reference Energy          =    -289.3034741797933975 [Eh]
	 Singles Energy            =      -0.0000000000000000 [Eh]
	 Same-Spin Energy          =      -0.3125673827481734 [Eh]
	 Opposite-Spin Energy      =      -1.0988265753223851 [Eh]
	 Correlation Energy        =      -1.4113939580705586 [Eh]
	 Total Energy              =    -290.7148681378639594 [Eh]

	 ================> DF-SCS-MP2 Energies <==================
	-----------------------------------------------------------
	 SCS Same-Spin Scale       =       0.3333333333333333 [-]
	 SCS Opposite-Spin Scale   =       1.2000000000000000 [-]
	 SCS Same-Spin Energy      =      -0.1041891275827244 [Eh]
	 SCS Opposite-Spin Energy  =      -1.3185918903868621 [Eh]
	 SCS Correlation Energy    =      -1.4227810179695866 [Eh]
	 SCS Total Energy          =    -290.7262551977630096 [Eh]
	-----------------------------------------------------------

  Dipole Moment: [D]
     X:    -1.2215      Y:     0.4240      Z:     0.6015     Total:     1.4260

*** Psi4 exiting successfully. Buy a developer a beer!
