                               Psi4 1.4a3.dev225

  ==> Input File <==

--------------------------------------------------------------------------
#psi4
#
memory 32 gb

molecule  {
0 1
  N        2.7287650     0.3187530    -0.1253010
  C        0.3130830    -0.2174900     0.4662370
  C       -0.2538890     1.1369990    -0.0074850
  C       -0.8349900    -1.2410350     0.2435950
  C       -1.7711660     0.9754980     0.0985330
  C       -1.9852080    -0.4520530    -0.4054450
  C        1.6033210    -0.6099780    -0.2562360
  H        0.5371130    -0.1501040     1.5403310
  H        0.0159810     1.3028420    -1.0605530
  H        0.1335060     1.9859410     0.5654260
  H       -1.1585790    -1.6624630     1.2012770
  H       -0.5107060    -2.0839980    -0.3779040
  H       -2.3285430     1.7277130    -0.4695390
  H       -2.0833270     1.0524550     1.1475980
  H       -2.9716640    -0.8601180    -0.1627990
  H       -1.9035488    -0.4650118    -1.2983470
  H        1.3880180    -0.7214600    -1.3270790
  H        1.9406490    -1.5916360     0.0977200
  H        2.9408020     0.4513780     0.8633710
  H        2.4538300     1.2344270    -0.4784390
units angstrom
no_reorient  #important for SAPT in psi4, default
symmetry c1  #important for SAPT in psi4, default
}

set PROPERTIES_ORIGIN ["COM"]
properties('MP2/aug-cc-pvtz', properties = ['dipole'])
--------------------------------------------------------------------------

    Molecular point group: c1
  Charge       = 0
  Multiplicity = 1
  Basis Set: AUG-CC-PVTZ
    Blend: AUG-CC-PVTZ
  Basis Set: (AUG-CC-PVTZ AUX)
    Blend: AUG-CC-PVTZ-JKFIT

    Orbital Energies [Eh]
    ---------------------

    Doubly Occupied:

       1A    -15.536831     2A    -11.242236     3A    -11.219432
       4A    -11.216615     5A    -11.214956     6A    -11.214190
       7A    -11.190329     8A     -1.177263     9A     -1.121347
      10A     -0.988976    11A     -0.964928    12A     -0.867158
      13A     -0.801435    14A     -0.756750    15A     -0.668063
      16A     -0.651429    17A     -0.643629    18A     -0.588770
      19A     -0.577328    20A     -0.558078    21A     -0.518494
      22A     -0.492546    23A     -0.479032    24A     -0.472771
      25A     -0.465156    26A     -0.454949    27A     -0.446388
      28A     -0.381831

  @DF-RHF Final Energy:  -289.28966661679272

   => Energetics <=

    Nuclear Repulsion Energy =            325.9672482646256526
    One-Electron Energy =               -1036.6920107358209862
    Two-Electron Energy =                 421.4350958544026753
    Total Energy =                       -289.2896666167927151
  Basis Set: (AUG-CC-PVTZ AUX)
    Blend: AUG-CC-PVTZ-RI
    Molecular point group: c1

    Geometry (in Angstrom), charge = 0, multiplicity = 1:

       Center              X                  Y                   Z               Mass
    ------------   -----------------  -----------------  -----------------  -----------------
         N            2.713565531596     0.320887101661    -0.126902720107    14.003074004430
         C            0.297883531596    -0.215355898339     0.464635279893    12.000000000000
         C           -0.269088468404     1.139133101661    -0.009086720107    12.000000000000
         C           -0.850189468404    -1.238900898339     0.241993279893    12.000000000000
         C           -1.786365468404     0.977632101661     0.096931279893    12.000000000000
         C           -2.000407468404    -0.449918898339    -0.407046720107    12.000000000000
         C            1.588121531596    -0.607843898339    -0.257837720107    12.000000000000
         H            0.521913531596    -0.147969898339     1.538729279893     1.007825032230
         H            0.000781531596     1.304976101661    -1.062154720107     1.007825032230
         H            0.118306531596     1.988075101661     0.563824279893     1.007825032230
         H           -1.173778468404    -1.660328898339     1.199675279893     1.007825032230
         H           -0.525905468404    -2.081863898339    -0.379505720107     1.007825032230
         H           -2.343742468404     1.729847101661    -0.471140720107     1.007825032230
         H           -2.098526468404     1.054589101661     1.145996279893     1.007825032230
         H           -2.986863468404    -0.857983898339    -0.164400720107     1.007825032230
         H           -1.918748268404    -0.462877698339    -1.299948720107     1.007825032230
         H            1.372818531596    -0.719325898339    -1.328680720107     1.007825032230
         H            1.925449531596    -1.589501898339     0.096118279893     1.007825032230
         H            2.925602531596     0.453512101661     0.861769279893     1.007825032230
         H            2.438630531596     1.236561101661    -0.480040720107     1.007825032230

  Basis Set: AUG-CC-PVTZ
    Blend: AUG-CC-PVTZ
  Basis Set: (AUG-CC-PVTZ AUX)
    Blend: AUG-CC-PVTZ-JKFIT
	 Reference Energy          =    -289.2896666167927151 [Eh]
	 Singles Energy            =      -0.0000000000000000 [Eh]
	 Same-Spin Energy          =      -0.3126804905847274 [Eh]
	 Opposite-Spin Energy      =      -1.0966701085932158 [Eh]
	 Correlation Energy        =      -1.4093505991779431 [Eh]
	 Total Energy              =    -290.6990172159706844 [Eh]

	 ================> DF-SCS-MP2 Energies <==================
	-----------------------------------------------------------
	 SCS Same-Spin Scale       =       0.3333333333333333 [-]
	 SCS Opposite-Spin Scale   =       1.2000000000000000 [-]
	 SCS Same-Spin Energy      =      -0.1042268301949091 [Eh]
	 SCS Opposite-Spin Energy  =      -1.3160041303118588 [Eh]
	 SCS Correlation Energy    =      -1.4202309605067680 [Eh]
	 SCS Total Energy          =    -290.7098975772995004 [Eh]
	-----------------------------------------------------------

  Dipole Moment: [D]
     X:    -1.3228      Y:     0.4608      Z:     0.6672     Total:     1.5515

*** Psi4 exiting successfully. Buy a developer a beer!
