                               Psi4 1.4a3.dev225

  ==> Input File <==

--------------------------------------------------------------------------
#psi4
#
memory 32 gb

molecule  {
0 1
  N        2.7287650     0.3187530    -0.1253010
  C        0.3130830    -0.2174900     0.4662370
  C       -0.2538890     1.1369990    -0.0074850
  C       -0.8349900    -1.2410350     0.2435950
  C       -1.7711660     0.9754980     0.0985330
  C       -1.9852080    -0.4520530    -0.4054450
  C        1.6033210    -0.6099780    -0.2562360
  H        0.5371130    -0.1501040     1.5403310
  H        0.0159810     1.3028420    -1.0605530
  H        0.1335060     1.9859410     0.5654260
  H       -1.1585790    -1.6624630     1.2012770
  H       -0.5107060    -2.0839980    -0.3779040
  H       -2.3285430     1.7277130    -0.4695390
  H       -2.0975520     1.0559619     1.1954033
  H       -2.9716640    -0.8601180    -0.1627990
  H       -1.8853360    -0.4679020    -1.4974950
  H        1.3880180    -0.7214600    -1.3270790
  H        1.9406490    -1.5916360     0.0977200
  H        2.9408020     0.4513780     0.8633710
  H        2.4538300     1.2344270    -0.4784390
units angstrom
no_reorient  #important for SAPT in psi4, default
symmetry c1  #important for SAPT in psi4, default
}

set PROPERTIES_ORIGIN ["COM"]
properties('MP2/aug-cc-pvtz', properties = ['dipole'])
--------------------------------------------------------------------------

    Molecular point group: c1
  Charge       = 0
  Multiplicity = 1
  Basis Set: AUG-CC-PVTZ
    Blend: AUG-CC-PVTZ
  Basis Set: (AUG-CC-PVTZ AUX)
    Blend: AUG-CC-PVTZ-JKFIT

    Orbital Energies [Eh]
    ---------------------

    Doubly Occupied:

       1A    -15.537147     2A    -11.242535     3A    -11.223025
       4A    -11.220154     5A    -11.217446     6A    -11.216878
       7A    -11.215896     8A     -1.177461     9A     -1.117388
      10A     -0.981942    11A     -0.961099    12A     -0.864476
      13A     -0.778738    14A     -0.756096    15A     -0.668632
      16A     -0.647163    17A     -0.641865    18A     -0.578199
      19A     -0.572245    20A     -0.557857    21A     -0.518351
      22A     -0.491146    23A     -0.478547    24A     -0.468756
      25A     -0.460508    26A     -0.455169    27A     -0.445028
      28A     -0.382291

  @DF-RHF Final Energy:  -289.32075071114701

   => Energetics <=

    Nuclear Repulsion Energy =            324.7085208145489901
    One-Electron Energy =               -1034.3064662434160255
    Two-Electron Energy =                 420.2771947177199650
    Total Energy =                       -289.3207507111470136
  Basis Set: (AUG-CC-PVTZ AUX)
    Blend: AUG-CC-PVTZ-RI
    Molecular point group: c1

    Geometry (in Angstrom), charge = 0, multiplicity = 1:

       Center              X                  Y                   Z               Mass
    ------------   -----------------  -----------------  -----------------  -----------------
         N            2.713524978518     0.320880830263    -0.125363672933    14.003074004430
         C            0.297842978518    -0.215362169737     0.466174327067    12.000000000000
         C           -0.269129021482     1.139126830263    -0.007547672933    12.000000000000
         C           -0.850230021482    -1.238907169737     0.243532327067    12.000000000000
         C           -1.786406021482     0.977625830263     0.098470327067    12.000000000000
         C           -2.000448021482    -0.449925169737    -0.405507672933    12.000000000000
         C            1.588080978518    -0.607850169737    -0.256298672933    12.000000000000
         H            0.521872978518    -0.147976169737     1.540268327067     1.007825032230
         H            0.000740978518     1.304969830263    -1.060615672933     1.007825032230
         H            0.118265978518     1.988068830263     0.565363327067     1.007825032230
         H           -1.173819021482    -1.660335169737     1.201214327067     1.007825032230
         H           -0.525946021482    -2.081870169737    -0.377966672933     1.007825032230
         H           -2.343783021482     1.729840830263    -0.469601672933     1.007825032230
         H           -2.112792021482     1.058089730263     1.195340627067     1.007825032230
         H           -2.986904021482    -0.857990169737    -0.162861672933     1.007825032230
         H           -1.900576021482    -0.465774169737    -1.497557672933     1.007825032230
         H            1.372777978518    -0.719332169737    -1.327141672933     1.007825032230
         H            1.925408978518    -1.589508169737     0.097657327067     1.007825032230
         H            2.925561978518     0.453505830263     0.863308327067     1.007825032230
         H            2.438589978518     1.236554830263    -0.478501672933     1.007825032230

  Basis Set: AUG-CC-PVTZ
    Blend: AUG-CC-PVTZ
  Basis Set: (AUG-CC-PVTZ AUX)
    Blend: AUG-CC-PVTZ-JKFIT
	 Reference Energy          =    -289.3207507111470136 [Eh]
	 Singles Energy            =      -0.0000000000000000 [Eh]
	 Same-Spin Energy          =      -0.3125961738084829 [Eh]
	 Opposite-Spin Energy      =      -1.0976470415376200 [Eh]
	 Correlation Energy        =      -1.4102432153461031 [Eh]
	 Total Energy              =    -290.7309939264931131 [Eh]

	 ================> DF-SCS-MP2 Energies <==================
	-----------------------------------------------------------
	 SCS Same-Spin Scale       =       0.3333333333333333 [-]
	 SCS Opposite-Spin Scale   =       1.2000000000000000 [-]
	 SCS Same-Spin Energy      =      -0.1041987246028276 [Eh]
	 SCS Opposite-Spin Energy  =      -1.3171764498451439 [Eh]
	 SCS Correlation Energy    =      -1.4213751744479715 [Eh]
	 SCS Total Energy          =    -290.7421258855949873 [Eh]
	-----------------------------------------------------------

  Dipole Moment: [D]
     X:    -1.2887      Y:     0.4598      Z:     0.7337     Total:     1.5526

*** Psi4 exiting successfully. Buy a developer a beer!
