                               Psi4 1.4a3.dev225

  ==> Input File <==

--------------------------------------------------------------------------
#psi4
#
memory 32 gb

molecule  {
0 1
  N        2.7287650     0.3187530    -0.1253010
  C        0.3130830    -0.2174900     0.4662370
  C       -0.2538890     1.1369990    -0.0074850
  C       -0.8349900    -1.2410350     0.2435950
  C       -1.7711660     0.9754980     0.0985330
  C       -1.9852080    -0.4520530    -0.4054450
  C        1.6033210    -0.6099780    -0.2562360
  H        0.5371130    -0.1501040     1.5403310
  H        0.0159810     1.3028420    -1.0605530
  H        0.1335060     1.9859410     0.5654260
  H       -1.1585790    -1.6624630     1.2012770
  H       -0.5107060    -2.0839980    -0.3779040
  H       -2.3285430     1.7277130    -0.4695390
  H       -2.0833270     1.0524550     1.1475980
  H       -2.9716640    -0.8601180    -0.1627990
  H       -1.8853360    -0.4679020    -1.4974950
  H        1.3880180    -0.7214600    -1.3270790
  H        1.9406490    -1.5916360     0.0977200
  H        2.9408020     0.4513780     0.8633710
  H        2.4484348     1.2523956    -0.4853688
units angstrom
no_reorient  #important for SAPT in psi4, default
symmetry c1  #important for SAPT in psi4, default
}

set PROPERTIES_ORIGIN ["COM"]
properties('MP2/aug-cc-pvtz', properties = ['dipole'])
--------------------------------------------------------------------------

    Molecular point group: c1
  Charge       = 0
  Multiplicity = 1
  Basis Set: AUG-CC-PVTZ
    Blend: AUG-CC-PVTZ
  Basis Set: (AUG-CC-PVTZ AUX)
    Blend: AUG-CC-PVTZ-JKFIT

    Orbital Energies [Eh]
    ---------------------

    Doubly Occupied:

       1A    -15.539239     2A    -11.242470     3A    -11.219968
       4A    -11.217104     5A    -11.216594     6A    -11.216153
       7A    -11.215620     8A     -1.175239     9A     -1.117296
      10A     -0.982230    11A     -0.961112    12A     -0.863993
      13A     -0.782498    14A     -0.755815    15A     -0.666501
      16A     -0.647302    17A     -0.641127    18A     -0.580651
      19A     -0.572129    20A     -0.557427    21A     -0.517360
      22A     -0.491250    23A     -0.478017    24A     -0.468609
      25A     -0.464098    26A     -0.454892    27A     -0.444698
      28A     -0.381932

  @DF-RHF Final Energy:  -289.32180014851201

   => Energetics <=

    Nuclear Repulsion Energy =            324.8457861248037375
    One-Electron Energy =               -1034.5925213722334775
    Two-Electron Energy =                 420.4249350989177856
    Total Energy =                       -289.3218001485120112
  Basis Set: (AUG-CC-PVTZ AUX)
    Blend: AUG-CC-PVTZ-RI
    Molecular point group: c1

    Geometry (in Angstrom), charge = 0, multiplicity = 1:

       Center              X                  Y                   Z               Mass
    ------------   -----------------  -----------------  -----------------  -----------------
         N            2.713435185758     0.320733765102    -0.124807056056    14.003074004430
         C            0.297753185758    -0.215509234898     0.466730943944    12.000000000000
         C           -0.269218814242     1.138979765102    -0.006991056056    12.000000000000
         C           -0.850319814242    -1.239054234898     0.244088943944    12.000000000000
         C           -1.786495814242     0.977478765102     0.099026943944    12.000000000000
         C           -2.000537814242    -0.450072234898    -0.404951056056    12.000000000000
         C            1.587991185758    -0.607997234898    -0.255742056056    12.000000000000
         H            0.521783185758    -0.148123234898     1.540824943944     1.007825032230
         H            0.000651185758     1.304822765102    -1.060059056056     1.007825032230
         H            0.118176185758     1.987921765102     0.565919943944     1.007825032230
         H           -1.173908814242    -1.660482234898     1.201770943944     1.007825032230
         H           -0.526035814242    -2.082017234898    -0.377410056056     1.007825032230
         H           -2.343872814242     1.729693765102    -0.469045056056     1.007825032230
         H           -2.098656814242     1.054435765102     1.148091943944     1.007825032230
         H           -2.986993814242    -0.858137234898    -0.162305056056     1.007825032230
         H           -1.900665814242    -0.465921234898    -1.497001056056     1.007825032230
         H            1.372688185758    -0.719479234898    -1.326585056056     1.007825032230
         H            1.925319185758    -1.589655234898     0.098213943944     1.007825032230
         H            2.925472185758     0.453358765102     0.863864943944     1.007825032230
         H            2.433104985758     1.254376365102    -0.484874856056     1.007825032230

  Basis Set: AUG-CC-PVTZ
    Blend: AUG-CC-PVTZ
  Basis Set: (AUG-CC-PVTZ AUX)
    Blend: AUG-CC-PVTZ-JKFIT
	 Reference Energy          =    -289.3218001485120112 [Eh]
	 Singles Energy            =      -0.0000000000000000 [Eh]
	 Same-Spin Energy          =      -0.3127035522931942 [Eh]
	 Opposite-Spin Energy      =      -1.0976599941301233 [Eh]
	 Correlation Energy        =      -1.4103635464233175 [Eh]
	 Total Energy              =    -290.7321636949353092 [Eh]

	 ================> DF-SCS-MP2 Energies <==================
	-----------------------------------------------------------
	 SCS Same-Spin Scale       =       0.3333333333333333 [-]
	 SCS Opposite-Spin Scale   =       1.2000000000000000 [-]
	 SCS Same-Spin Energy      =      -0.1042345174310647 [Eh]
	 SCS Opposite-Spin Energy  =      -1.3171919929561480 [Eh]
	 SCS Correlation Energy    =      -1.4214265103872128 [Eh]
	 SCS Total Energy          =    -290.7432266588992320 [Eh]
	-----------------------------------------------------------

  Dipole Moment: [D]
     X:    -1.3075      Y:     0.4697      Z:     0.7664     Total:     1.5867

*** Psi4 exiting successfully. Buy a developer a beer!
