                               Psi4 1.4a3.dev225

  ==> Input File <==

--------------------------------------------------------------------------
#psi4
#
memory 32 gb

molecule  {
0 1
  N        2.7287650     0.3187530    -0.1253010
  C        0.3130830    -0.2174900     0.4662370
  C       -0.2538890     1.1369990    -0.0074850
  C       -0.8349900    -1.2410350     0.2435950
  C       -1.7711660     0.9754980     0.0985330
  C       -1.9852080    -0.4520530    -0.4054450
  C        1.6201875    -0.6151088    -0.2656804
  H        0.5371130    -0.1501040     1.5403310
  H        0.0159810     1.3028420    -1.0605530
  H        0.1335060     1.9859410     0.5654260
  H       -1.1585790    -1.6624630     1.2012770
  H       -0.5107060    -2.0839980    -0.3779040
  H       -2.3285430     1.7277130    -0.4695390
  H       -2.0833270     1.0524550     1.1475980
  H       -2.9716640    -0.8601180    -0.1627990
  H       -1.8853360    -0.4679020    -1.4974950
  H        1.3880180    -0.7214600    -1.3270790
  H        1.9406490    -1.5916360     0.0977200
  H        2.9408020     0.4513780     0.8633710
  H        2.4538300     1.2344270    -0.4784390
units angstrom
no_reorient  #important for SAPT in psi4, default
symmetry c1  #important for SAPT in psi4, default
}

set PROPERTIES_ORIGIN ["COM"]
properties('MP2/aug-cc-pvtz', properties = ['dipole'])
--------------------------------------------------------------------------

    Molecular point group: c1
  Charge       = 0
  Multiplicity = 1
  Basis Set: AUG-CC-PVTZ
    Blend: AUG-CC-PVTZ
  Basis Set: (AUG-CC-PVTZ AUX)
    Blend: AUG-CC-PVTZ-JKFIT

    Orbital Energies [Eh]
    ---------------------

    Doubly Occupied:

       1A    -15.536888     2A    -11.242036     3A    -11.220117
       4A    -11.216852     5A    -11.216326     6A    -11.215853
       7A    -11.215219     8A     -1.178627     9A     -1.117308
      10A     -0.980175    11A     -0.960680    12A     -0.865495
      13A     -0.782078    14A     -0.755139    15A     -0.669181
      16A     -0.648319    17A     -0.640675    18A     -0.581204
      19A     -0.571678    20A     -0.559961    21A     -0.518477
      22A     -0.491942    23A     -0.477815    24A     -0.468346
      25A     -0.463819    26A     -0.454915    27A     -0.445673
      28A     -0.378775

  @DF-RHF Final Energy:  -289.32271643702791

   => Energetics <=

    Nuclear Repulsion Energy =            324.7156460154811839
    One-Electron Energy =               -1034.3295845544962503
    Two-Electron Energy =                 420.2912221019871595
    Total Energy =                       -289.3227164370279070
  Basis Set: (AUG-CC-PVTZ AUX)
    Blend: AUG-CC-PVTZ-RI
    Molecular point group: c1

    Geometry (in Angstrom), charge = 0, multiplicity = 1:

       Center              X                  Y                   Z               Mass
    ------------   -----------------  -----------------  -----------------  -----------------
         N            2.711338058083     0.321537750432    -0.123733961970    14.003074004430
         C            0.295656058083    -0.214705249568     0.467804038030    12.000000000000
         C           -0.271315941917     1.139783750432    -0.005917961970    12.000000000000
         C           -0.852416941917    -1.238250249568     0.245162038030    12.000000000000
         C           -1.788592941917     0.978282750432     0.100100038030    12.000000000000
         C           -2.002634941917    -0.449268249568    -0.403877961970    12.000000000000
         C            1.602760558083    -0.612324049568    -0.264113361970    12.000000000000
         H            0.519686058083    -0.147319249568     1.541898038030     1.007825032230
         H           -0.001445941917     1.305626750432    -1.058985961970     1.007825032230
         H            0.116079058083     1.988725750432     0.566993038030     1.007825032230
         H           -1.176005941917    -1.659678249568     1.202844038030     1.007825032230
         H           -0.528132941917    -2.081213249568    -0.376336961970     1.007825032230
         H           -2.345969941917     1.730497750432    -0.467971961970     1.007825032230
         H           -2.100753941917     1.055239750432     1.149165038030     1.007825032230
         H           -2.989090941917    -0.857333249568    -0.161231961970     1.007825032230
         H           -1.902762941917    -0.465117249568    -1.495927961970     1.007825032230
         H            1.370591058083    -0.718675249568    -1.325511961970     1.007825032230
         H            1.923222058083    -1.588851249568     0.099287038030     1.007825032230
         H            2.923375058083     0.454162750432     0.864938038030     1.007825032230
         H            2.436403058083     1.237211750432    -0.476871961970     1.007825032230

  Basis Set: AUG-CC-PVTZ
    Blend: AUG-CC-PVTZ
  Basis Set: (AUG-CC-PVTZ AUX)
    Blend: AUG-CC-PVTZ-JKFIT
	 Reference Energy          =    -289.3227164370279070 [Eh]
	 Singles Energy            =      -0.0000000000000000 [Eh]
	 Same-Spin Energy          =      -0.3125097834195794 [Eh]
	 Opposite-Spin Energy      =      -1.0971484788213914 [Eh]
	 Correlation Energy        =      -1.4096582622409708 [Eh]
	 Total Energy              =    -290.7323746992688598 [Eh]

	 ================> DF-SCS-MP2 Energies <==================
	-----------------------------------------------------------
	 SCS Same-Spin Scale       =       0.3333333333333333 [-]
	 SCS Opposite-Spin Scale   =       1.2000000000000000 [-]
	 SCS Same-Spin Energy      =      -0.1041699278065265 [Eh]
	 SCS Opposite-Spin Energy  =      -1.3165781745856697 [Eh]
	 SCS Correlation Energy    =      -1.4207481023921962 [Eh]
	 SCS Total Energy          =    -290.7434645394201311 [Eh]
	-----------------------------------------------------------

  Dipole Moment: [D]
     X:    -1.2686      Y:     0.4680      Z:     0.7603     Total:     1.5512

*** Psi4 exiting successfully. Buy a developer a beer!
