                               Psi4 1.4a3.dev225

  ==> Input File <==

--------------------------------------------------------------------------
#psi4
#
memory 32 gb

molecule  {
0 1
  N        2.7287650     0.3187530    -0.1253010
  C        0.3130830    -0.2174900     0.4662370
  C       -0.2538890     1.1369990    -0.0074850
  C       -0.8349900    -1.2410350     0.2435950
  C       -1.7711660     0.9754980     0.0985330
  C       -1.9852080    -0.4520530    -0.4054450
  C        1.6033210    -0.6099780    -0.2562360
  H        0.5371130    -0.1501040     1.5403310
  H        0.0245178     1.3193020    -1.0555982
  H        0.1335060     1.9859410     0.5654260
  H       -1.1585790    -1.6624630     1.2012770
  H       -0.5107060    -2.0839980    -0.3779040
  H       -2.3285430     1.7277130    -0.4695390
  H       -2.0833270     1.0524550     1.1475980
  H       -2.9716640    -0.8601180    -0.1627990
  H       -1.8853360    -0.4679020    -1.4974950
  H        1.3880180    -0.7214600    -1.3270790
  H        1.9406490    -1.5916360     0.0977200
  H        2.9408020     0.4513780     0.8633710
  H        2.4538300     1.2344270    -0.4784390
units angstrom
no_reorient  #important for SAPT in psi4, default
symmetry c1  #important for SAPT in psi4, default
}

set PROPERTIES_ORIGIN ["COM"]
properties('MP2/aug-cc-pvtz', properties = ['dipole'])
--------------------------------------------------------------------------

    Molecular point group: c1
  Charge       = 0
  Multiplicity = 1
  Basis Set: AUG-CC-PVTZ
    Blend: AUG-CC-PVTZ
  Basis Set: (AUG-CC-PVTZ AUX)
    Blend: AUG-CC-PVTZ-JKFIT

    Orbital Energies [Eh]
    ---------------------

    Doubly Occupied:

       1A    -15.537022     2A    -11.242387     3A    -11.220082
       4A    -11.217152     5A    -11.216611     6A    -11.216184
       7A    -11.215634     8A     -1.177318     9A     -1.117630
      10A     -0.982769    11A     -0.961157    12A     -0.864825
      13A     -0.782601    14A     -0.756038    15A     -0.668425
      16A     -0.647827    17A     -0.641664    18A     -0.580613
      19A     -0.571845    20A     -0.558450    21A     -0.518183
      22A     -0.491039    23A     -0.478143    24A     -0.469090
      25A     -0.463882    26A     -0.454785    27A     -0.444975
      28A     -0.382148

  @DF-RHF Final Energy:  -289.32275357606756

   => Energetics <=

    Nuclear Repulsion Energy =            324.9105746273276623
    One-Electron Energy =               -1034.7096917973426571
    Two-Electron Energy =                 420.4763635939474966
    Total Energy =                       -289.3227535760675551
  Basis Set: (AUG-CC-PVTZ AUX)
    Blend: AUG-CC-PVTZ-RI
    Molecular point group: c1

    Geometry (in Angstrom), charge = 0, multiplicity = 1:

       Center              X                  Y                   Z               Mass
    ------------   -----------------  -----------------  -----------------  -----------------
         N            2.713293507268     0.320749106486    -0.124927913950    14.003074004430
         C            0.297611507268    -0.215493893514     0.466610086050    12.000000000000
         C           -0.269360492732     1.138995106486    -0.007111913950    12.000000000000
         C           -0.850461492732    -1.239038893514     0.243968086050    12.000000000000
         C           -1.786637492732     0.977494106486     0.098906086050    12.000000000000
         C           -2.000679492732    -0.450056893514    -0.405071913950    12.000000000000
         C            1.587849507268    -0.607981893514    -0.255862913950    12.000000000000
         H            0.521641507268    -0.148107893514     1.540704086050     1.007825032230
         H            0.009046307268     1.321298106486    -1.055225113950     1.007825032230
         H            0.118034507268     1.987937106486     0.565799086050     1.007825032230
         H           -1.174050492732    -1.660466893514     1.201650086050     1.007825032230
         H           -0.526177492732    -2.082001893514    -0.377530913950     1.007825032230
         H           -2.344014492732     1.729709106486    -0.469165913950     1.007825032230
         H           -2.098798492732     1.054451106486     1.147971086050     1.007825032230
         H           -2.987135492732    -0.858121893514    -0.162425913950     1.007825032230
         H           -1.900807492732    -0.465905893514    -1.497121913950     1.007825032230
         H            1.372546507268    -0.719463893514    -1.326705913950     1.007825032230
         H            1.925177507268    -1.589639893514     0.098093086050     1.007825032230
         H            2.925330507268     0.453374106486     0.863744086050     1.007825032230
         H            2.438358507268     1.236423106486    -0.478065913950     1.007825032230

  Basis Set: AUG-CC-PVTZ
    Blend: AUG-CC-PVTZ
  Basis Set: (AUG-CC-PVTZ AUX)
    Blend: AUG-CC-PVTZ-JKFIT
	 Reference Energy          =    -289.3227535760675551 [Eh]
	 Singles Energy            =      -0.0000000000000000 [Eh]
	 Same-Spin Energy          =      -0.3125822617440002 [Eh]
	 Opposite-Spin Energy      =      -1.0972892229609275 [Eh]
	 Correlation Energy        =      -1.4098714847049276 [Eh]
	 Total Energy              =    -290.7326250607724774 [Eh]

	 ================> DF-SCS-MP2 Energies <==================
	-----------------------------------------------------------
	 SCS Same-Spin Scale       =       0.3333333333333333 [-]
	 SCS Opposite-Spin Scale   =       1.2000000000000000 [-]
	 SCS Same-Spin Energy      =      -0.1041940872480001 [Eh]
	 SCS Opposite-Spin Energy  =      -1.3167470675531130 [Eh]
	 SCS Correlation Energy    =      -1.4209411548011130 [Eh]
	 SCS Total Energy          =    -290.7436947308686399 [Eh]
	-----------------------------------------------------------

  Dipole Moment: [D]
     X:    -1.3048      Y:     0.4720      Z:     0.7681     Total:     1.5860

*** Psi4 exiting successfully. Buy a developer a beer!
