                               Psi4 1.4a3.dev225

  ==> Input File <==

--------------------------------------------------------------------------
#psi4
#
memory 32 gb

molecule  {
0 1
  N        2.7287650     0.3187530    -0.1253010
  C        0.3130830    -0.2174900     0.4662370
  C       -0.2538890     1.1369990    -0.0074850
  C       -0.8349900    -1.2410350     0.2435950
  C       -1.7711660     0.9754980     0.0985330
  C       -1.9852080    -0.4520530    -0.4054450
  C        1.6033210    -0.6099780    -0.2562360
  H        0.5371130    -0.1501040     1.5403310
  H        0.0159810     1.3028420    -1.0605530
  H        0.1335060     1.9859410     0.5654260
  H       -1.1585790    -1.6624630     1.2012770
  H       -0.5107060    -2.0839980    -0.3779040
  H       -2.3285430     1.7277130    -0.4695390
  H       -2.0833270     1.0524550     1.1475980
  H       -2.9716640    -0.8601180    -0.1627990
  H       -1.8853360    -0.4679020    -1.4974950
  H        1.3880180    -0.7214600    -1.3270790
  H        1.9406490    -1.5916360     0.0977200
  H        2.9408020     0.4513780     0.8633710
  H        2.4808058     1.1445840    -0.4437902
units angstrom
no_reorient  #important for SAPT in psi4, default
symmetry c1  #important for SAPT in psi4, default
}

set PROPERTIES_ORIGIN ["COM"]
properties('MP2/aug-cc-pvtz', properties = ['dipole'])
--------------------------------------------------------------------------

    Molecular point group: c1
  Charge       = 0
  Multiplicity = 1
  Basis Set: AUG-CC-PVTZ
    Blend: AUG-CC-PVTZ
  Basis Set: (AUG-CC-PVTZ AUX)
    Blend: AUG-CC-PVTZ-JKFIT

    Orbital Energies [Eh]
    ---------------------

    Doubly Occupied:

       1A    -15.525131     2A    -11.242114     3A    -11.220125
       4A    -11.217232     5A    -11.216713     6A    -11.216264
       7A    -11.215727     8A     -1.190964     9A     -1.119946
      10A     -0.985936    11A     -0.961275    12A     -0.869432
      13A     -0.782585    14A     -0.756126    15A     -0.681303
      16A     -0.650866    17A     -0.642425    18A     -0.580785
      19A     -0.573584    20A     -0.562693    21A     -0.521195
      22A     -0.491420    23A     -0.478176    24A     -0.469095
      25A     -0.464200    26A     -0.455063    27A     -0.445234
      28A     -0.383354

  @DF-RHF Final Energy:  -289.31629751292814

   => Energetics <=

    Nuclear Repulsion Energy =            325.4237334365583934
    One-Electron Energy =               -1035.6421429541496764
    Two-Electron Energy =                 420.9021120046630813
    Total Energy =                       -289.3162975129281449
  Basis Set: (AUG-CC-PVTZ AUX)
    Blend: AUG-CC-PVTZ-RI
    Molecular point group: c1

    Geometry (in Angstrom), charge = 0, multiplicity = 1:

       Center              X                  Y                   Z               Mass
    ------------   -----------------  -----------------  -----------------  -----------------
         N            2.713105995807     0.321830132078    -0.125229880724    14.003074004430
         C            0.297423995807    -0.214412867922     0.466308119276    12.000000000000
         C           -0.269548004193     1.140076132078    -0.007413880724    12.000000000000
         C           -0.850649004193    -1.237957867922     0.243666119276    12.000000000000
         C           -1.786825004193     0.978575132078     0.098604119276    12.000000000000
         C           -2.000867004193    -0.448975867922    -0.405373880724    12.000000000000
         C            1.587661995807    -0.606900867922    -0.256164880724    12.000000000000
         H            0.521453995807    -0.147026867922     1.540402119276     1.007825032230
         H            0.000321995807     1.305919132078    -1.060481880724     1.007825032230
         H            0.117846995807     1.989018132078     0.565497119276     1.007825032230
         H           -1.174238004193    -1.659385867922     1.201348119276     1.007825032230
         H           -0.526365004193    -2.080920867922    -0.377832880724     1.007825032230
         H           -2.344202004193     1.730790132078    -0.469467880724     1.007825032230
         H           -2.098986004193     1.055532132078     1.147669119276     1.007825032230
         H           -2.987323004193    -0.857040867922    -0.162727880724     1.007825032230
         H           -1.900995004193    -0.464824867922    -1.497423880724     1.007825032230
         H            1.372358995807    -0.718382867922    -1.327007880724     1.007825032230
         H            1.924989995807    -1.588558867922     0.097791119276     1.007825032230
         H            2.925142995807     0.454455132078     0.863442119276     1.007825032230
         H            2.465146795807     1.147661132078    -0.443719080724     1.007825032230

  Basis Set: AUG-CC-PVTZ
    Blend: AUG-CC-PVTZ
  Basis Set: (AUG-CC-PVTZ AUX)
    Blend: AUG-CC-PVTZ-JKFIT
	 Reference Energy          =    -289.3162975129281449 [Eh]
	 Singles Energy            =      -0.0000000000000000 [Eh]
	 Same-Spin Energy          =      -0.3120983027074446 [Eh]
	 Opposite-Spin Energy      =      -1.0957906595187190 [Eh]
	 Correlation Energy        =      -1.4078889622261637 [Eh]
	 Total Energy              =    -290.7241864751542835 [Eh]

	 ================> DF-SCS-MP2 Energies <==================
	-----------------------------------------------------------
	 SCS Same-Spin Scale       =       0.3333333333333333 [-]
	 SCS Opposite-Spin Scale   =       1.2000000000000000 [-]
	 SCS Same-Spin Energy      =      -0.1040327675691482 [Eh]
	 SCS Opposite-Spin Energy  =      -1.3149487914224627 [Eh]
	 SCS Correlation Energy    =      -1.4189815589916108 [Eh]
	 SCS Total Energy          =    -290.7352790719197628 [Eh]
	-----------------------------------------------------------

  Dipole Moment: [D]
     X:    -1.3051      Y:     0.4606      Z:     0.7862     Total:     1.5917

*** Psi4 exiting successfully. Buy a developer a beer!
