                               Psi4 1.4a3.dev225

  ==> Input File <==

--------------------------------------------------------------------------
#psi4
#
memory 32 gb

molecule  {
0 1
  N        2.7287650     0.3187530    -0.1253010
  C        0.3264470    -0.2170105     0.4893494
  C       -0.2538890     1.1369990    -0.0074850
  C       -0.8349900    -1.2410350     0.2435950
  C       -1.7711660     0.9754980     0.0985330
  C       -1.9852080    -0.4520530    -0.4054450
  C        1.6033210    -0.6099780    -0.2562360
  H        0.5371130    -0.1501040     1.5403310
  H        0.0159810     1.3028420    -1.0605530
  H        0.1335060     1.9859410     0.5654260
  H       -1.1585790    -1.6624630     1.2012770
  H       -0.5107060    -2.0839980    -0.3779040
  H       -2.3285430     1.7277130    -0.4695390
  H       -2.0833270     1.0524550     1.1475980
  H       -2.9716640    -0.8601180    -0.1627990
  H       -1.8853360    -0.4679020    -1.4974950
  H        1.3880180    -0.7214600    -1.3270790
  H        1.9406490    -1.5916360     0.0977200
  H        2.9408020     0.4513780     0.8633710
  H        2.4538300     1.2344270    -0.4784390
units angstrom
no_reorient  #important for SAPT in psi4, default
symmetry c1  #important for SAPT in psi4, default
}

set PROPERTIES_ORIGIN ["COM"]
properties('MP2/aug-cc-pvtz', properties = ['dipole'])
--------------------------------------------------------------------------

    Molecular point group: c1
  Charge       = 0
  Multiplicity = 1
  Basis Set: AUG-CC-PVTZ
    Blend: AUG-CC-PVTZ
  Basis Set: (AUG-CC-PVTZ AUX)
    Blend: AUG-CC-PVTZ-JKFIT

    Orbital Energies [Eh]
    ---------------------

    Doubly Occupied:

       1A    -15.536498     2A    -11.242334     3A    -11.219074
       4A    -11.217298     5A    -11.216639     6A    -11.216239
       7A    -11.215722     8A     -1.177021     9A     -1.115481
      10A     -0.982642    11A     -0.959723    12A     -0.864035
      13A     -0.781804    14A     -0.759443    15A     -0.667638
      16A     -0.647334    17A     -0.640117    18A     -0.581952
      19A     -0.572119    20A     -0.558457    21A     -0.518849
      22A     -0.489961    23A     -0.476315    24A     -0.468559
      25A     -0.464493    26A     -0.456753    27A     -0.444311
      28A     -0.381309

  @DF-RHF Final Energy:  -289.32230727088802

   => Energetics <=

    Nuclear Repulsion Energy =            324.6759440097389984
    One-Electron Energy =               -1034.2522627979728895
    Two-Electron Energy =                 420.2540115173459299
    Total Energy =                       -289.3223072708880181
  Basis Set: (AUG-CC-PVTZ AUX)
    Blend: AUG-CC-PVTZ-RI
    Molecular point group: c1

    Geometry (in Angstrom), charge = 0, multiplicity = 1:

       Center              X                  Y                   Z               Mass
    ------------   -----------------  -----------------  -----------------  -----------------
         N            2.711762154597     0.320858433180    -0.127676067724    14.003074004430
         C            0.309444154597    -0.214905066820     0.486974332276    12.000000000000
         C           -0.270891845403     1.139104433180    -0.009860067724    12.000000000000
         C           -0.851992845403    -1.238929566820     0.241219932276    12.000000000000
         C           -1.788168845403     0.977603433180     0.096157932276    12.000000000000
         C           -2.002210845403    -0.449947566820    -0.407820067724    12.000000000000
         C            1.586318154597    -0.607872566820    -0.258611067724    12.000000000000
         H            0.520110154597    -0.147998566820     1.537955932276     1.007825032230
         H           -0.001021845403     1.304947433180    -1.062928067724     1.007825032230
         H            0.116503154597     1.988046433180     0.563050932276     1.007825032230
         H           -1.175581845403    -1.660357566820     1.198901932276     1.007825032230
         H           -0.527708845403    -2.081892566820    -0.380279067724     1.007825032230
         H           -2.345545845403     1.729818433180    -0.471914067724     1.007825032230
         H           -2.100329845403     1.054560433180     1.145222932276     1.007825032230
         H           -2.988666845403    -0.858012566820    -0.165174067724     1.007825032230
         H           -1.902338845403    -0.465796566820    -1.499870067724     1.007825032230
         H            1.371015154597    -0.719354566820    -1.329454067724     1.007825032230
         H            1.923646154597    -1.589530566820     0.095344932276     1.007825032230
         H            2.923799154597     0.453483433180     0.860995932276     1.007825032230
         H            2.436827154597     1.236532433180    -0.480814067724     1.007825032230

  Basis Set: AUG-CC-PVTZ
    Blend: AUG-CC-PVTZ
  Basis Set: (AUG-CC-PVTZ AUX)
    Blend: AUG-CC-PVTZ-JKFIT
	 Reference Energy          =    -289.3223072708880181 [Eh]
	 Singles Energy            =      -0.0000000000000000 [Eh]
	 Same-Spin Energy          =      -0.3124527323997693 [Eh]
	 Opposite-Spin Energy      =      -1.0972040612006562 [Eh]
	 Correlation Energy        =      -1.4096567936004254 [Eh]
	 Total Energy              =    -290.7319640644884657 [Eh]

	 ================> DF-SCS-MP2 Energies <==================
	-----------------------------------------------------------
	 SCS Same-Spin Scale       =       0.3333333333333333 [-]
	 SCS Opposite-Spin Scale   =       1.2000000000000000 [-]
	 SCS Same-Spin Energy      =      -0.1041509107999231 [Eh]
	 SCS Opposite-Spin Energy  =      -1.3166448734407874 [Eh]
	 SCS Correlation Energy    =      -1.4207957842407104 [Eh]
	 SCS Total Energy          =    -290.7431030551287563 [Eh]
	-----------------------------------------------------------

  Dipole Moment: [D]
     X:    -1.3026      Y:     0.4678      Z:     0.7811     Total:     1.5893

*** Psi4 exiting successfully. Buy a developer a beer!
