                               Psi4 1.4a3.dev225

  ==> Input File <==

--------------------------------------------------------------------------
#psi4
#
memory 32 gb

molecule  {
0 1
  N        2.7287650     0.3187530    -0.1253010
  C        0.3130830    -0.2174900     0.4662370
  C       -0.2538890     1.1369990    -0.0074850
  C       -0.8349900    -1.2410350     0.2435950
  C       -1.7711660     0.9754980     0.0985330
  C       -1.9852080    -0.4520530    -0.4054450
  C        1.6033210    -0.6099780    -0.2562360
  H        0.5371130    -0.1501040     1.5403310
  H        0.0159810     1.3028420    -1.0605530
  H        0.1335060     1.9859410     0.5654260
  H       -1.1585790    -1.6624630     1.2012770
  H       -0.5107060    -2.0839980    -0.3779040
  H       -2.3285430     1.7277130    -0.4695390
  H       -2.0833270     1.0524550     1.1475980
  H       -2.9716640    -0.8601180    -0.1627990
  H       -1.8762296    -0.4693471    -1.5970690
  H        1.3880180    -0.7214600    -1.3270790
  H        1.9406490    -1.5916360     0.0977200
  H        2.9408020     0.4513780     0.8633710
  H        2.4538300     1.2344270    -0.4784390
units angstrom
no_reorient  #important for SAPT in psi4, default
symmetry c1  #important for SAPT in psi4, default
}

set PROPERTIES_ORIGIN ["COM"]
properties('MP2/aug-cc-pvtz', properties = ['dipole'])
--------------------------------------------------------------------------

    Molecular point group: c1
  Charge       = 0
  Multiplicity = 1
  Basis Set: AUG-CC-PVTZ
    Blend: AUG-CC-PVTZ
  Basis Set: (AUG-CC-PVTZ AUX)
    Blend: AUG-CC-PVTZ-JKFIT

    Orbital Energies [Eh]
    ---------------------

    Doubly Occupied:

       1A    -15.537153     2A    -11.242527     3A    -11.228609
       4A    -11.220453     5A    -11.218092     6A    -11.217101
       7A    -11.217035     8A     -1.177469     9A     -1.117263
      10A     -0.981973    11A     -0.960090    12A     -0.864481
      13A     -0.776796    14A     -0.755329    15A     -0.668808
      16A     -0.648053    17A     -0.639977    18A     -0.580250
      19A     -0.566701    20A     -0.558701    21A     -0.518146
      22A     -0.491433    23A     -0.478514    24A     -0.469590
      25A     -0.460813    26A     -0.454279    27A     -0.441846
      28A     -0.382387

  @DF-RHF Final Energy:  -289.31643497528103

   => Energetics <=

    Nuclear Repulsion Energy =            324.5041298094138256
    One-Electron Energy =               -1033.8933883006275209
    Two-Electron Energy =                 420.0728235159326687
    Total Energy =                       -289.3164349752810267
  Basis Set: (AUG-CC-PVTZ AUX)
    Blend: AUG-CC-PVTZ-RI
    Molecular point group: c1

    Geometry (in Angstrom), charge = 0, multiplicity = 1:

       Center              X                  Y                   Z               Mass
    ------------   -----------------  -----------------  -----------------  -----------------
         N            2.713287714843     0.320931188566    -0.123864930706    14.003074004430
         C            0.297605714843    -0.215311811434     0.467673069294    12.000000000000
         C           -0.269366285157     1.139177188566    -0.006048930706    12.000000000000
         C           -0.850467285157    -1.238856811434     0.245031069294    12.000000000000
         C           -1.786643285157     0.977676188566     0.099969069294    12.000000000000
         C           -2.000685285157    -0.449874811434    -0.404008930706    12.000000000000
         C            1.587843714843    -0.607799811434    -0.254799930706    12.000000000000
         H            0.521635714843    -0.147925811434     1.541767069294     1.007825032230
         H            0.000503714843     1.305020188566    -1.059116930706     1.007825032230
         H            0.118028714843     1.988119188566     0.566862069294     1.007825032230
         H           -1.174056285157    -1.660284811434     1.202713069294     1.007825032230
         H           -0.526183285157    -2.081819811434    -0.376467930706     1.007825032230
         H           -2.344020285157     1.729891188566    -0.468102930706     1.007825032230
         H           -2.098804285157     1.054633188566     1.149034069294     1.007825032230
         H           -2.987141285157    -0.857939811434    -0.161362930706     1.007825032230
         H           -1.891706885157    -0.467168911434    -1.595632930706     1.007825032230
         H            1.372540714843    -0.719281811434    -1.325642930706     1.007825032230
         H            1.925171714843    -1.589457811434     0.099156069294     1.007825032230
         H            2.925324714843     0.453556188566     0.864807069294     1.007825032230
         H            2.438352714843     1.236605188566    -0.477002930706     1.007825032230

  Basis Set: AUG-CC-PVTZ
    Blend: AUG-CC-PVTZ
  Basis Set: (AUG-CC-PVTZ AUX)
    Blend: AUG-CC-PVTZ-JKFIT
	 Reference Energy          =    -289.3164349752810267 [Eh]
	 Singles Energy            =      -0.0000000000000000 [Eh]
	 Same-Spin Energy          =      -0.3125969672586453 [Eh]
	 Opposite-Spin Energy      =      -1.0980183442119014 [Eh]
	 Correlation Energy        =      -1.4106153114705466 [Eh]
	 Total Energy              =    -290.7270502867515916 [Eh]

	 ================> DF-SCS-MP2 Energies <==================
	-----------------------------------------------------------
	 SCS Same-Spin Scale       =       0.3333333333333333 [-]
	 SCS Opposite-Spin Scale   =       1.2000000000000000 [-]
	 SCS Same-Spin Energy      =      -0.1041989890862151 [Eh]
	 SCS Opposite-Spin Energy  =      -1.3176220130542815 [Eh]
	 SCS Correlation Energy    =      -1.4218210021404967 [Eh]
	 SCS Total Energy          =    -290.7382559774215451 [Eh]
	-----------------------------------------------------------

  Dipole Moment: [D]
     X:    -1.2946      Y:     0.4763      Z:     0.8504     Total:     1.6206

*** Psi4 exiting successfully. Buy a developer a beer!
