                               Psi4 1.4a3.dev225

  ==> Input File <==

--------------------------------------------------------------------------
#psi4
#
memory 32 gb

molecule  {
0 1
  N        2.7287650     0.3187530    -0.1253010
  C        0.3130830    -0.2174900     0.4662370
  C       -0.2538890     1.1369990    -0.0074850
  C       -0.8349900    -1.2410350     0.2435950
  C       -1.7711660     0.9754980     0.0985330
  C       -1.9852080    -0.4520530    -0.4054450
  C        1.6033210    -0.6099780    -0.2562360
  H        0.5371130    -0.1501040     1.5403310
  H        0.0159810     1.3028420    -1.0605530
  H        0.1335060     1.9859410     0.5654260
  H       -1.1526698    -1.6547671     1.1837883
  H       -0.5107060    -2.0839980    -0.3779040
  H       -2.3285430     1.7277130    -0.4695390
  H       -2.0833270     1.0524550     1.1475980
  H       -2.9716640    -0.8601180    -0.1627990
  H       -1.8853360    -0.4679020    -1.4974950
  H        1.3880180    -0.7214600    -1.3270790
  H        1.9406490    -1.5916360     0.0977200
  H        2.9408020     0.4513780     0.8633710
  H        2.4538300     1.2344270    -0.4784390
units angstrom
no_reorient  #important for SAPT in psi4, default
symmetry c1  #important for SAPT in psi4, default
}

set PROPERTIES_ORIGIN ["COM"]
properties('MP2/aug-cc-pvtz', properties = ['dipole'])
--------------------------------------------------------------------------

    Molecular point group: c1
  Charge       = 0
  Multiplicity = 1
  Basis Set: AUG-CC-PVTZ
    Blend: AUG-CC-PVTZ
  Basis Set: (AUG-CC-PVTZ AUX)
    Blend: AUG-CC-PVTZ-JKFIT

    Orbital Energies [Eh]
    ---------------------

    Doubly Occupied:

       1A    -15.536898     2A    -11.242271     3A    -11.219801
       4A    -11.217031     5A    -11.216476     6A    -11.215851
       7A    -11.213261     8A     -1.177230     9A     -1.117847
      10A     -0.982706    11A     -0.961896    12A     -0.865151
      13A     -0.782911    14A     -0.756461    15A     -0.668593
      16A     -0.648518    17A     -0.641361    18A     -0.581081
      19A     -0.573077    20A     -0.558371    21A     -0.518051
      22A     -0.491814    23A     -0.478142    24A     -0.468649
      25A     -0.464012    26A     -0.454750    27A     -0.445453
      28A     -0.382089

  @DF-RHF Final Energy:  -289.32282721484717

   => Energetics <=

    Nuclear Repulsion Energy =            325.0334130639365640
    One-Electron Energy =               -1034.9529680917714813
    Two-Electron Energy =                 420.5967278129877513
    Total Energy =                       -289.3228272148471660
  Basis Set: (AUG-CC-PVTZ AUX)
    Blend: AUG-CC-PVTZ-RI
    Molecular point group: c1

    Geometry (in Angstrom), charge = 0, multiplicity = 1:

       Center              X                  Y                   Z               Mass
    ------------   -----------------  -----------------  -----------------  -----------------
         N            2.713320228084     0.320838231124    -0.124699679584    14.003074004430
         C            0.297638228084    -0.215404768876     0.466838320416    12.000000000000
         C           -0.269333771916     1.139084231124    -0.006883679584    12.000000000000
         C           -0.850434771916    -1.238949768876     0.244196320416    12.000000000000
         C           -1.786610771916     0.977583231124     0.099134320416    12.000000000000
         C           -2.000652771916    -0.449967768876    -0.404843679584    12.000000000000
         C            1.587876228084    -0.607892768876    -0.255634679584    12.000000000000
         H            0.521668228084    -0.148018768876     1.540932320416     1.007825032230
         H            0.000536228084     1.304927231124    -1.059951679584     1.007825032230
         H            0.118061228084     1.988026231124     0.566027320416     1.007825032230
         H           -1.168114571916    -1.652681868876     1.184389620416     1.007825032230
         H           -0.526150771916    -2.081912768876    -0.377302679584     1.007825032230
         H           -2.343987771916     1.729798231124    -0.468937679584     1.007825032230
         H           -2.098771771916     1.054540231124     1.148199320416     1.007825032230
         H           -2.987108771916    -0.858032768876    -0.162197679584     1.007825032230
         H           -1.900780771916    -0.465816768876    -1.496893679584     1.007825032230
         H            1.372573228084    -0.719374768876    -1.326477679584     1.007825032230
         H            1.925204228084    -1.589550768876     0.098321320416     1.007825032230
         H            2.925357228084     0.453463231124     0.863972320416     1.007825032230
         H            2.438385228084     1.236512231124    -0.477837679584     1.007825032230

  Basis Set: AUG-CC-PVTZ
    Blend: AUG-CC-PVTZ
  Basis Set: (AUG-CC-PVTZ AUX)
    Blend: AUG-CC-PVTZ-JKFIT
	 Reference Energy          =    -289.3228272148471660 [Eh]
	 Singles Energy            =      -0.0000000000000000 [Eh]
	 Same-Spin Energy          =      -0.3126005423772149 [Eh]
	 Opposite-Spin Energy      =      -1.0971822068949686 [Eh]
	 Correlation Energy        =      -1.4097827492721835 [Eh]
	 Total Energy              =    -290.7326099641193764 [Eh]

	 ================> DF-SCS-MP2 Energies <==================
	-----------------------------------------------------------
	 SCS Same-Spin Scale       =       0.3333333333333333 [-]
	 SCS Opposite-Spin Scale   =       1.2000000000000000 [-]
	 SCS Same-Spin Energy      =      -0.1042001807924050 [Eh]
	 SCS Opposite-Spin Energy  =      -1.3166186482739624 [Eh]
	 SCS Correlation Energy    =      -1.4208188290663673 [Eh]
	 SCS Total Energy          =    -290.7436460439135431 [Eh]
	-----------------------------------------------------------

  Dipole Moment: [D]
     X:    -1.3112      Y:     0.4603      Z:     0.7795     Total:     1.5933

*** Psi4 exiting successfully. Buy a developer a beer!
