                               Psi4 1.4a3.dev225

  ==> Input File <==

--------------------------------------------------------------------------
#psi4
#
memory 32 gb

molecule  {
0 1
  N        2.7287650     0.3187530    -0.1253010
  C        0.3455568    -0.2487979     0.4361052
  C       -0.2538890     1.1369990    -0.0074850
  C       -0.8349900    -1.2410350     0.2435950
  C       -1.7711660     0.9754980     0.0985330
  C       -1.9852080    -0.4520530    -0.4054450
  C        1.6033210    -0.6099780    -0.2562360
  H        0.5371130    -0.1501040     1.5403310
  H        0.0159810     1.3028420    -1.0605530
  H        0.1335060     1.9859410     0.5654260
  H       -1.1585790    -1.6624630     1.2012770
  H       -0.5107060    -2.0839980    -0.3779040
  H       -2.3285430     1.7277130    -0.4695390
  H       -2.0833270     1.0524550     1.1475980
  H       -2.9716640    -0.8601180    -0.1627990
  H       -1.8853360    -0.4679020    -1.4974950
  H        1.3880180    -0.7214600    -1.3270790
  H        1.9406490    -1.5916360     0.0977200
  H        2.9408020     0.4513780     0.8633710
  H        2.4538300     1.2344270    -0.4784390
units angstrom
no_reorient  #important for SAPT in psi4, default
symmetry c1  #important for SAPT in psi4, default
}

set PROPERTIES_ORIGIN ["COM"]
properties('MP2/aug-cc-pvtz', properties = ['dipole'])
--------------------------------------------------------------------------

    Molecular point group: c1
  Charge       = 0
  Multiplicity = 1
  Basis Set: AUG-CC-PVTZ
    Blend: AUG-CC-PVTZ
  Basis Set: (AUG-CC-PVTZ AUX)
    Blend: AUG-CC-PVTZ-JKFIT

    Orbital Energies [Eh]
    ---------------------

    Doubly Occupied:

       1A    -15.537717     2A    -11.240672     3A    -11.221950
       4A    -11.218121     5A    -11.217289     6A    -11.216889
       7A    -11.216445     8A     -1.179924     9A     -1.115516
      10A     -0.988620    11A     -0.959508    12A     -0.867592
      13A     -0.782151    14A     -0.753136    15A     -0.669620
      16A     -0.647726    17A     -0.642167    18A     -0.582312
      19A     -0.572472    20A     -0.560039    21A     -0.522343
      22A     -0.494595    23A     -0.477413    24A     -0.468983
      25A     -0.463408    26A     -0.451599    27A     -0.433823
      28A     -0.388366

  @DF-RHF Final Energy:  -289.31963748846647

   => Energetics <=

    Nuclear Repulsion Energy =            325.0040868649088566
    One-Electron Energy =               -1034.8666568814035145
    Two-Electron Energy =                 420.5429325280281319
    Total Energy =                       -289.3196374884664692
  Basis Set: (AUG-CC-PVTZ AUX)
    Blend: AUG-CC-PVTZ-RI
    Molecular point group: c1

    Geometry (in Angstrom), charge = 0, multiplicity = 1:

       Center              X                  Y                   Z               Mass
    ------------   -----------------  -----------------  -----------------  -----------------
         N            2.709448264641     0.324707376947    -0.121229049984    14.003074004430
         C            0.326240064641    -0.242843523053     0.440177150016    12.000000000000
         C           -0.273205735359     1.142953376947    -0.003413049984    12.000000000000
         C           -0.854306735359    -1.235080623053     0.247666950016    12.000000000000
         C           -1.790482735359     0.981452376947     0.102604950016    12.000000000000
         C           -2.004524735359    -0.446098623053    -0.401373049984    12.000000000000
         C            1.584004264641    -0.604023623053    -0.252164049984    12.000000000000
         H            0.517796264641    -0.144149623053     1.544402950016     1.007825032230
         H           -0.003335735359     1.308796376947    -1.056481049984     1.007825032230
         H            0.114189264641     1.991895376947     0.569497950016     1.007825032230
         H           -1.177895735359    -1.656508623053     1.205348950016     1.007825032230
         H           -0.530022735359    -2.078043623053    -0.373832049984     1.007825032230
         H           -2.347859735359     1.733667376947    -0.465467049984     1.007825032230
         H           -2.102643735359     1.058409376947     1.151669950016     1.007825032230
         H           -2.990980735359    -0.854163623053    -0.158727049984     1.007825032230
         H           -1.904652735359    -0.461947623053    -1.493423049984     1.007825032230
         H            1.368701264641    -0.715505623053    -1.323007049984     1.007825032230
         H            1.921332264641    -1.585681623053     0.101791950016     1.007825032230
         H            2.921485264641     0.457332376947     0.867442950016     1.007825032230
         H            2.434513264641     1.240381376947    -0.474367049984     1.007825032230

  Basis Set: AUG-CC-PVTZ
    Blend: AUG-CC-PVTZ
  Basis Set: (AUG-CC-PVTZ AUX)
    Blend: AUG-CC-PVTZ-JKFIT
	 Reference Energy          =    -289.3196374884664692 [Eh]
	 Singles Energy            =      -0.0000000000000000 [Eh]
	 Same-Spin Energy          =      -0.3128105047537066 [Eh]
	 Opposite-Spin Energy      =      -1.0976465505887738 [Eh]
	 Correlation Energy        =      -1.4104570553424804 [Eh]
	 Total Energy              =    -290.7300945438089457 [Eh]

	 ================> DF-SCS-MP2 Energies <==================
	-----------------------------------------------------------
	 SCS Same-Spin Scale       =       0.3333333333333333 [-]
	 SCS Opposite-Spin Scale   =       1.2000000000000000 [-]
	 SCS Same-Spin Energy      =      -0.1042701682512355 [Eh]
	 SCS Opposite-Spin Energy  =      -1.3171758607065285 [Eh]
	 SCS Correlation Energy    =      -1.4214460289577640 [Eh]
	 SCS Total Energy          =    -290.7410835174242152 [Eh]
	-----------------------------------------------------------

  Dipole Moment: [D]
     X:    -1.3298      Y:     0.4590      Z:     0.7521     Total:     1.5952

*** Psi4 exiting successfully. Buy a developer a beer!
