                               Psi4 1.4a3.dev225

  ==> Input File <==

--------------------------------------------------------------------------
#psi4
#
memory 32 gb

molecule  {
0 1
  N        2.7287650     0.3187530    -0.1253010
  C        0.3130830    -0.2174900     0.4662370
  C       -0.2538890     1.1369990    -0.0074850
  C       -0.8349900    -1.2410350     0.2435950
  C       -1.7711660     0.9754980     0.0985330
  C       -1.9852080    -0.4520530    -0.4054450
  C        1.6033210    -0.6099780    -0.2562360
  H        0.5371130    -0.1501040     1.5403310
  H        0.0159810     1.3028420    -1.0605530
  H        0.2042637     2.1410002     0.6700682
  H       -1.1585790    -1.6624630     1.2012770
  H       -0.5107060    -2.0839980    -0.3779040
  H       -2.3285430     1.7277130    -0.4695390
  H       -2.0833270     1.0524550     1.1475980
  H       -2.9716640    -0.8601180    -0.1627990
  H       -1.8853360    -0.4679020    -1.4974950
  H        1.3880180    -0.7214600    -1.3270790
  H        1.9406490    -1.5916360     0.0977200
  H        2.9408020     0.4513780     0.8633710
  H        2.4538300     1.2344270    -0.4784390
units angstrom
no_reorient  #important for SAPT in psi4, default
symmetry c1  #important for SAPT in psi4, default
}

set PROPERTIES_ORIGIN ["COM"]
properties('MP2/aug-cc-pvtz', properties = ['dipole'])
--------------------------------------------------------------------------

    Molecular point group: c1
  Charge       = 0
  Multiplicity = 1
  Basis Set: AUG-CC-PVTZ
    Blend: AUG-CC-PVTZ
  Basis Set: (AUG-CC-PVTZ AUX)
    Blend: AUG-CC-PVTZ-JKFIT

    Orbital Energies [Eh]
    ---------------------

    Doubly Occupied:

       1A    -15.536438     2A    -11.243295     3A    -11.240637
       4A    -11.222421     5A    -11.219533     6A    -11.218650
       7A    -11.217924     8A     -1.177232     9A     -1.118735
      10A     -0.984594    11A     -0.955936    12A     -0.863753
      13A     -0.781741    14A     -0.753730    15A     -0.662575
      16A     -0.644208    17A     -0.640312    18A     -0.581611
      19A     -0.568107    20A     -0.558078    21A     -0.519342
      22A     -0.491425    23A     -0.475609    24A     -0.470112
      25A     -0.461113    26A     -0.447368    27A     -0.445320
      28A     -0.381922

  @DF-RHF Final Energy:  -289.30274903259618

   => Energetics <=

    Nuclear Repulsion Energy =            324.0534441798175749
    One-Electron Energy =               -1032.9489394835907206
    Two-Electron Energy =                 419.5927462711769635
    Total Energy =                       -289.3027490325961821
  Basis Set: (AUG-CC-PVTZ AUX)
    Blend: AUG-CC-PVTZ-RI
    Molecular point group: c1

    Geometry (in Angstrom), charge = 0, multiplicity = 1:

       Center              X                  Y                   Z               Mass
    ------------   -----------------  -----------------  -----------------  -----------------
         N            2.712660765152     0.319339651606    -0.125941663614    14.003074004430
         C            0.296978765152    -0.216903348394     0.465596336386    12.000000000000
         C           -0.269993234848     1.137585651606    -0.008125663614    12.000000000000
         C           -0.851094234848    -1.240448348394     0.242954336386    12.000000000000
         C           -1.787270234848     0.976084651606     0.097892336386    12.000000000000
         C           -2.001312234848    -0.451466348394    -0.406085663614    12.000000000000
         C            1.587216765152    -0.609391348394    -0.256876663614    12.000000000000
         H            0.521008765152    -0.149517348394     1.539690336386     1.007825032230
         H           -0.000123234848     1.303428651606    -1.061193663614     1.007825032230
         H            0.188159465152     2.141586851606     0.669427536386     1.007825032230
         H           -1.174683234848    -1.661876348394     1.200636336386     1.007825032230
         H           -0.526810234848    -2.083411348394    -0.378544663614     1.007825032230
         H           -2.344647234848     1.728299651606    -0.470179663614     1.007825032230
         H           -2.099431234848     1.053041651606     1.146957336386     1.007825032230
         H           -2.987768234848    -0.859531348394    -0.163439663614     1.007825032230
         H           -1.901440234848    -0.467315348394    -1.498135663614     1.007825032230
         H            1.371913765152    -0.720873348394    -1.327719663614     1.007825032230
         H            1.924544765152    -1.591049348394     0.097079336386     1.007825032230
         H            2.924697765152     0.451964651606     0.862730336386     1.007825032230
         H            2.437725765152     1.235013651606    -0.479079663614     1.007825032230

  Basis Set: AUG-CC-PVTZ
    Blend: AUG-CC-PVTZ
  Basis Set: (AUG-CC-PVTZ AUX)
    Blend: AUG-CC-PVTZ-JKFIT
	 Reference Energy          =    -289.3027490325961821 [Eh]
	 Singles Energy            =      -0.0000000000000000 [Eh]
	 Same-Spin Energy          =      -0.3126317943997552 [Eh]
	 Opposite-Spin Energy      =      -1.0989110264313262 [Eh]
	 Correlation Energy        =      -1.4115428208310814 [Eh]
	 Total Energy              =    -290.7142918534272553 [Eh]

	 ================> DF-SCS-MP2 Energies <==================
	-----------------------------------------------------------
	 SCS Same-Spin Scale       =       0.3333333333333333 [-]
	 SCS Opposite-Spin Scale   =       1.2000000000000000 [-]
	 SCS Same-Spin Energy      =      -0.1042105981332517 [Eh]
	 SCS Opposite-Spin Energy  =      -1.3186932317175915 [Eh]
	 SCS Correlation Energy    =      -1.4229038298508432 [Eh]
	 SCS Total Energy          =    -290.7256528624470207 [Eh]
	-----------------------------------------------------------

  Dipole Moment: [D]
     X:    -1.3955      Y:     0.3063      Z:     0.7168     Total:     1.5984

*** Psi4 exiting successfully. Buy a developer a beer!
