                               Psi4 1.4a3.dev225

  ==> Input File <==

--------------------------------------------------------------------------
#psi4
#
memory 32 gb

molecule  {
0 1
  N        2.7287650     0.3187530    -0.1253010
  C        0.3130830    -0.2174900     0.4662370
  C       -0.2538890     1.1369990    -0.0074850
  C       -0.8349900    -1.2410350     0.2435950
  C       -1.7711660     0.9754980     0.0985330
  C       -1.9852080    -0.4520530    -0.4054450
  C        1.6033210    -0.6099780    -0.2562360
  H        0.5371130    -0.1501040     1.5403310
  H        0.0159810     1.3028420    -1.0605530
  H        0.1335060     1.9859410     0.5654260
  H       -1.1585790    -1.6624630     1.2012770
  H       -0.5107060    -2.0839980    -0.3779040
  H       -2.3285430     1.7277130    -0.4695390
  H       -2.0833270     1.0524550     1.1475980
  H       -2.9716640    -0.8601180    -0.1627990
  H       -1.8853360    -0.4679020    -1.4974950
  H        1.3880180    -0.7214600    -1.3270790
  H        1.9406490    -1.5916360     0.0977200
  H        2.9408020     0.4513780     0.8633710
  H        2.3998785     1.4141131    -0.5477366
units angstrom
no_reorient  #important for SAPT in psi4, default
symmetry c1  #important for SAPT in psi4, default
}

set PROPERTIES_ORIGIN ["COM"]
properties('MP2/aug-cc-pvtz', properties = ['dipole'])
--------------------------------------------------------------------------

    Molecular point group: c1
  Charge       = 0
  Multiplicity = 1
  Basis Set: AUG-CC-PVTZ
    Blend: AUG-CC-PVTZ
  Basis Set: (AUG-CC-PVTZ AUX)
    Blend: AUG-CC-PVTZ-JKFIT

    Orbital Energies [Eh]
    ---------------------

    Doubly Occupied:

       1A    -15.557387     2A    -11.243778     3A    -11.220101
       4A    -11.216844     5A    -11.216410     6A    -11.216045
       7A    -11.215626     8A     -1.163474     9A     -1.113962
      10A     -0.978823    11A     -0.960921    12A     -0.858919
      13A     -0.782396    14A     -0.755770    15A     -0.658594
      16A     -0.644068    17A     -0.630601    18A     -0.581090
      19A     -0.571129    20A     -0.548901    21A     -0.507069
      22A     -0.491425    23A     -0.477741    24A     -0.467333
      25A     -0.463949    26A     -0.454851    27A     -0.443524
      28A     -0.380665

  @DF-RHF Final Energy:  -289.29480491091113

   => Energetics <=

    Nuclear Repulsion Energy =            324.1503293171591054
    One-Electron Energy =               -1033.2474805618264782
    Two-Electron Energy =                 419.8023463337563044
    Total Energy =                       -289.2948049109111253
  Basis Set: (AUG-CC-PVTZ AUX)
    Blend: AUG-CC-PVTZ-RI
    Molecular point group: c1

    Geometry (in Angstrom), charge = 0, multiplicity = 1:

       Center              X                  Y                   Z               Mass
    ------------   -----------------  -----------------  -----------------  -----------------
         N            2.713928968652     0.319089213621    -0.124172820071    14.003074004430
         C            0.298246968652    -0.217153786379     0.467365179929    12.000000000000
         C           -0.268725031348     1.137335213621    -0.006356820071    12.000000000000
         C           -0.849826031348    -1.240698786379     0.244723179929    12.000000000000
         C           -1.786002031348     0.975834213621     0.099661179929    12.000000000000
         C           -2.000044031348    -0.451716786379    -0.404316820071    12.000000000000
         C            1.588484968652    -0.609641786379    -0.255107820071    12.000000000000
         H            0.522276968652    -0.149767786379     1.541459179929     1.007825032230
         H            0.001144968652     1.303178213621    -1.059424820071     1.007825032230
         H            0.118669968652     1.986277213621     0.566554179929     1.007825032230
         H           -1.173415031348    -1.662126786379     1.202405179929     1.007825032230
         H           -0.525542031348    -2.083661786379    -0.376775820071     1.007825032230
         H           -2.343379031348     1.728049213621    -0.468410820071     1.007825032230
         H           -2.098163031348     1.052791213621     1.148726179929     1.007825032230
         H           -2.986500031348    -0.859781786379    -0.161670820071     1.007825032230
         H           -1.900172031348    -0.467565786379    -1.496366820071     1.007825032230
         H            1.373181968652    -0.721123786379    -1.325950820071     1.007825032230
         H            1.925812968652    -1.591299786379     0.098848179929     1.007825032230
         H            2.925965968652     0.451714213621     0.864499179929     1.007825032230
         H            2.385042468652     1.414449313621    -0.546608420071     1.007825032230

  Basis Set: AUG-CC-PVTZ
    Blend: AUG-CC-PVTZ
  Basis Set: (AUG-CC-PVTZ AUX)
    Blend: AUG-CC-PVTZ-JKFIT
	 Reference Energy          =    -289.2948049109111253 [Eh]
	 Singles Energy            =      -0.0000000000000000 [Eh]
	 Same-Spin Energy          =      -0.3135686807774789 [Eh]
	 Opposite-Spin Energy      =      -1.1011921887671545 [Eh]
	 Correlation Energy        =      -1.4147608695446334 [Eh]
	 Total Energy              =    -290.7095657804557618 [Eh]

	 ================> DF-SCS-MP2 Energies <==================
	-----------------------------------------------------------
	 SCS Same-Spin Scale       =       0.3333333333333333 [-]
	 SCS Opposite-Spin Scale   =       1.2000000000000000 [-]
	 SCS Same-Spin Energy      =      -0.1045228935924930 [Eh]
	 SCS Opposite-Spin Energy  =      -1.3214306265205853 [Eh]
	 SCS Correlation Energy    =      -1.4259535201130782 [Eh]
	 SCS Total Energy          =    -290.7207584310241941 [Eh]
	-----------------------------------------------------------

  Dipole Moment: [D]
     X:    -1.3217      Y:     0.4484      Z:     0.7517     Total:     1.5852

*** Psi4 exiting successfully. Buy a developer a beer!
