                               Psi4 1.4a3.dev225

  ==> Input File <==

--------------------------------------------------------------------------
#psi4
#
memory 32 gb

molecule  {
0 1
  N        2.7287650     0.3187530    -0.1253010
  C        0.3130830    -0.2174900     0.4662370
  C       -0.2538890     1.1369990    -0.0074850
  C       -0.8349900    -1.2410350     0.2435950
  C       -1.7711660     0.9754980     0.0985330
  C       -1.9852080    -0.4520530    -0.4054450
  C        1.6033210    -0.6099780    -0.2562360
  H        0.5371130    -0.1501040     1.5403310
  H        0.0159810     1.3028420    -1.0605530
  H        0.1335060     1.9859410     0.5654260
  H       -1.1585790    -1.6624630     1.2012770
  H       -0.5107060    -2.0839980    -0.3779040
  H       -2.3285430     1.7277130    -0.4695390
  H       -2.0776370     1.0510522     1.1284759
  H       -2.9716640    -0.8601180    -0.1627990
  H       -1.8853360    -0.4679020    -1.4974950
  H        1.3880180    -0.7214600    -1.3270790
  H        1.9406490    -1.5916360     0.0977200
  H        2.9408020     0.4513780     0.8633710
  H        2.4538300     1.2344270    -0.4784390
units angstrom
no_reorient  #important for SAPT in psi4, default
symmetry c1  #important for SAPT in psi4, default
}

set PROPERTIES_ORIGIN ["COM"]
properties('MP2/aug-cc-pvtz', properties = ['dipole'])
--------------------------------------------------------------------------

    Molecular point group: c1
  Charge       = 0
  Multiplicity = 1
  Basis Set: AUG-CC-PVTZ
    Blend: AUG-CC-PVTZ
  Basis Set: (AUG-CC-PVTZ AUX)
    Blend: AUG-CC-PVTZ-JKFIT

    Orbital Energies [Eh]
    ---------------------

    Doubly Occupied:

       1A    -15.536947     2A    -11.242330     3A    -11.219921
       4A    -11.216659     5A    -11.216190     6A    -11.215569
       7A    -11.214054     8A     -1.177268     9A     -1.117926
      10A     -0.983186    11A     -0.961180    12A     -0.864955
      13A     -0.784194    14A     -0.755761    15A     -0.668341
      16A     -0.648472    17A     -0.641373    18A     -0.581770
      19A     -0.572309    20A     -0.558588    21A     -0.518054
      22A     -0.491344    23A     -0.477870    24A     -0.469098
      25A     -0.465021    26A     -0.454820    27A     -0.444703
      28A     -0.382074

  @DF-RHF Final Energy:  -289.32279769076348

   => Energetics <=

    Nuclear Repulsion Energy =            325.0284959524427109
    One-Electron Energy =               -1034.9426362497547416
    Two-Electron Energy =                 420.5913426065486078
    Total Energy =                       -289.3227976907634797
  Basis Set: (AUG-CC-PVTZ AUX)
    Blend: AUG-CC-PVTZ-RI
    Molecular point group: c1

    Geometry (in Angstrom), charge = 0, multiplicity = 1:

       Center              X                  Y                   Z               Mass
    ------------   -----------------  -----------------  -----------------  -----------------
         N            2.713322457191     0.320930758405    -0.124683069072    14.003074004430
         C            0.297640457191    -0.215312241595     0.466854930928    12.000000000000
         C           -0.269331542809     1.139176758405    -0.006867069072    12.000000000000
         C           -0.850432542809    -1.238857241595     0.244212930928    12.000000000000
         C           -1.786608542809     0.977675758405     0.099150930928    12.000000000000
         C           -2.000650542809    -0.449875241595    -0.404827069072    12.000000000000
         C            1.587878457191    -0.607800241595    -0.255618069072    12.000000000000
         H            0.521670457191    -0.147926241595     1.540948930928     1.007825032230
         H            0.000538457191     1.305019758405    -1.059935069072     1.007825032230
         H            0.118063457191     1.988118758405     0.566043930928     1.007825032230
         H           -1.174021542809    -1.660285241595     1.201894930928     1.007825032230
         H           -0.526148542809    -2.081820241595    -0.377286069072     1.007825032230
         H           -2.343985542809     1.729890758405    -0.468921069072     1.007825032230
         H           -2.093079542809     1.053229958405     1.129093830928     1.007825032230
         H           -2.987106542809    -0.857940241595    -0.162181069072     1.007825032230
         H           -1.900778542809    -0.465724241595    -1.496877069072     1.007825032230
         H            1.372575457191    -0.719282241595    -1.326461069072     1.007825032230
         H            1.925206457191    -1.589458241595     0.098337930928     1.007825032230
         H            2.925359457191     0.453555758405     0.863988930928     1.007825032230
         H            2.438387457191     1.236604758405    -0.477821069072     1.007825032230

  Basis Set: AUG-CC-PVTZ
    Blend: AUG-CC-PVTZ
  Basis Set: (AUG-CC-PVTZ AUX)
    Blend: AUG-CC-PVTZ-JKFIT
	 Reference Energy          =    -289.3227976907634797 [Eh]
	 Singles Energy            =      -0.0000000000000000 [Eh]
	 Same-Spin Energy          =      -0.3126030580159684 [Eh]
	 Opposite-Spin Energy      =      -1.0971979525529509 [Eh]
	 Correlation Energy        =      -1.4098010105689194 [Eh]
	 Total Energy              =    -290.7325987013323925 [Eh]

	 ================> DF-SCS-MP2 Energies <==================
	-----------------------------------------------------------
	 SCS Same-Spin Scale       =       0.3333333333333333 [-]
	 SCS Opposite-Spin Scale   =       1.2000000000000000 [-]
	 SCS Same-Spin Energy      =      -0.1042010193386561 [Eh]
	 SCS Opposite-Spin Energy  =      -1.3166375430635411 [Eh]
	 SCS Correlation Energy    =      -1.4208385624021973 [Eh]
	 SCS Total Energy          =    -290.7436362531656755 [Eh]
	-----------------------------------------------------------

  Dipole Moment: [D]
     X:    -1.3132      Y:     0.4729      Z:     0.7821     Total:     1.5999

*** Psi4 exiting successfully. Buy a developer a beer!
