                               Psi4 1.4a3.dev225

  ==> Input File <==

--------------------------------------------------------------------------
#psi4
#
memory 32 gb

molecule  {
0 1
  N        2.7287650     0.3187530    -0.1253010
  C        0.3130830    -0.2174900     0.4662370
  C       -0.2538890     1.1369990    -0.0074850
  C       -0.8349900    -1.2410350     0.2435950
  C       -1.7711660     0.9754980     0.0985330
  C       -1.9852080    -0.4520530    -0.4054450
  C        1.6033210    -0.6099780    -0.2562360
  H        0.5371130    -0.1501040     1.5403310
  H        0.0159810     1.3028420    -1.0605530
  H        0.1335060     1.9859410     0.5654260
  H       -1.1585790    -1.6624630     1.2012770
  H       -0.5107060    -2.0839980    -0.3779040
  H       -2.3285430     1.7277130    -0.4695390
  H       -2.0833270     1.0524550     1.1475980
  H       -2.9716640    -0.8601180    -0.1627990
  H       -1.8898892    -0.4671794    -1.4477080
  H        1.3880180    -0.7214600    -1.3270790
  H        1.9406490    -1.5916360     0.0977200
  H        2.9408020     0.4513780     0.8633710
  H        2.4538300     1.2344270    -0.4784390
units angstrom
no_reorient  #important for SAPT in psi4, default
symmetry c1  #important for SAPT in psi4, default
}

set PROPERTIES_ORIGIN ["COM"]
properties('MP2/aug-cc-pvtz', properties = ['dipole'])
--------------------------------------------------------------------------

    Molecular point group: c1
  Charge       = 0
  Multiplicity = 1
  Basis Set: AUG-CC-PVTZ
    Blend: AUG-CC-PVTZ
  Basis Set: (AUG-CC-PVTZ AUX)
    Blend: AUG-CC-PVTZ-JKFIT

    Orbital Energies [Eh]
    ---------------------

    Doubly Occupied:

       1A    -15.536941     2A    -11.242331     3A    -11.219799
       4A    -11.216874     5A    -11.216047     6A    -11.215320
       7A    -11.209701     8A     -1.177272     9A     -1.118257
      10A     -0.983596    11A     -0.961924    12A     -0.865122
      13A     -0.786351    14A     -0.756105    15A     -0.668278
      16A     -0.648422    17A     -0.642250    18A     -0.581580
      19A     -0.574675    20A     -0.558291    21A     -0.518178
      22A     -0.491372    23A     -0.478004    24A     -0.469217
      25A     -0.465230    26A     -0.454978    27A     -0.445475
      28A     -0.382032

  @DF-RHF Final Energy:  -289.32183713465395

   => Energetics <=

    Nuclear Repulsion Energy =            325.1684110371294878
    One-Electron Energy =               -1035.2132548599192887
    Two-Electron Energy =                 420.7230066881357970
    Total Energy =                       -289.3218371346539470
  Basis Set: (AUG-CC-PVTZ AUX)
    Blend: AUG-CC-PVTZ-RI
    Molecular point group: c1

    Geometry (in Angstrom), charge = 0, multiplicity = 1:

       Center              X                  Y                   Z               Mass
    ------------   -----------------  -----------------  -----------------  -----------------
         N            2.713426623220     0.320909144605    -0.125383825406    14.003074004430
         C            0.297744623220    -0.215333855395     0.466154174594    12.000000000000
         C           -0.269227376780     1.139155144605    -0.007567825406    12.000000000000
         C           -0.850328376780    -1.238878855395     0.243512174594    12.000000000000
         C           -1.786504376780     0.977654144605     0.098450174594    12.000000000000
         C           -2.000546376780    -0.449896855395    -0.405527825406    12.000000000000
         C            1.587982623220    -0.607821855395    -0.256318825406    12.000000000000
         H            0.521774623220    -0.147947855395     1.540248174594     1.007825032230
         H            0.000642623220     1.304998144605    -1.060635825406     1.007825032230
         H            0.118167623220     1.988097144605     0.565343174594     1.007825032230
         H           -1.173917376780    -1.660306855395     1.201194174594     1.007825032230
         H           -0.526044376780    -2.081841855395    -0.377986825406     1.007825032230
         H           -2.343881376780     1.729869144605    -0.469621825406     1.007825032230
         H           -2.098665376780     1.054611144605     1.147515174594     1.007825032230
         H           -2.987002376780    -0.857961855395    -0.162881825406     1.007825032230
         H           -1.905227576780    -0.465023255395    -1.447790825406     1.007825032230
         H            1.372679623220    -0.719303855395    -1.327161825406     1.007825032230
         H            1.925310623220    -1.589479855395     0.097637174594     1.007825032230
         H            2.925463623220     0.453534144605     0.863288174594     1.007825032230
         H            2.438491623220     1.236583144605    -0.478521825406     1.007825032230

  Basis Set: AUG-CC-PVTZ
    Blend: AUG-CC-PVTZ
  Basis Set: (AUG-CC-PVTZ AUX)
    Blend: AUG-CC-PVTZ-JKFIT
	 Reference Energy          =    -289.3218371346539470 [Eh]
	 Singles Energy            =      -0.0000000000000000 [Eh]
	 Same-Spin Energy          =      -0.3126050140820638 [Eh]
	 Opposite-Spin Energy      =      -1.0970352659393399 [Eh]
	 Correlation Energy        =      -1.4096402800214036 [Eh]
	 Total Energy              =    -290.7314774146753393 [Eh]

	 ================> DF-SCS-MP2 Energies <==================
	-----------------------------------------------------------
	 SCS Same-Spin Scale       =       0.3333333333333333 [-]
	 SCS Opposite-Spin Scale   =       1.2000000000000000 [-]
	 SCS Same-Spin Energy      =      -0.1042016713606879 [Eh]
	 SCS Opposite-Spin Energy  =      -1.3164423191272079 [Eh]
	 SCS Correlation Energy    =      -1.4206439904878958 [Eh]
	 SCS Total Energy          =    -290.7424811251418646 [Eh]
	-----------------------------------------------------------

  Dipole Moment: [D]
     X:    -1.3116      Y:     0.4667      Z:     0.7361     Total:     1.5748

*** Psi4 exiting successfully. Buy a developer a beer!
