                               Psi4 1.4a3.dev225

  ==> Input File <==

--------------------------------------------------------------------------
#psi4
#
memory 32 gb

molecule  {
0 1
  N        2.7287650     0.3187530    -0.1253010
  C        0.2439804    -0.1586520     0.5256504
  C       -0.2538890     1.1369990    -0.0074850
  C       -0.8349900    -1.2410350     0.2435950
  C       -1.7711660     0.9754980     0.0985330
  C       -1.9852080    -0.4520530    -0.4054450
  C        1.6033210    -0.6099780    -0.2562360
  H        0.5371130    -0.1501040     1.5403310
  H        0.0159810     1.3028420    -1.0605530
  H        0.1335060     1.9859410     0.5654260
  H       -1.1585790    -1.6624630     1.2012770
  H       -0.5107060    -2.0839980    -0.3779040
  H       -2.3285430     1.7277130    -0.4695390
  H       -2.0833270     1.0524550     1.1475980
  H       -2.9716640    -0.8601180    -0.1627990
  H       -1.8853360    -0.4679020    -1.4974950
  H        1.3880180    -0.7214600    -1.3270790
  H        1.9406490    -1.5916360     0.0977200
  H        2.9408020     0.4513780     0.8633710
  H        2.4538300     1.2344270    -0.4784390
units angstrom
no_reorient  #important for SAPT in psi4, default
symmetry c1  #important for SAPT in psi4, default
}

set PROPERTIES_ORIGIN ["COM"]
properties('MP2/aug-cc-pvtz', properties = ['dipole'])
--------------------------------------------------------------------------

    Molecular point group: c1
  Charge       = 0
  Multiplicity = 1
  Basis Set: AUG-CC-PVTZ
    Blend: AUG-CC-PVTZ
  Basis Set: (AUG-CC-PVTZ AUX)
    Blend: AUG-CC-PVTZ-JKFIT

    Orbital Energies [Eh]
    ---------------------

    Doubly Occupied:

       1A    -15.536074     2A    -11.245246     3A    -11.217764
       4A    -11.216369     5A    -11.215219     6A    -11.214774
       7A    -11.214591     8A     -1.173289     9A     -1.123168
      10A     -0.974714    11A     -0.964235    12A     -0.859618
      13A     -0.783643    14A     -0.760824    15A     -0.667731
      16A     -0.649848    17A     -0.640618    18A     -0.578499
      19A     -0.572624    20A     -0.555522    21A     -0.512459
      22A     -0.487983    23A     -0.479374    24A     -0.472946
      25A     -0.465958    26A     -0.458128    27A     -0.454558
      28A     -0.366001

  @DF-RHF Final Energy:  -289.31183536603658

   => Energetics <=

    Nuclear Repulsion Energy =            324.8262995795645907
    One-Electron Energy =               -1034.5527142862583787
    Two-Electron Energy =                 420.4145793406571556
    Total Energy =                       -289.3118353660365756
  Basis Set: (AUG-CC-PVTZ AUX)
    Blend: AUG-CC-PVTZ-RI
    Molecular point group: c1

    Geometry (in Angstrom), charge = 0, multiplicity = 1:

       Center              X                  Y                   Z               Mass
    ------------   -----------------  -----------------  -----------------  -----------------
         N            2.721747535787     0.313792155824    -0.132071535981    14.003074004430
         C            0.236962935787    -0.163612844176     0.518879864019    12.000000000000
         C           -0.260906464213     1.132038155824    -0.014255535981    12.000000000000
         C           -0.842007464213    -1.245995844176     0.236824464019    12.000000000000
         C           -1.778183464213     0.970537155824     0.091762464019    12.000000000000
         C           -1.992225464213    -0.457013844176    -0.412215535981    12.000000000000
         C            1.596303535787    -0.614938844176    -0.263006535981    12.000000000000
         H            0.530095535787    -0.155064844176     1.533560464019     1.007825032230
         H            0.008963535787     1.297881155824    -1.067323535981     1.007825032230
         H            0.126488535787     1.980980155824     0.558655464019     1.007825032230
         H           -1.165596464213    -1.667423844176     1.194506464019     1.007825032230
         H           -0.517723464213    -2.088958844176    -0.384674535981     1.007825032230
         H           -2.335560464213     1.722752155824    -0.476309535981     1.007825032230
         H           -2.090344464213     1.047494155824     1.140827464019     1.007825032230
         H           -2.978681464213    -0.865078844176    -0.169569535981     1.007825032230
         H           -1.892353464213    -0.472862844176    -1.504265535981     1.007825032230
         H            1.381000535787    -0.726420844176    -1.333849535981     1.007825032230
         H            1.933631535787    -1.596596844176     0.090949464019     1.007825032230
         H            2.933784535787     0.446417155824     0.856600464019     1.007825032230
         H            2.446812535787     1.229466155824    -0.485209535981     1.007825032230

  Basis Set: AUG-CC-PVTZ
    Blend: AUG-CC-PVTZ
  Basis Set: (AUG-CC-PVTZ AUX)
    Blend: AUG-CC-PVTZ-JKFIT
	 Reference Energy          =    -289.3118353660365756 [Eh]
	 Singles Energy            =      -0.0000000000000000 [Eh]
	 Same-Spin Energy          =      -0.3129990698292404 [Eh]
	 Opposite-Spin Energy      =      -1.0980992617074861 [Eh]
	 Correlation Energy        =      -1.4110983315367265 [Eh]
	 Total Energy              =    -290.7229336975732963 [Eh]

	 ================> DF-SCS-MP2 Energies <==================
	-----------------------------------------------------------
	 SCS Same-Spin Scale       =       0.3333333333333333 [-]
	 SCS Opposite-Spin Scale   =       1.2000000000000000 [-]
	 SCS Same-Spin Energy      =      -0.1043330232764135 [Eh]
	 SCS Opposite-Spin Energy  =      -1.3177191140489832 [Eh]
	 SCS Correlation Energy    =      -1.4220521373253967 [Eh]
	 SCS Total Energy          =    -290.7338875033619843 [Eh]
	-----------------------------------------------------------

  Dipole Moment: [D]
     X:    -1.2474      Y:     0.4905      Z:     0.7916     Total:     1.5567

*** Psi4 exiting successfully. Buy a developer a beer!
