                               Psi4 1.4a3.dev225

  ==> Input File <==

--------------------------------------------------------------------------
#psi4
#
memory 32 gb

molecule  {
0 1
  N        2.7287650     0.3187530    -0.1253010
  C        0.3130830    -0.2174900     0.4662370
  C       -0.2538890     1.1369990    -0.0074850
  C       -0.8349900    -1.2410350     0.2435950
  C       -1.7711660     0.9754980     0.0985330
  C       -1.9852080    -0.4520530    -0.4054450
  C        1.6033210    -0.6099780    -0.2562360
  H        0.5371130    -0.1501040     1.5403310
  H        0.0073620     1.2863315    -1.0651871
  H        0.1335060     1.9859410     0.5654260
  H       -1.1585790    -1.6624630     1.2012770
  H       -0.5107060    -2.0839980    -0.3779040
  H       -2.3285430     1.7277130    -0.4695390
  H       -2.0833270     1.0524550     1.1475980
  H       -2.9716640    -0.8601180    -0.1627990
  H       -1.8853360    -0.4679020    -1.4974950
  H        1.3880180    -0.7214600    -1.3270790
  H        1.9406490    -1.5916360     0.0977200
  H        2.9408020     0.4513780     0.8633710
  H        2.4538300     1.2344270    -0.4784390
units angstrom
no_reorient  #important for SAPT in psi4, default
symmetry c1  #important for SAPT in psi4, default
}

set PROPERTIES_ORIGIN ["COM"]
properties('MP2/aug-cc-pvtz', properties = ['dipole'])
--------------------------------------------------------------------------

    Molecular point group: c1
  Charge       = 0
  Multiplicity = 1
  Basis Set: AUG-CC-PVTZ
    Blend: AUG-CC-PVTZ
  Basis Set: (AUG-CC-PVTZ AUX)
    Blend: AUG-CC-PVTZ-JKFIT

    Orbital Energies [Eh]
    ---------------------

    Doubly Occupied:

       1A    -15.536977     2A    -11.242379     3A    -11.219884
       4A    -11.217122     5A    -11.216612     6A    -11.216151
       7A    -11.215630     8A     -1.177317     9A     -1.117839
      10A     -0.982761    11A     -0.961124    12A     -0.864743
      13A     -0.782430    14A     -0.755666    15A     -0.668425
      16A     -0.648313    17A     -0.641346    18A     -0.580695
      19A     -0.572764    20A     -0.558357    21A     -0.518078
      22A     -0.491503    23A     -0.477996    24A     -0.468317
      25A     -0.464278    26A     -0.455022    27A     -0.444595
      28A     -0.382114

  @DF-RHF Final Energy:  -289.32272093777829

   => Energetics <=

    Nuclear Repulsion Energy =            324.9589701682607483
    One-Electron Energy =               -1034.8065113936836497
    Two-Electron Energy =                 420.5248202876446157
    Total Energy =                       -289.3227209377782856
  Basis Set: (AUG-CC-PVTZ AUX)
    Blend: AUG-CC-PVTZ-RI
    Molecular point group: c1

    Geometry (in Angstrom), charge = 0, multiplicity = 1:

       Center              X                  Y                   Z               Mass
    ------------   -----------------  -----------------  -----------------  -----------------
         N            2.713467969502     0.321084392925    -0.124830401685    14.003074004430
         C            0.297785969502    -0.215158607075     0.466707598315    12.000000000000
         C           -0.269186030498     1.139330392925    -0.007014401685    12.000000000000
         C           -0.850287030498    -1.238703607075     0.244065598315    12.000000000000
         C           -1.786463030498     0.977829392925     0.099003598315    12.000000000000
         C           -2.000505030498    -0.449721607075    -0.404974401685    12.000000000000
         C            1.588023969502    -0.607646607075    -0.255765401685    12.000000000000
         H            0.521815969502    -0.147772607075     1.540801598315     1.007825032230
         H           -0.007935030498     1.288662892925    -1.064716501685     1.007825032230
         H            0.118208969502     1.988272392925     0.565896598315     1.007825032230
         H           -1.173876030498    -1.660131607075     1.201747598315     1.007825032230
         H           -0.526003030498    -2.081666607075    -0.377433401685     1.007825032230
         H           -2.343840030498     1.730044392925    -0.469068401685     1.007825032230
         H           -2.098624030498     1.054786392925     1.148068598315     1.007825032230
         H           -2.986961030498    -0.857786607075    -0.162328401685     1.007825032230
         H           -1.900633030498    -0.465570607075    -1.497024401685     1.007825032230
         H            1.372720969502    -0.719128607075    -1.326608401685     1.007825032230
         H            1.925351969502    -1.589304607075     0.098190598315     1.007825032230
         H            2.925504969502     0.453709392925     0.863841598315     1.007825032230
         H            2.438532969502     1.236758392925    -0.477968401685     1.007825032230

  Basis Set: AUG-CC-PVTZ
    Blend: AUG-CC-PVTZ
  Basis Set: (AUG-CC-PVTZ AUX)
    Blend: AUG-CC-PVTZ-JKFIT
	 Reference Energy          =    -289.3227209377782856 [Eh]
	 Singles Energy            =      -0.0000000000000000 [Eh]
	 Same-Spin Energy          =      -0.3126231422513312 [Eh]
	 Opposite-Spin Energy      =      -1.0973488167649830 [Eh]
	 Correlation Energy        =      -1.4099719590163142 [Eh]
	 Total Energy              =    -290.7326928967946174 [Eh]

	 ================> DF-SCS-MP2 Energies <==================
	-----------------------------------------------------------
	 SCS Same-Spin Scale       =       0.3333333333333333 [-]
	 SCS Opposite-Spin Scale   =       1.2000000000000000 [-]
	 SCS Same-Spin Energy      =      -0.1042077140837771 [Eh]
	 SCS Opposite-Spin Energy  =      -1.3168185801179795 [Eh]
	 SCS Correlation Energy    =      -1.4210262942017566 [Eh]
	 SCS Total Energy          =    -290.7437472319800236 [Eh]
	-----------------------------------------------------------

  Dipole Moment: [D]
     X:    -1.3085      Y:     0.4669      Z:     0.7705     Total:     1.5886

*** Psi4 exiting successfully. Buy a developer a beer!
