                               Psi4 1.4a3.dev225

  ==> Input File <==

--------------------------------------------------------------------------
#psi4
#
memory 32 gb

molecule  {
0 1
  N        2.7287650     0.3187530    -0.1253010
  C        0.3130830    -0.2174900     0.4662370
  C       -0.2538890     1.1369990    -0.0074850
  C       -0.8173804    -1.2242364     0.2322529
  C       -1.7711660     0.9754980     0.0985330
  C       -1.9852080    -0.4520530    -0.4054450
  C        1.6033210    -0.6099780    -0.2562360
  H        0.5371130    -0.1501040     1.5403310
  H        0.0159810     1.3028420    -1.0605530
  H        0.1335060     1.9859410     0.5654260
  H       -1.1585790    -1.6624630     1.2012770
  H       -0.5107060    -2.0839980    -0.3779040
  H       -2.3285430     1.7277130    -0.4695390
  H       -2.0833270     1.0524550     1.1475980
  H       -2.9716640    -0.8601180    -0.1627990
  H       -1.8853360    -0.4679020    -1.4974950
  H        1.3880180    -0.7214600    -1.3270790
  H        1.9406490    -1.5916360     0.0977200
  H        2.9408020     0.4513780     0.8633710
  H        2.4538300     1.2344270    -0.4784390
units angstrom
no_reorient  #important for SAPT in psi4, default
symmetry c1  #important for SAPT in psi4, default
}

set PROPERTIES_ORIGIN ["COM"]
properties('MP2/aug-cc-pvtz', properties = ['dipole'])
--------------------------------------------------------------------------

    Molecular point group: c1
  Charge       = 0
  Multiplicity = 1
  Basis Set: AUG-CC-PVTZ
    Blend: AUG-CC-PVTZ
  Basis Set: (AUG-CC-PVTZ AUX)
    Blend: AUG-CC-PVTZ-JKFIT

    Orbital Energies [Eh]
    ---------------------

    Doubly Occupied:

       1A    -15.537027     2A    -11.242523     3A    -11.219241
       4A    -11.217212     5A    -11.216936     6A    -11.216568
       7A    -11.215947     8A     -1.177782     9A     -1.119648
      10A     -0.984544    11A     -0.960351    12A     -0.864926
      13A     -0.782722    14A     -0.755193    15A     -0.669111
      16A     -0.648217    17A     -0.642508    18A     -0.580499
      19A     -0.570309    20A     -0.558785    21A     -0.518956
      22A     -0.491409    23A     -0.478697    24A     -0.467888
      25A     -0.463883    26A     -0.458213    27A     -0.442059
      28A     -0.382276

  @DF-RHF Final Energy:  -289.32180230012835

   => Energetics <=

    Nuclear Repulsion Energy =            325.3008587971232259
    One-Electron Energy =               -1035.4784568803479488
    Two-Electron Energy =                 420.8557957830963119
    Total Energy =                       -289.3218023001283541
  Basis Set: (AUG-CC-PVTZ AUX)
    Blend: AUG-CC-PVTZ-RI
    Molecular point group: c1

    Geometry (in Angstrom), charge = 0, multiplicity = 1:

       Center              X                  Y                   Z               Mass
    ------------   -----------------  -----------------  -----------------  -----------------
         N            2.711248080604     0.318882452187    -0.123504180970    14.003074004430
         C            0.295566080604    -0.217360547813     0.468033819030    12.000000000000
         C           -0.271405919396     1.137128452187    -0.005688180970    12.000000000000
         C           -0.834897319396    -1.224106947813     0.234049719030    12.000000000000
         C           -1.788682919396     0.975627452187     0.100329819030    12.000000000000
         C           -2.002724919396    -0.451923547813    -0.403648180970    12.000000000000
         C            1.585804080604    -0.609848547813    -0.254439180970    12.000000000000
         H            0.519596080604    -0.149974547813     1.542127819030     1.007825032230
         H           -0.001535919396     1.302971452187    -1.058756180970     1.007825032230
         H            0.115989080604     1.986070452187     0.567222819030     1.007825032230
         H           -1.176095919396    -1.662333547813     1.203073819030     1.007825032230
         H           -0.528222919396    -2.083868547813    -0.376107180970     1.007825032230
         H           -2.346059919396     1.727842452187    -0.467742180970     1.007825032230
         H           -2.100843919396     1.052584452187     1.149394819030     1.007825032230
         H           -2.989180919396    -0.859988547813    -0.161002180970     1.007825032230
         H           -1.902852919396    -0.467772547813    -1.495698180970     1.007825032230
         H            1.370501080604    -0.721330547813    -1.325282180970     1.007825032230
         H            1.923132080604    -1.591506547813     0.099516819030     1.007825032230
         H            2.923285080604     0.451507452187     0.865167819030     1.007825032230
         H            2.436313080604     1.234556452187    -0.476642180970     1.007825032230

  Basis Set: AUG-CC-PVTZ
    Blend: AUG-CC-PVTZ
  Basis Set: (AUG-CC-PVTZ AUX)
    Blend: AUG-CC-PVTZ-JKFIT
	 Reference Energy          =    -289.3218023001283541 [Eh]
	 Singles Energy            =      -0.0000000000000000 [Eh]
	 Same-Spin Energy          =      -0.3127591323286195 [Eh]
	 Opposite-Spin Energy      =      -1.0974906795471999 [Eh]
	 Correlation Energy        =      -1.4102498118758193 [Eh]
	 Total Energy              =    -290.7320521120041690 [Eh]

	 ================> DF-SCS-MP2 Energies <==================
	-----------------------------------------------------------
	 SCS Same-Spin Scale       =       0.3333333333333333 [-]
	 SCS Opposite-Spin Scale   =       1.2000000000000000 [-]
	 SCS Same-Spin Energy      =      -0.1042530441095398 [Eh]
	 SCS Opposite-Spin Energy  =      -1.3169888154566398 [Eh]
	 SCS Correlation Energy    =      -1.4212418595661795 [Eh]
	 SCS Total Energy          =    -290.7430441596945343 [Eh]
	-----------------------------------------------------------

  Dipole Moment: [D]
     X:    -1.3051      Y:     0.4744      Z:     0.7605     Total:     1.5833

*** Psi4 exiting successfully. Buy a developer a beer!
