                               Psi4 1.4a3.dev225

  ==> Input File <==

--------------------------------------------------------------------------
#psi4
#
memory 32 gb

molecule  {
0 1
  N        2.7287650     0.3187530    -0.1253010
  C        0.3130830    -0.2174900     0.4662370
  C       -0.2538890     1.1369990    -0.0074850
  C       -0.8349900    -1.2410350     0.2435950
  C       -1.7711660     0.9754980     0.0985330
  C       -1.9852080    -0.4520530    -0.4054450
  C        1.6033210    -0.6099780    -0.2562360
  H        0.5371130    -0.1501040     1.5403310
  H        0.0159810     1.3028420    -1.0605530
  H        0.1335060     1.9859410     0.5654260
  H       -1.1585790    -1.6624630     1.2012770
  H       -0.5107060    -2.0839980    -0.3779040
  H       -2.3285430     1.7277130    -0.4695390
  H       -2.0833270     1.0524550     1.1475980
  H       -2.9716640    -0.8601180    -0.1627990
  H       -1.8853360    -0.4679020    -1.4974950
  H        1.3880180    -0.7214600    -1.3270790
  H        1.9406490    -1.5916360     0.0977200
  H        2.9408020     0.4513780     0.8633710
  H        2.4592252     1.2164584    -0.4715092
units angstrom
no_reorient  #important for SAPT in psi4, default
symmetry c1  #important for SAPT in psi4, default
}

set PROPERTIES_ORIGIN ["COM"]
properties('MP2/aug-cc-pvtz', properties = ['dipole'])
--------------------------------------------------------------------------

    Molecular point group: c1
  Charge       = 0
  Multiplicity = 1
  Basis Set: AUG-CC-PVTZ
    Blend: AUG-CC-PVTZ
  Basis Set: (AUG-CC-PVTZ AUX)
    Blend: AUG-CC-PVTZ-JKFIT

    Orbital Energies [Eh]
    ---------------------

    Doubly Occupied:

       1A    -15.534713     2A    -11.242308     3A    -11.220001
       4A    -11.217151     5A    -11.216636     6A    -11.216186
       7A    -11.215646     8A     -1.179593     9A     -1.118173
      10A     -0.983331    11A     -0.961164    12A     -0.865621
      13A     -0.782526    14A     -0.755893    15A     -0.670589
      16A     -0.648770    17A     -0.641789    18A     -0.580660
      19A     -0.572522    20A     -0.559349    21A     -0.518839
      22A     -0.491284    23A     -0.478070    24A     -0.468792
      25A     -0.464131    26A     -0.454936    27A     -0.444888
      28A     -0.382345

  @DF-RHF Final Energy:  -289.32311768416986

   => Energetics <=

    Nuclear Repulsion Energy =            325.0260478576130936
    One-Electron Energy =               -1034.9265215375519347
    Two-Electron Energy =                 420.5773559957689827
    Total Energy =                       -289.3231176841698584
  Basis Set: (AUG-CC-PVTZ AUX)
    Blend: AUG-CC-PVTZ-RI
    Molecular point group: c1

    Geometry (in Angstrom), charge = 0, multiplicity = 1:

       Center              X                  Y                   Z               Mass
    ------------   -----------------  -----------------  -----------------  -----------------
         N            2.713325455096     0.321099220760    -0.124947998290    14.003074004430
         C            0.297643455096    -0.215143779240     0.466590001710    12.000000000000
         C           -0.269328544904     1.139345220760    -0.007131998290    12.000000000000
         C           -0.850429544904    -1.238688779240     0.243948001710    12.000000000000
         C           -1.786605544904     0.977844220760     0.098886001710    12.000000000000
         C           -2.000647544904    -0.449706779240    -0.405091998290    12.000000000000
         C            1.587881455096    -0.607631779240    -0.255882998290    12.000000000000
         H            0.521673455096    -0.147757779240     1.540684001710     1.007825032230
         H            0.000541455096     1.305188220760    -1.060199998290     1.007825032230
         H            0.118066455096     1.988287220760     0.565779001710     1.007825032230
         H           -1.174018544904    -1.660116779240     1.201630001710     1.007825032230
         H           -0.526145544904    -2.081651779240    -0.377550998290     1.007825032230
         H           -2.343982544904     1.730059220760    -0.469185998290     1.007825032230
         H           -2.098766544904     1.054801220760     1.147951001710     1.007825032230
         H           -2.987103544904    -0.857771779240    -0.162445998290     1.007825032230
         H           -1.900775544904    -0.465555779240    -1.497141998290     1.007825032230
         H            1.372578455096    -0.719113779240    -1.326725998290     1.007825032230
         H            1.925209455096    -1.589289779240     0.098073001710     1.007825032230
         H            2.925362455096     0.453724220760     0.863724001710     1.007825032230
         H            2.443785655096     1.218804620760    -0.471156198290     1.007825032230

  Basis Set: AUG-CC-PVTZ
    Blend: AUG-CC-PVTZ
  Basis Set: (AUG-CC-PVTZ AUX)
    Blend: AUG-CC-PVTZ-JKFIT
	 Reference Energy          =    -289.3231176841698584 [Eh]
	 Singles Energy            =      -0.0000000000000000 [Eh]
	 Same-Spin Energy          =      -0.3124978251109510 [Eh]
	 Opposite-Spin Energy      =      -1.0969844913153590 [Eh]
	 Correlation Energy        =      -1.4094823164263099 [Eh]
	 Total Energy              =    -290.7326000005961646 [Eh]

	 ================> DF-SCS-MP2 Energies <==================
	-----------------------------------------------------------
	 SCS Same-Spin Scale       =       0.3333333333333333 [-]
	 SCS Opposite-Spin Scale   =       1.2000000000000000 [-]
	 SCS Same-Spin Energy      =      -0.1041659417036503 [Eh]
	 SCS Opposite-Spin Energy  =      -1.3163813895784309 [Eh]
	 SCS Correlation Energy    =      -1.4205473312820811 [Eh]
	 SCS Total Energy          =    -290.7436650154519384 [Eh]
	-----------------------------------------------------------

  Dipole Moment: [D]
     X:    -1.3060      Y:     0.4686      Z:     0.7722     Total:     1.5879

*** Psi4 exiting successfully. Buy a developer a beer!
