                               Psi4 1.4a3.dev225

  ==> Input File <==

--------------------------------------------------------------------------
#psi4
#
memory 32 gb

molecule  {
0 1
  N        2.7287650     0.3187530    -0.1253010
  C        0.3130830    -0.2174900     0.4662370
  C       -0.2538890     1.1369990    -0.0074850
  C       -0.8349900    -1.2410350     0.2435950
  C       -1.7711660     0.9754980     0.0985330
  C       -1.9852080    -0.4520530    -0.4054450
  C        1.6033210    -0.6099780    -0.2562360
  H        0.5371130    -0.1501040     1.5403310
  H        0.0159810     1.3028420    -1.0605530
  H        0.1335060     1.9859410     0.5654260
  H       -1.1585790    -1.6624630     1.2012770
  H       -0.5107060    -2.0839980    -0.3779040
  H       -2.3285430     1.7277130    -0.4695390
  H       -2.0833270     1.0524550     1.1475980
  H       -2.9716640    -0.8601180    -0.1627990
  H       -1.8853360    -0.4679020    -1.4974950
  H        1.3880180    -0.7214600    -1.3270790
  H        1.9406490    -1.5916360     0.0977200
  H        2.9408020     0.4513780     0.8633710
  H        2.5077815     1.0547409    -0.4091414
units angstrom
no_reorient  #important for SAPT in psi4, default
symmetry c1  #important for SAPT in psi4, default
}

set PROPERTIES_ORIGIN ["COM"]
properties('MP2/aug-cc-pvtz', properties = ['dipole'])
--------------------------------------------------------------------------

    Molecular point group: c1
  Charge       = 0
  Multiplicity = 1
  Basis Set: AUG-CC-PVTZ
    Blend: AUG-CC-PVTZ
  Basis Set: (AUG-CC-PVTZ AUX)
    Blend: AUG-CC-PVTZ-JKFIT

    Orbital Energies [Eh]
    ---------------------

    Doubly Occupied:

       1A    -15.512461     2A    -11.242094     3A    -11.220375
       4A    -11.217313     5A    -11.216802     6A    -11.216385
       7A    -11.215874     8A     -1.211297     9A     -1.122030
      10A     -0.989907    11A     -0.961425    12A     -0.875121
      13A     -0.782668    14A     -0.756564    15A     -0.697050
      16A     -0.652244    17A     -0.642902    18A     -0.581132
      19A     -0.575460    20A     -0.565664    21A     -0.523402
      22A     -0.491705    23A     -0.478313    24A     -0.469393
      25A     -0.464288    26A     -0.455295    27A     -0.445628
      28A     -0.384984

  @DF-RHF Final Energy:  -289.27952789457214

   => Energetics <=

    Nuclear Repulsion Energy =            326.0091282404088702
    One-Electron Energy =               -1036.6417626439508695
    Two-Electron Energy =                 421.3531065089698018
    Total Energy =                       -289.2795278945721407
  Basis Set: (AUG-CC-PVTZ AUX)
    Blend: AUG-CC-PVTZ-RI
    Molecular point group: c1

    Geometry (in Angstrom), charge = 0, multiplicity = 1:

       Center              X                  Y                   Z               Mass
    ------------   -----------------  -----------------  -----------------  -----------------
         N            2.712831672203     0.322743772241    -0.125582234274    14.003074004430
         C            0.297149672203    -0.213499227759     0.465955765726    12.000000000000
         C           -0.269822327797     1.140989772241    -0.007766234274    12.000000000000
         C           -0.850923327797    -1.237044227759     0.243313765726    12.000000000000
         C           -1.787099327797     0.979488772241     0.098251765726    12.000000000000
         C           -2.001141327797    -0.448062227759    -0.405726234274    12.000000000000
         C            1.587387672203    -0.605987227759    -0.256517234274    12.000000000000
         H            0.521179672203    -0.146113227759     1.540049765726     1.007825032230
         H            0.000047672203     1.306832772241    -1.060834234274     1.007825032230
         H            0.117572672203     1.989931772241     0.565144765726     1.007825032230
         H           -1.174512327797    -1.658472227759     1.200995765726     1.007825032230
         H           -0.526639327797    -2.080007227759    -0.378185234274     1.007825032230
         H           -2.344476327797     1.731703772241    -0.469820234274     1.007825032230
         H           -2.099260327797     1.056445772241     1.147316765726     1.007825032230
         H           -2.987597327797    -0.856127227759    -0.163080234274     1.007825032230
         H           -1.901269327797    -0.463911227759    -1.497776234274     1.007825032230
         H            1.372084672203    -0.717469227759    -1.327360234274     1.007825032230
         H            1.924715672203    -1.587645227759     0.097438765726     1.007825032230
         H            2.924868672203     0.455368772241     0.863089765726     1.007825032230
         H            2.491848172203     1.058731672241    -0.409422634274     1.007825032230

  Basis Set: AUG-CC-PVTZ
    Blend: AUG-CC-PVTZ
  Basis Set: (AUG-CC-PVTZ AUX)
    Blend: AUG-CC-PVTZ-JKFIT
	 Reference Energy          =    -289.2795278945721407 [Eh]
	 Singles Energy            =      -0.0000000000000000 [Eh]
	 Same-Spin Energy          =      -0.3116712592435550 [Eh]
	 Opposite-Spin Energy      =      -1.0946737880983943 [Eh]
	 Correlation Energy        =      -1.4063450473419494 [Eh]
	 Total Energy              =    -290.6858729419141127 [Eh]

	 ================> DF-SCS-MP2 Energies <==================
	-----------------------------------------------------------
	 SCS Same-Spin Scale       =       0.3333333333333333 [-]
	 SCS Opposite-Spin Scale   =       1.2000000000000000 [-]
	 SCS Same-Spin Energy      =      -0.1038904197478517 [Eh]
	 SCS Opposite-Spin Energy  =      -1.3136085457180731 [Eh]
	 SCS Correlation Energy    =      -1.4174989654659247 [Eh]
	 SCS Total Energy          =    -290.6970268600380791 [Eh]
	-----------------------------------------------------------

  Dipole Moment: [D]
     X:    -1.3083      Y:     0.4408      Z:     0.8086     Total:     1.5999

*** Psi4 exiting successfully. Buy a developer a beer!
