                               Psi4 1.4a3.dev225

  ==> Input File <==

--------------------------------------------------------------------------
#psi4
#
memory 32 gb

molecule  {
0 1
  N        2.7287650     0.3187530    -0.1253010
  C        0.3130830    -0.2174900     0.4662370
  C       -0.2538890     1.1369990    -0.0074850
  C       -0.8349900    -1.2410350     0.2435950
  C       -1.7711660     0.9754980     0.0985330
  C       -1.9852080    -0.4520530    -0.4054450
  C        1.6033210    -0.6099780    -0.2562360
  H        0.5371130    -0.1501040     1.5403310
  H        0.0159810     1.3028420    -1.0605530
  H        0.1335060     1.9859410     0.5654260
  H       -1.1585790    -1.6624630     1.2012770
  H       -0.5107060    -2.0839980    -0.3779040
  H       -2.3285430     1.7277130    -0.4695390
  H       -2.0833270     1.0524550     1.1475980
  H       -2.9716640    -0.8601180    -0.1627990
  H       -1.8853360    -0.4679020    -1.4974950
  H        1.3880180    -0.7214600    -1.3270790
  H        1.9406490    -1.5916360     0.0977200
  H        2.9408020     0.4513780     0.8633710
  H        2.4268542     1.3242700    -0.5130878
units angstrom
no_reorient  #important for SAPT in psi4, default
symmetry c1  #important for SAPT in psi4, default
}

set PROPERTIES_ORIGIN ["COM"]
properties('MP2/aug-cc-pvtz', properties = ['dipole'])
--------------------------------------------------------------------------

    Molecular point group: c1
  Charge       = 0
  Multiplicity = 1
  Basis Set: AUG-CC-PVTZ
    Blend: AUG-CC-PVTZ
  Basis Set: (AUG-CC-PVTZ AUX)
    Blend: AUG-CC-PVTZ-JKFIT

    Orbital Energies [Eh]
    ---------------------

    Doubly Occupied:

       1A    -15.547738     2A    -11.242931     3A    -11.219967
       4A    -11.216998     5A    -11.216508     6A    -11.216099
       7A    -11.215599     8A     -1.168658     9A     -1.115652
      10A     -0.980417    11A     -0.961018    12A     -0.861297
      13A     -0.782448    14A     -0.755732    15A     -0.661325
      16A     -0.644868    17A     -0.637728    18A     -0.580747
      19A     -0.571555    20A     -0.553410    21A     -0.513582
      22A     -0.491259    23A     -0.477905    24A     -0.468153
      25A     -0.464031    26A     -0.454843    27A     -0.444260
      28A     -0.381269

  @DF-RHF Final Energy:  -289.31298373680613

   => Energetics <=

    Nuclear Repulsion Energy =            324.5158135719395887
    One-Electron Energy =               -1033.9655953049384607
    Two-Electron Energy =                 420.1367979961927404
    Total Energy =                       -289.3129837368061317
  Basis Set: (AUG-CC-PVTZ AUX)
    Blend: AUG-CC-PVTZ-RI
    Molecular point group: c1

    Geometry (in Angstrom), charge = 0, multiplicity = 1:

       Center              X                  Y                   Z               Mass
    ------------   -----------------  -----------------  -----------------  -----------------
         N            2.713654645048     0.320002853785    -0.124525173622    14.003074004430
         C            0.297972645048    -0.216240146215     0.467012826378    12.000000000000
         C           -0.268999354952     1.138248853785    -0.006709173622    12.000000000000
         C           -0.850100354952    -1.239785146215     0.244370826378    12.000000000000
         C           -1.786276354952     0.976747853785     0.099308826378    12.000000000000
         C           -2.000318354952    -0.450803146215    -0.404669173622    12.000000000000
         C            1.588210645048    -0.608728146215    -0.255460173622    12.000000000000
         H            0.522002645048    -0.148854146215     1.541106826378     1.007825032230
         H            0.000870645048     1.304091853785    -1.059777173622     1.007825032230
         H            0.118395645048     1.987190853785     0.566201826378     1.007825032230
         H           -1.173689354952    -1.661213146215     1.202052826378     1.007825032230
         H           -0.525816354952    -2.082748146215    -0.377128173622     1.007825032230
         H           -2.343653354952     1.728962853785    -0.468763173622     1.007825032230
         H           -2.098437354952     1.053704853785     1.148373826378     1.007825032230
         H           -2.986774354952    -0.858868146215    -0.162023173622     1.007825032230
         H           -1.900446354952    -0.466652146215    -1.496719173622     1.007825032230
         H            1.372907645048    -0.720210146215    -1.326303173622     1.007825032230
         H            1.925538645048    -1.590386146215     0.098495826378     1.007825032230
         H            2.925691645048     0.452627853785     0.864146826378     1.007825032230
         H            2.411743845048     1.325519853785    -0.512311973622     1.007825032230

  Basis Set: AUG-CC-PVTZ
    Blend: AUG-CC-PVTZ
  Basis Set: (AUG-CC-PVTZ AUX)
    Blend: AUG-CC-PVTZ-JKFIT
	 Reference Energy          =    -289.3129837368061317 [Eh]
	 Singles Energy            =      -0.0000000000000000 [Eh]
	 Same-Spin Energy          =      -0.3131057486580442 [Eh]
	 Opposite-Spin Energy      =      -1.0991388581083497 [Eh]
	 Correlation Energy        =      -1.4122446067663939 [Eh]
	 Total Energy              =    -290.7252283435725531 [Eh]

	 ================> DF-SCS-MP2 Energies <==================
	-----------------------------------------------------------
	 SCS Same-Spin Scale       =       0.3333333333333333 [-]
	 SCS Opposite-Spin Scale   =       1.2000000000000000 [-]
	 SCS Same-Spin Energy      =      -0.1043685828860147 [Eh]
	 SCS Opposite-Spin Energy  =      -1.3189666297300195 [Eh]
	 SCS Correlation Energy    =      -1.4233352126160344 [Eh]
	 SCS Total Energy          =    -290.7363189494221842 [Eh]
	-----------------------------------------------------------

  Dipole Moment: [D]
     X:    -1.3123      Y:     0.4656      Z:     0.7577     Total:     1.5853

*** Psi4 exiting successfully. Buy a developer a beer!
