                               Psi4 1.4a3.dev225

  ==> Input File <==

--------------------------------------------------------------------------
#psi4
#
memory 32 gb

molecule  {
0 1
  N        2.7287650     0.3187530    -0.1253010
  C        0.3130830    -0.2174900     0.4662370
  C       -0.2538890     1.1369990    -0.0074850
  C       -0.6872442    -1.1093147     0.2722469
  C       -1.7711660     0.9754980     0.0985330
  C       -1.9852080    -0.4520530    -0.4054450
  C        1.6033210    -0.6099780    -0.2562360
  H        0.5371130    -0.1501040     1.5403310
  H        0.0159810     1.3028420    -1.0605530
  H        0.1335060     1.9859410     0.5654260
  H       -1.1585790    -1.6624630     1.2012770
  H       -0.5107060    -2.0839980    -0.3779040
  H       -2.3285430     1.7277130    -0.4695390
  H       -2.0833270     1.0524550     1.1475980
  H       -2.9716640    -0.8601180    -0.1627990
  H       -1.8853360    -0.4679020    -1.4974950
  H        1.3880180    -0.7214600    -1.3270790
  H        1.9406490    -1.5916360     0.0977200
  H        2.9408020     0.4513780     0.8633710
  H        2.4538300     1.2344270    -0.4784390
units angstrom
no_reorient  #important for SAPT in psi4, default
symmetry c1  #important for SAPT in psi4, default
}

set PROPERTIES_ORIGIN ["COM"]
properties('MP2/aug-cc-pvtz', properties = ['dipole'])
--------------------------------------------------------------------------

    Molecular point group: c1
  Charge       = 0
  Multiplicity = 1
  Basis Set: AUG-CC-PVTZ
    Blend: AUG-CC-PVTZ
  Basis Set: (AUG-CC-PVTZ AUX)
    Blend: AUG-CC-PVTZ-JKFIT

    Orbital Energies [Eh]
    ---------------------

    Doubly Occupied:

       1A    -15.537938     2A    -11.244872     3A    -11.225242
       4A    -11.219961     5A    -11.219378     6A    -11.216063
       7A    -11.210323     8A     -1.183800     9A     -1.134608
      10A     -1.002314    11A     -0.948894    12A     -0.870861
      13A     -0.788513    14A     -0.746154    15A     -0.676493
      16A     -0.651921    17A     -0.645079    18A     -0.585876
      19A     -0.568785    20A     -0.555951    21A     -0.534355
      22A     -0.507376    23A     -0.476270    24A     -0.468204
      25A     -0.465459    26A     -0.439869    27A     -0.419259
      28A     -0.381501

  @DF-RHF Final Energy:  -289.27675619720128

   => Energetics <=

    Nuclear Repulsion Energy =            327.6208261720670407
    One-Electron Energy =               -1039.9445263873742533
    Two-Electron Energy =                 423.0469440181059326
    Total Energy =                       -289.2767561972012800
  Basis Set: (AUG-CC-PVTZ AUX)
    Blend: AUG-CC-PVTZ-RI
    Molecular point group: c1

    Geometry (in Angstrom), charge = 0, multiplicity = 1:

       Center              X                  Y                   Z               Mass
    ------------   -----------------  -----------------  -----------------  -----------------
         N            2.695490676229     0.304967279480    -0.128346812233    14.003074004430
         C            0.279808676229    -0.231275720520     0.463191187767    12.000000000000
         C           -0.287163323771     1.123213279480    -0.010530812233    12.000000000000
         C           -0.720518523771    -1.123100420520     0.269201087767    12.000000000000
         C           -1.804440323771     0.961712279480     0.095487187767    12.000000000000
         C           -2.018482323771    -0.465838720520    -0.408490812233    12.000000000000
         C            1.570046676229    -0.623763720520    -0.259281812233    12.000000000000
         H            0.503838676229    -0.163889720520     1.537285187767     1.007825032230
         H           -0.017293323771     1.289056279480    -1.063598812233     1.007825032230
         H            0.100231676229     1.972155279480     0.562380187767     1.007825032230
         H           -1.191853323771    -1.676248720520     1.198231187767     1.007825032230
         H           -0.543980323771    -2.097783720520    -0.380949812233     1.007825032230
         H           -2.361817323771     1.713927279480    -0.472584812233     1.007825032230
         H           -2.116601323771     1.038669279480     1.144552187767     1.007825032230
         H           -3.004938323771    -0.873903720520    -0.165844812233     1.007825032230
         H           -1.918610323771    -0.481687720520    -1.500540812233     1.007825032230
         H            1.354743676229    -0.735245720520    -1.330124812233     1.007825032230
         H            1.907374676229    -1.605421720520     0.094674187767     1.007825032230
         H            2.907527676229     0.437592279480     0.860325187767     1.007825032230
         H            2.420555676229     1.220641279480    -0.481484812233     1.007825032230

  Basis Set: AUG-CC-PVTZ
    Blend: AUG-CC-PVTZ
  Basis Set: (AUG-CC-PVTZ AUX)
    Blend: AUG-CC-PVTZ-JKFIT
	 Reference Energy          =    -289.2767561972012800 [Eh]
	 Singles Energy            =      -0.0000000000000000 [Eh]
	 Same-Spin Energy          =      -0.3154361146561530 [Eh]
	 Opposite-Spin Energy      =      -1.1011564757661558 [Eh]
	 Correlation Energy        =      -1.4165925904223089 [Eh]
	 Total Energy              =    -290.6933487876235631 [Eh]

	 ================> DF-SCS-MP2 Energies <==================
	-----------------------------------------------------------
	 SCS Same-Spin Scale       =       0.3333333333333333 [-]
	 SCS Opposite-Spin Scale   =       1.2000000000000000 [-]
	 SCS Same-Spin Energy      =      -0.1051453715520510 [Eh]
	 SCS Opposite-Spin Energy  =      -1.3213877709193869 [Eh]
	 SCS Correlation Energy    =      -1.4265331424714378 [Eh]
	 SCS Total Energy          =    -290.7032893396727218 [Eh]
	-----------------------------------------------------------

  Dipole Moment: [D]
     X:    -1.2773      Y:     0.5707      Z:     0.7650     Total:     1.5945

*** Psi4 exiting successfully. Buy a developer a beer!
