                               Psi4 1.4a3.dev225

  ==> Input File <==

--------------------------------------------------------------------------
#psi4
#
memory 32 gb

molecule  {
0 1
  N        2.7287650     0.3187530    -0.1253010
  C        0.3130830    -0.2174900     0.4662370
  C       -0.2538890     1.1369990    -0.0074850
  C       -0.8349900    -1.2410350     0.2435950
  C       -1.7711660     0.9754980     0.0985330
  C       -1.9852080    -0.4520530    -0.4054450
  C        1.6033210    -0.6099780    -0.2562360
  H        0.5371130    -0.1501040     1.5403310
  H        0.0159810     1.3028420    -1.0605530
  H        0.1335060     1.9859410     0.5654260
  H       -1.1585790    -1.6624630     1.2012770
  H       -0.5107060    -2.0839980    -0.3779040
  H       -2.3285430     1.7277130    -0.4695390
  H       -2.0833270     1.0524550     1.1475980
  H       -2.9716640    -0.8601180    -0.1627990
  H       -1.8835147    -0.4681910    -1.5174098
  H        1.3880180    -0.7214600    -1.3270790
  H        1.9406490    -1.5916360     0.0977200
  H        2.9408020     0.4513780     0.8633710
  H        2.4538300     1.2344270    -0.4784390
units angstrom
no_reorient  #important for SAPT in psi4, default
symmetry c1  #important for SAPT in psi4, default
}

set PROPERTIES_ORIGIN ["COM"]
properties('MP2/aug-cc-pvtz', properties = ['dipole'])
--------------------------------------------------------------------------

    Molecular point group: c1
  Charge       = 0
  Multiplicity = 1
  Basis Set: AUG-CC-PVTZ
    Blend: AUG-CC-PVTZ
  Basis Set: (AUG-CC-PVTZ AUX)
    Blend: AUG-CC-PVTZ-JKFIT

    Orbital Energies [Eh]
    ---------------------

    Doubly Occupied:

       1A    -15.537026     2A    -11.242408     3A    -11.220064
       4A    -11.218791     5A    -11.217196     6A    -11.216588
       7A    -11.216023     8A     -1.177340     9A     -1.117579
      10A     -0.982523    11A     -0.960870    12A     -0.864685
      13A     -0.781162    14A     -0.755746    15A     -0.668484
      16A     -0.647991    17A     -0.641196    18A     -0.580463
      19A     -0.571227    20A     -0.558455    21A     -0.518120
      22A     -0.491258    23A     -0.478100    24A     -0.468741
      25A     -0.463447    26A     -0.454852    27A     -0.444414
      28A     -0.382176

  @DF-RHF Final Energy:  -289.32226608671925

   => Energetics <=

    Nuclear Repulsion Energy =            324.8446765812481090
    One-Electron Energy =               -1034.5800320830378496
    Two-Electron Energy =                 420.4130894150704876
    Total Energy =                       -289.3222660867192531
  Basis Set: (AUG-CC-PVTZ AUX)
    Blend: AUG-CC-PVTZ-RI
    Molecular point group: c1

    Geometry (in Angstrom), charge = 0, multiplicity = 1:

       Center              X                  Y                   Z               Mass
    ------------   -----------------  -----------------  -----------------  -----------------
         N            2.713361799107     0.320919431855    -0.124675007879    14.003074004430
         C            0.297679799107    -0.215323568145     0.466862992121    12.000000000000
         C           -0.269292200893     1.139165431855    -0.006859007879    12.000000000000
         C           -0.850393200893    -1.238868568145     0.244220992121    12.000000000000
         C           -1.786569200893     0.977664431855     0.099158992121    12.000000000000
         C           -2.000611200893    -0.449886568145    -0.404819007879    12.000000000000
         C            1.587917799107    -0.607811568145    -0.255610007879    12.000000000000
         H            0.521709799107    -0.147937568145     1.540956992121     1.007825032230
         H            0.000577799107     1.305008431855    -1.059927007879     1.007825032230
         H            0.118102799107     1.988107431855     0.566051992121     1.007825032230
         H           -1.173982200893    -1.660296568145     1.201902992121     1.007825032230
         H           -0.526109200893    -2.081831568145    -0.377278007879     1.007825032230
         H           -2.343946200893     1.729879431855    -0.468913007879     1.007825032230
         H           -2.098730200893     1.054621431855     1.148223992121     1.007825032230
         H           -2.987067200893    -0.857951568145    -0.162173007879     1.007825032230
         H           -1.898917900893    -0.466024568145    -1.516783807879     1.007825032230
         H            1.372614799107    -0.719293568145    -1.326453007879     1.007825032230
         H            1.925245799107    -1.589469568145     0.098345992121     1.007825032230
         H            2.925398799107     0.453544431855     0.863996992121     1.007825032230
         H            2.438426799107     1.236593431855    -0.477813007879     1.007825032230

  Basis Set: AUG-CC-PVTZ
    Blend: AUG-CC-PVTZ
  Basis Set: (AUG-CC-PVTZ AUX)
    Blend: AUG-CC-PVTZ-JKFIT
	 Reference Energy          =    -289.3222660867192531 [Eh]
	 Singles Energy            =      -0.0000000000000000 [Eh]
	 Same-Spin Energy          =      -0.3126000350991334 [Eh]
	 Opposite-Spin Energy      =      -1.0974441835997000 [Eh]
	 Correlation Energy        =      -1.4100442186988333 [Eh]
	 Total Energy              =    -290.7323103054180820 [Eh]

	 ================> DF-SCS-MP2 Energies <==================
	-----------------------------------------------------------
	 SCS Same-Spin Scale       =       0.3333333333333333 [-]
	 SCS Opposite-Spin Scale   =       1.2000000000000000 [-]
	 SCS Same-Spin Energy      =      -0.1042000116997111 [Eh]
	 SCS Opposite-Spin Energy  =      -1.3169330203196399 [Eh]
	 SCS Correlation Energy    =      -1.4211330320193509 [Eh]
	 SCS Total Energy          =    -290.7433991187385800 [Eh]
	-----------------------------------------------------------

  Dipole Moment: [D]
     X:    -1.3045      Y:     0.4707      Z:     0.7838     Total:     1.5930

*** Psi4 exiting successfully. Buy a developer a beer!
