                               Psi4 1.4a3.dev225

  ==> Input File <==

--------------------------------------------------------------------------
#psi4
#
memory 32 gb

molecule  {
0 1
  N        2.7287650     0.3187530    -0.1253010
  C        0.3130830    -0.2174900     0.4662370
  C       -0.2538890     1.1369990    -0.0074850
  C       -0.8349900    -1.2410350     0.2435950
  C       -1.7711660     0.9754980     0.0985330
  C       -1.9852080    -0.4520530    -0.4054450
  C        1.5864545    -0.6048472    -0.2467916
  H        0.5371130    -0.1501040     1.5403310
  H        0.0159810     1.3028420    -1.0605530
  H        0.1335060     1.9859410     0.5654260
  H       -1.1585790    -1.6624630     1.2012770
  H       -0.5107060    -2.0839980    -0.3779040
  H       -2.3285430     1.7277130    -0.4695390
  H       -2.0833270     1.0524550     1.1475980
  H       -2.9716640    -0.8601180    -0.1627990
  H       -1.8853360    -0.4679020    -1.4974950
  H        1.3880180    -0.7214600    -1.3270790
  H        1.9406490    -1.5916360     0.0977200
  H        2.9408020     0.4513780     0.8633710
  H        2.4538300     1.2344270    -0.4784390
units angstrom
no_reorient  #important for SAPT in psi4, default
symmetry c1  #important for SAPT in psi4, default
}

set PROPERTIES_ORIGIN ["COM"]
properties('MP2/aug-cc-pvtz', properties = ['dipole'])
--------------------------------------------------------------------------

    Molecular point group: c1
  Charge       = 0
  Multiplicity = 1
  Basis Set: AUG-CC-PVTZ
    Blend: AUG-CC-PVTZ
  Basis Set: (AUG-CC-PVTZ AUX)
    Blend: AUG-CC-PVTZ-JKFIT

    Orbital Energies [Eh]
    ---------------------

    Doubly Occupied:

       1A    -15.537148     2A    -11.242837     3A    -11.219765
       4A    -11.217407     5A    -11.216910     6A    -11.216505
       7A    -11.216020     8A     -1.176127     9A     -1.118127
      10A     -0.985486    11A     -0.961597    12A     -0.864112
      13A     -0.782952    14A     -0.756522    15A     -0.667815
      16A     -0.647706    17A     -0.642401    18A     -0.580638
      19A     -0.572921    20A     -0.556539    21A     -0.517974
      22A     -0.490488    23A     -0.478230    24A     -0.469084
      25A     -0.464405    26A     -0.454812    27A     -0.443679
      28A     -0.385263

  @DF-RHF Final Energy:  -289.32208284189619

   => Energetics <=

    Nuclear Repulsion Energy =            325.1565580491530909
    One-Electron Energy =               -1035.1903421615231764
    Two-Electron Energy =                 420.7117012704738954
    Total Energy =                       -289.3220828418961901
  Basis Set: (AUG-CC-PVTZ AUX)
    Blend: AUG-CC-PVTZ-RI
    Molecular point group: c1

    Geometry (in Angstrom), charge = 0, multiplicity = 1:

       Center              X                  Y                   Z               Mass
    ------------   -----------------  -----------------  -----------------  -----------------
         N            2.715422582772     0.320295235430    -0.126021092375    14.003074004430
         C            0.299740582772    -0.215947764570     0.465516907625    12.000000000000
         C           -0.267231417228     1.138541235430    -0.008205092375    12.000000000000
         C           -0.848332417228    -1.239492764570     0.242874907625    12.000000000000
         C           -1.784508417228     0.977040235430     0.097812907625    12.000000000000
         C           -1.998550417228    -0.450510764570    -0.406165092375    12.000000000000
         C            1.573112082772    -0.603304964570    -0.247511692375    12.000000000000
         H            0.523770582772    -0.148561764570     1.539610907625     1.007825032230
         H            0.002638582772     1.304384235430    -1.061273092375     1.007825032230
         H            0.120163582772     1.987483235430     0.564705907625     1.007825032230
         H           -1.171921417228    -1.660920764570     1.200556907625     1.007825032230
         H           -0.524048417228    -2.082455764570    -0.378624092375     1.007825032230
         H           -2.341885417228     1.729255235430    -0.470259092375     1.007825032230
         H           -2.096669417228     1.053997235430     1.146877907625     1.007825032230
         H           -2.985006417228    -0.858575764570    -0.163519092375     1.007825032230
         H           -1.898678417228    -0.466359764570    -1.498215092375     1.007825032230
         H            1.374675582772    -0.719917764570    -1.327799092375     1.007825032230
         H            1.927306582772    -1.590093764570     0.096999907625     1.007825032230
         H            2.927459582772     0.452920235430     0.862650907625     1.007825032230
         H            2.440487582772     1.235969235430    -0.479159092375     1.007825032230

  Basis Set: AUG-CC-PVTZ
    Blend: AUG-CC-PVTZ
  Basis Set: (AUG-CC-PVTZ AUX)
    Blend: AUG-CC-PVTZ-JKFIT
	 Reference Energy          =    -289.3220828418961901 [Eh]
	 Singles Energy            =      -0.0000000000000000 [Eh]
	 Same-Spin Energy          =      -0.3127293054261781 [Eh]
	 Opposite-Spin Energy      =      -1.0975472639242354 [Eh]
	 Correlation Energy        =      -1.4102765693504136 [Eh]
	 Total Energy              =    -290.7323594112465912 [Eh]

	 ================> DF-SCS-MP2 Energies <==================
	-----------------------------------------------------------
	 SCS Same-Spin Scale       =       0.3333333333333333 [-]
	 SCS Opposite-Spin Scale   =       1.2000000000000000 [-]
	 SCS Same-Spin Energy      =      -0.1042431018087260 [Eh]
	 SCS Opposite-Spin Energy  =      -1.3170567167090825 [Eh]
	 SCS Correlation Energy    =      -1.4212998185178085 [Eh]
	 SCS Total Energy          =    -290.7433826604139995 [Eh]
	-----------------------------------------------------------

  Dipole Moment: [D]
     X:    -1.3441      Y:     0.4716      Z:     0.7783     Total:     1.6232

*** Psi4 exiting successfully. Buy a developer a beer!
