                               Psi4 1.4a3.dev225

  ==> Input File <==

--------------------------------------------------------------------------
#psi4
#
memory 32 gb

molecule  {
0 1
  N        2.7287650     0.3187530    -0.1253010
  C        0.3402000    -0.2166507     0.5122346
  C       -0.2538890     1.1369990    -0.0074850
  C       -0.8349900    -1.2410350     0.2435950
  C       -1.7711660     0.9754980     0.0985330
  C       -1.9852080    -0.4520530    -0.4054450
  C        1.6033210    -0.6099780    -0.2562360
  H        0.5371130    -0.1501040     1.5403310
  H        0.0159810     1.3028420    -1.0605530
  H        0.1335060     1.9859410     0.5654260
  H       -1.1585790    -1.6624630     1.2012770
  H       -0.5107060    -2.0839980    -0.3779040
  H       -2.3285430     1.7277130    -0.4695390
  H       -2.0833270     1.0524550     1.1475980
  H       -2.9716640    -0.8601180    -0.1627990
  H       -1.8853360    -0.4679020    -1.4974950
  H        1.3880180    -0.7214600    -1.3270790
  H        1.9406490    -1.5916360     0.0977200
  H        2.9408020     0.4513780     0.8633710
  H        2.4538300     1.2344270    -0.4784390
units angstrom
no_reorient  #important for SAPT in psi4, default
symmetry c1  #important for SAPT in psi4, default
}

set PROPERTIES_ORIGIN ["COM"]
properties('MP2/aug-cc-pvtz', properties = ['dipole'])
--------------------------------------------------------------------------

    Molecular point group: c1
  Charge       = 0
  Multiplicity = 1
  Basis Set: AUG-CC-PVTZ
    Blend: AUG-CC-PVTZ
  Basis Set: (AUG-CC-PVTZ AUX)
    Blend: AUG-CC-PVTZ-JKFIT

    Orbital Energies [Eh]
    ---------------------

    Doubly Occupied:

       1A    -15.536005     2A    -11.242382     3A    -11.218370
       4A    -11.217592     5A    -11.216675     6A    -11.216400
       7A    -11.215739     8A     -1.176772     9A     -1.113287
      10A     -0.982615    11A     -0.958365    12A     -0.863337
      13A     -0.781286    14A     -0.763219    15A     -0.666826
      16A     -0.646673    17A     -0.638713    18A     -0.583505
      19A     -0.571948    20A     -0.558582    21A     -0.519564
      22A     -0.488772    23A     -0.474939    24A     -0.468809
      25A     -0.465685    26A     -0.459701    27A     -0.440560
      28A     -0.380378

  @DF-RHF Final Energy:  -289.32013636163686

   => Energetics <=

    Nuclear Repulsion Energy =            324.4141161178825996
    One-Electron Energy =               -1033.7351063325329505
    Two-Electron Energy =                 420.0008538530134956
    Total Energy =                       -289.3201363616368553
  Basis Set: (AUG-CC-PVTZ AUX)
    Blend: AUG-CC-PVTZ-RI
    Molecular point group: c1

    Geometry (in Angstrom), charge = 0, multiplicity = 1:

       Center              X                  Y                   Z               Mass
    ------------   -----------------  -----------------  -----------------  -----------------
         N            2.710096887113     0.320814867177    -0.130447098003    14.003074004430
         C            0.321531887113    -0.214588832823     0.507088501997    12.000000000000
         C           -0.272557112887     1.139060867177    -0.012631098003    12.000000000000
         C           -0.853658112887    -1.238973132823     0.238448901997    12.000000000000
         C           -1.789834112887     0.977559867177     0.093386901997    12.000000000000
         C           -2.003876112887    -0.449991132823    -0.410591098003    12.000000000000
         C            1.584652887113    -0.607916132823    -0.261382098003    12.000000000000
         H            0.518444887113    -0.148042132823     1.535184901997     1.007825032230
         H           -0.002687112887     1.304903867177    -1.065699098003     1.007825032230
         H            0.114837887113     1.988002867177     0.560279901997     1.007825032230
         H           -1.177247112887    -1.660401132823     1.196130901997     1.007825032230
         H           -0.529374112887    -2.081936132823    -0.383050098003     1.007825032230
         H           -2.347211112887     1.729774867177    -0.474685098003     1.007825032230
         H           -2.101995112887     1.054516867177     1.142451901997     1.007825032230
         H           -2.990332112887    -0.858056132823    -0.167945098003     1.007825032230
         H           -1.904004112887    -0.465840132823    -1.502641098003     1.007825032230
         H            1.369349887113    -0.719398132823    -1.332225098003     1.007825032230
         H            1.921980887113    -1.589574132823     0.092573901997     1.007825032230
         H            2.922133887113     0.453439867177     0.858224901997     1.007825032230
         H            2.435161887113     1.236488867177    -0.483585098003     1.007825032230

  Basis Set: AUG-CC-PVTZ
    Blend: AUG-CC-PVTZ
  Basis Set: (AUG-CC-PVTZ AUX)
    Blend: AUG-CC-PVTZ-JKFIT
	 Reference Energy          =    -289.3201363616368553 [Eh]
	 Singles Energy            =      -0.0000000000000000 [Eh]
	 Same-Spin Energy          =      -0.3123420597045261 [Eh]
	 Opposite-Spin Energy      =      -1.0971897893017386 [Eh]
	 Correlation Energy        =      -1.4095318490062647 [Eh]
	 Total Energy              =    -290.7296682106431263 [Eh]

	 ================> DF-SCS-MP2 Energies <==================
	-----------------------------------------------------------
	 SCS Same-Spin Scale       =       0.3333333333333333 [-]
	 SCS Opposite-Spin Scale   =       1.2000000000000000 [-]
	 SCS Same-Spin Energy      =      -0.1041140199015087 [Eh]
	 SCS Opposite-Spin Energy  =      -1.3166277471620862 [Eh]
	 SCS Correlation Energy    =      -1.4207417670635949 [Eh]
	 SCS Total Energy          =    -290.7408781287004444 [Eh]
	-----------------------------------------------------------

  Dipole Moment: [D]
     X:    -1.2996      Y:     0.4661      Z:     0.7908     Total:     1.5911

*** Psi4 exiting successfully. Buy a developer a beer!
