                               Psi4 1.4a3.dev225

  ==> Input File <==

--------------------------------------------------------------------------
#psi4
#
memory 32 gb

molecule  {
0 1
  N        2.7287650     0.3187530    -0.1253010
  C        0.3130830    -0.2174900     0.4662370
  C       -0.2538890     1.1369990    -0.0074850
  C       -0.8349900    -1.2410350     0.2435950
  C       -1.7711660     0.9754980     0.0985330
  C       -1.9852080    -0.4520530    -0.4054450
  C        1.6033210    -0.6099780    -0.2562360
  H        0.5371130    -0.1501040     1.5403310
  H        0.0159810     1.3028420    -1.0605530
  H        0.1335060     1.9859410     0.5654260
  H       -1.1585790    -1.6624630     1.2012770
  H       -0.5107060    -2.0839980    -0.3779040
  H       -2.3285430     1.7277130    -0.4695390
  H       -2.0833270     1.0524550     1.1475980
  H       -2.9716640    -0.8601180    -0.1627990
  H       -1.8853360    -0.4679020    -1.4974950
  H        1.3880180    -0.7214600    -1.3270790
  H        1.9406490    -1.5916360     0.0977200
  H        2.9408020     0.4513780     0.8633710
  H        2.4673179     1.1895055    -0.4611146
units angstrom
no_reorient  #important for SAPT in psi4, default
symmetry c1  #important for SAPT in psi4, default
}

set PROPERTIES_ORIGIN ["COM"]
properties('MP2/aug-cc-pvtz', properties = ['dipole'])
--------------------------------------------------------------------------

    Molecular point group: c1
  Charge       = 0
  Multiplicity = 1
  Basis Set: AUG-CC-PVTZ
    Blend: AUG-CC-PVTZ
  Basis Set: (AUG-CC-PVTZ AUX)
    Blend: AUG-CC-PVTZ-JKFIT

    Orbital Energies [Eh]
    ---------------------

    Doubly Occupied:

       1A    -15.531199     2A    -11.242216     3A    -11.220039
       4A    -11.217183     5A    -11.216666     6A    -11.216213
       7A    -11.215672     8A     -1.183410     9A     -1.118840
      10A     -0.984245    11A     -0.961205    12A     -0.866964
      13A     -0.782547    14A     -0.755969    15A     -0.674273
      16A     -0.649698    17A     -0.642088    18A     -0.580691
      19A     -0.572875    20A     -0.560693    21A     -0.519805
      22A     -0.491324    23A     -0.478110    24A     -0.468915
      25A     -0.464157    26A     -0.454977    27A     -0.445022
      28A     -0.382694

  @DF-RHF Final Energy:  -289.32225723575431

   => Energetics <=

    Nuclear Repulsion Energy =            325.1689560744981691
    One-Electron Energy =               -1035.1870510528763134
    Two-Electron Energy =                 420.6958377426238371
    Total Energy =                       -289.3222572357543072
  Basis Set: (AUG-CC-PVTZ AUX)
    Blend: AUG-CC-PVTZ-RI
    Molecular point group: c1

    Geometry (in Angstrom), charge = 0, multiplicity = 1:

       Center              X                  Y                   Z               Mass
    ------------   -----------------  -----------------  -----------------  -----------------
         N            2.713243158117     0.321373312504    -0.125053703948    14.003074004430
         C            0.297561158117    -0.214869687496     0.466484296052    12.000000000000
         C           -0.269410841883     1.139619312504    -0.007237703948    12.000000000000
         C           -0.850511841883    -1.238414687496     0.243842296052    12.000000000000
         C           -1.786687841883     0.978118312504     0.098780296052    12.000000000000
         C           -2.000729841883    -0.449432687496    -0.405197703948    12.000000000000
         C            1.587799158117    -0.607357687496    -0.255988703948    12.000000000000
         H            0.521591158117    -0.147483687496     1.540578296052     1.007825032230
         H            0.000459158117     1.305462312504    -1.060305703948     1.007825032230
         H            0.117984158117     1.988561312504     0.565673296052     1.007825032230
         H           -1.174100841883    -1.659842687496     1.201524296052     1.007825032230
         H           -0.526227841883    -2.081377687496    -0.377656703948     1.007825032230
         H           -2.344064841883     1.730333312504    -0.469291703948     1.007825032230
         H           -2.098848841883     1.055075312504     1.147845296052     1.007825032230
         H           -2.987185841883    -0.857497687496    -0.162551703948     1.007825032230
         H           -1.900857841883    -0.465281687496    -1.497247703948     1.007825032230
         H            1.372496158117    -0.718839687496    -1.326831703948     1.007825032230
         H            1.925127158117    -1.589015687496     0.097967296052     1.007825032230
         H            2.925280158117     0.453998312504     0.863618296052     1.007825032230
         H            2.451796058117     1.192125812504    -0.460867303948     1.007825032230

  Basis Set: AUG-CC-PVTZ
    Blend: AUG-CC-PVTZ
  Basis Set: (AUG-CC-PVTZ AUX)
    Blend: AUG-CC-PVTZ-JKFIT
	 Reference Energy          =    -289.3222572357543072 [Eh]
	 Singles Energy            =      -0.0000000000000000 [Eh]
	 Same-Spin Energy          =      -0.3123447860070320 [Eh]
	 Opposite-Spin Energy      =      -1.0965103099198847 [Eh]
	 Correlation Energy        =      -1.4088550959269168 [Eh]
	 Total Energy              =    -290.7311123316812314 [Eh]

	 ================> DF-SCS-MP2 Energies <==================
	-----------------------------------------------------------
	 SCS Same-Spin Scale       =       0.3333333333333333 [-]
	 SCS Opposite-Spin Scale   =       1.2000000000000000 [-]
	 SCS Same-Spin Energy      =      -0.1041149286690107 [Eh]
	 SCS Opposite-Spin Energy  =      -1.3158123719038617 [Eh]
	 SCS Correlation Energy    =      -1.4199273005728723 [Eh]
	 SCS Total Energy          =    -290.7421845363271586 [Eh]
	-----------------------------------------------------------

  Dipole Moment: [D]
     X:    -1.3053      Y:     0.4665      Z:     0.7770     Total:     1.5891

*** Psi4 exiting successfully. Buy a developer a beer!
