                               Psi4 1.4a3.dev225

  ==> Input File <==

--------------------------------------------------------------------------
#psi4
#
memory 32 gb

molecule  {
0 1
  N        2.7287650     0.3187530    -0.1253010
  C        0.3130830    -0.2174900     0.4662370
  C       -0.2538890     1.1369990    -0.0074850
  C       -0.8349900    -1.2410350     0.2435950
  C       -1.7711660     0.9754980     0.0985330
  C       -1.9852080    -0.4520530    -0.4054450
  C        1.6033210    -0.6099780    -0.2562360
  H        0.5371130    -0.1501040     1.5403310
  H        0.0159810     1.3028420    -1.0605530
  H        0.1405818     2.0014469     0.5758902
  H       -1.1585790    -1.6624630     1.2012770
  H       -0.5107060    -2.0839980    -0.3779040
  H       -2.3285430     1.7277130    -0.4695390
  H       -2.0833270     1.0524550     1.1475980
  H       -2.9716640    -0.8601180    -0.1627990
  H       -1.8853360    -0.4679020    -1.4974950
  H        1.3880180    -0.7214600    -1.3270790
  H        1.9406490    -1.5916360     0.0977200
  H        2.9408020     0.4513780     0.8633710
  H        2.4538300     1.2344270    -0.4784390
units angstrom
no_reorient  #important for SAPT in psi4, default
symmetry c1  #important for SAPT in psi4, default
}

set PROPERTIES_ORIGIN ["COM"]
properties('MP2/aug-cc-pvtz', properties = ['dipole'])
--------------------------------------------------------------------------

    Molecular point group: c1
  Charge       = 0
  Multiplicity = 1
  Basis Set: AUG-CC-PVTZ
    Blend: AUG-CC-PVTZ
  Basis Set: (AUG-CC-PVTZ AUX)
    Blend: AUG-CC-PVTZ-JKFIT

    Orbital Energies [Eh]
    ---------------------

    Doubly Occupied:

       1A    -15.536941     2A    -11.242452     3A    -11.220252
       4A    -11.219316     5A    -11.217042     6A    -11.216399
       7A    -11.215818     8A     -1.177289     9A     -1.117729
      10A     -0.982908    11A     -0.960300    12A     -0.864581
      13A     -0.782245    14A     -0.755491    15A     -0.667460
      16A     -0.647425    17A     -0.641636    18A     -0.580684
      19A     -0.571819    20A     -0.558398    21A     -0.518221
      22A     -0.491139    23A     -0.477461    24A     -0.468694
      25A     -0.463822    26A     -0.454684    27A     -0.445001
      28A     -0.382110

  @DF-RHF Final Energy:  -289.32222767763562

   => Energetics <=

    Nuclear Repulsion Energy =            324.8379305271979547
    One-Electron Energy =               -1034.5656843342021602
    Two-Electron Energy =                 420.4055261293685817
    Total Energy =                       -289.3222276776356239
  Basis Set: (AUG-CC-PVTZ AUX)
    Blend: AUG-CC-PVTZ-RI
    Molecular point group: c1

    Geometry (in Angstrom), charge = 0, multiplicity = 1:

       Center              X                  Y                   Z               Mass
    ------------   -----------------  -----------------  -----------------  -----------------
         N            2.713308364595     0.320758809002    -0.124983940614    14.003074004430
         C            0.297626364595    -0.215484190998     0.466554059386    12.000000000000
         C           -0.269345635405     1.139004809002    -0.007167940614    12.000000000000
         C           -0.850446635405    -1.239029190998     0.243912059386    12.000000000000
         C           -1.786622635405     0.977503809002     0.098850059386    12.000000000000
         C           -2.000664635405    -0.450047190998    -0.405127940614    12.000000000000
         C            1.587864364595    -0.607972190998    -0.255918940614    12.000000000000
         H            0.521656364595    -0.148098190998     1.540648059386     1.007825032230
         H            0.000524364595     1.304847809002    -1.060235940614     1.007825032230
         H            0.125125164595     2.003452709002     0.576207259386     1.007825032230
         H           -1.174035635405    -1.660457190998     1.201594059386     1.007825032230
         H           -0.526162635405    -2.081992190998    -0.377586940614     1.007825032230
         H           -2.343999635405     1.729718809002    -0.469221940614     1.007825032230
         H           -2.098783635405     1.054460809002     1.147915059386     1.007825032230
         H           -2.987120635405    -0.858112190998    -0.162481940614     1.007825032230
         H           -1.900792635405    -0.465896190998    -1.497177940614     1.007825032230
         H            1.372561364595    -0.719454190998    -1.326761940614     1.007825032230
         H            1.925192364595    -1.589630190998     0.098037059386     1.007825032230
         H            2.925345364595     0.453383809002     0.863688059386     1.007825032230
         H            2.438373364595     1.236432809002    -0.478121940614     1.007825032230

  Basis Set: AUG-CC-PVTZ
    Blend: AUG-CC-PVTZ
  Basis Set: (AUG-CC-PVTZ AUX)
    Blend: AUG-CC-PVTZ-JKFIT
	 Reference Energy          =    -289.3222276776356239 [Eh]
	 Singles Energy            =      -0.0000000000000000 [Eh]
	 Same-Spin Energy          =      -0.3126050937526791 [Eh]
	 Opposite-Spin Energy      =      -1.0974498791046763 [Eh]
	 Correlation Energy        =      -1.4100549728573555 [Eh]
	 Total Energy              =    -290.7322826504930049 [Eh]

	 ================> DF-SCS-MP2 Energies <==================
	-----------------------------------------------------------
	 SCS Same-Spin Scale       =       0.3333333333333333 [-]
	 SCS Opposite-Spin Scale   =       1.2000000000000000 [-]
	 SCS Same-Spin Energy      =      -0.1042016979175597 [Eh]
	 SCS Opposite-Spin Energy  =      -1.3169398549256115 [Eh]
	 SCS Correlation Energy    =      -1.4211415528431712 [Eh]
	 SCS Total Energy          =    -290.7433692304787769 [Eh]
	-----------------------------------------------------------

  Dipole Moment: [D]
     X:    -1.3142      Y:     0.4562      Z:     0.7653     Total:     1.5877

*** Psi4 exiting successfully. Buy a developer a beer!
