                               Psi4 1.4a3.dev225

  ==> Input File <==

--------------------------------------------------------------------------
#psi4
#
memory 32 gb

molecule  {
0 1
  N        2.7287650     0.3187530    -0.1253010
  C        0.3130830    -0.2174900     0.4662370
  C       -0.2538890     1.1369990    -0.0074850
  C       -0.8349900    -1.2410350     0.2435950
  C       -1.7711660     0.9754980     0.0985330
  C       -1.9852080    -0.4520530    -0.4054450
  C        1.6033210    -0.6099780    -0.2562360
  H        0.5371130    -0.1501040     1.5403310
  H        0.0159810     1.3028420    -1.0605530
  H        0.1335060     1.9859410     0.5654260
  H       -1.1585790    -1.6624630     1.2012770
  H       -0.5166216    -2.0686205    -0.3665665
  H       -2.3285430     1.7277130    -0.4695390
  H       -2.0833270     1.0524550     1.1475980
  H       -2.9716640    -0.8601180    -0.1627990
  H       -1.8853360    -0.4679020    -1.4974950
  H        1.3880180    -0.7214600    -1.3270790
  H        1.9406490    -1.5916360     0.0977200
  H        2.9408020     0.4513780     0.8633710
  H        2.4538300     1.2344270    -0.4784390
units angstrom
no_reorient  #important for SAPT in psi4, default
symmetry c1  #important for SAPT in psi4, default
}

set PROPERTIES_ORIGIN ["COM"]
properties('MP2/aug-cc-pvtz', properties = ['dipole'])
--------------------------------------------------------------------------

    Molecular point group: c1
  Charge       = 0
  Multiplicity = 1
  Basis Set: AUG-CC-PVTZ
    Blend: AUG-CC-PVTZ
  Basis Set: (AUG-CC-PVTZ AUX)
    Blend: AUG-CC-PVTZ-JKFIT

    Orbital Energies [Eh]
    ---------------------

    Doubly Occupied:

       1A    -15.537003     2A    -11.242392     3A    -11.219755
       4A    -11.216969     5A    -11.216426     6A    -11.215842
       7A    -11.213296     8A     -1.177316     9A     -1.117782
      10A     -0.982767    11A     -0.961916    12A     -0.865012
      13A     -0.782568    14A     -0.757061    15A     -0.668367
      16A     -0.647968    17A     -0.642331    18A     -0.580634
      19A     -0.572673    20A     -0.559002    21A     -0.518094
      22A     -0.491575    23A     -0.478274    24A     -0.468683
      25A     -0.464585    26A     -0.454946    27A     -0.444789
      28A     -0.382095

  @DF-RHF Final Energy:  -289.32284864646726

   => Energetics <=

    Nuclear Repulsion Energy =            325.0293628858435682
    One-Electron Energy =               -1034.9441792845580039
    Two-Electron Energy =                 420.5919677522472284
    Total Energy =                       -289.3228486464672642
  Basis Set: (AUG-CC-PVTZ AUX)
    Blend: AUG-CC-PVTZ-RI
    Molecular point group: c1

    Geometry (in Angstrom), charge = 0, multiplicity = 1:

       Center              X                  Y                   Z               Mass
    ------------   -----------------  -----------------  -----------------  -----------------
         N            2.713440477855     0.320760114738    -0.124992821451    14.003074004430
         C            0.297758477855    -0.215482885262     0.466545178549    12.000000000000
         C           -0.269213522145     1.139006114738    -0.007176821451    12.000000000000
         C           -0.850314522145    -1.239027885262     0.243903178549    12.000000000000
         C           -1.786490522145     0.977505114738     0.098841178549    12.000000000000
         C           -2.000532522145    -0.450045885262    -0.405136821451    12.000000000000
         C            1.587996477855    -0.607970885262    -0.255927821451    12.000000000000
         H            0.521788477855    -0.148096885262     1.540639178549     1.007825032230
         H            0.000656477855     1.304849114738    -1.060244821451     1.007825032230
         H            0.118181477855     1.987948114738     0.565734178549     1.007825032230
         H           -1.173903522145    -1.660455885262     1.201585178549     1.007825032230
         H           -0.531946122145    -2.066613385262    -0.366258321451     1.007825032230
         H           -2.343867522145     1.729720114738    -0.469230821451     1.007825032230
         H           -2.098651522145     1.054462114738     1.147906178549     1.007825032230
         H           -2.986988522145    -0.858110885262    -0.162490821451     1.007825032230
         H           -1.900660522145    -0.465894885262    -1.497186821451     1.007825032230
         H            1.372693477855    -0.719452885262    -1.326770821451     1.007825032230
         H            1.925324477855    -1.589628885262     0.098028178549     1.007825032230
         H            2.925477477855     0.453385114738     0.863679178549     1.007825032230
         H            2.438505477855     1.236434114738    -0.478130821451     1.007825032230

  Basis Set: AUG-CC-PVTZ
    Blend: AUG-CC-PVTZ
  Basis Set: (AUG-CC-PVTZ AUX)
    Blend: AUG-CC-PVTZ-JKFIT
	 Reference Energy          =    -289.3228486464672642 [Eh]
	 Singles Energy            =      -0.0000000000000000 [Eh]
	 Same-Spin Energy          =      -0.3125879551570783 [Eh]
	 Opposite-Spin Energy      =      -1.0971751207260407 [Eh]
	 Correlation Energy        =      -1.4097630758831190 [Eh]
	 Total Energy              =    -290.7326117223503843 [Eh]

	 ================> DF-SCS-MP2 Energies <==================
	-----------------------------------------------------------
	 SCS Same-Spin Scale       =       0.3333333333333333 [-]
	 SCS Opposite-Spin Scale   =       1.2000000000000000 [-]
	 SCS Same-Spin Energy      =      -0.1041959850523594 [Eh]
	 SCS Opposite-Spin Energy  =      -1.3166101448712488 [Eh]
	 SCS Correlation Energy    =      -1.4208061299236083 [Eh]
	 SCS Total Energy          =    -290.7436547763908834 [Eh]
	-----------------------------------------------------------

  Dipole Moment: [D]
     X:    -1.3034      Y:     0.4555      Z:     0.7648     Total:     1.5784

*** Psi4 exiting successfully. Buy a developer a beer!
