                               Psi4 1.4a3.dev225

  ==> Input File <==

--------------------------------------------------------------------------
#psi4
#
memory 32 gb

molecule  {
0 1
  N        2.7287650     0.3187530    -0.1253010
  C        0.3130830    -0.2174900     0.4662370
  C       -0.2538890     1.1369990    -0.0074850
  C       -0.8349900    -1.2410350     0.2435950
  C       -1.7711660     0.9754980     0.0985330
  C       -1.9852080    -0.4520530    -0.4054450
  C        1.6033210    -0.6099780    -0.2562360
  H        0.5371130    -0.1501040     1.5403310
  H        0.0159810     1.3028420    -1.0605530
  H        0.1335060     1.9859410     0.5654260
  H       -1.1585790    -1.6624630     1.2012770
  H       -0.5107060    -2.0839980    -0.3779040
  H       -2.3285430     1.7277130    -0.4695390
  H       -2.0833270     1.0524550     1.1475980
  H       -2.9716640    -0.8601180    -0.1627990
  H       -1.8853360    -0.4679020    -1.4974950
  H        1.3880180    -0.7214600    -1.3270790
  H        1.9406490    -1.5916360     0.0977200
  H        2.9408020     0.4513780     0.8633710
  H        2.4538300     1.2344270    -0.4784390
units angstrom
no_reorient  #important for SAPT in psi4, default
symmetry c1  #important for SAPT in psi4, default
}

set PROPERTIES_ORIGIN ["COM"]
properties('MP2/aug-cc-pvtz', properties = ['dipole'])
--------------------------------------------------------------------------

    Molecular point group: c1
  Charge       = 0
  Multiplicity = 1
  Basis Set: AUG-CC-PVTZ
    Blend: AUG-CC-PVTZ
  Basis Set: (AUG-CC-PVTZ AUX)
    Blend: AUG-CC-PVTZ-JKFIT

    Orbital Energies [Eh]
    ---------------------

    Doubly Occupied:

       1A    -15.536999     2A    -11.242383     3A    -11.219982
       4A    -11.217128     5A    -11.216615     6A    -11.216169
       7A    -11.215632     8A     -1.177317     9A     -1.117732
      10A     -0.982764    11A     -0.961138    12A     -0.864783
      13A     -0.782512    14A     -0.755851    15A     -0.668418
      16A     -0.648059    17A     -0.641509    18A     -0.580651
      19A     -0.572315    20A     -0.558403    21A     -0.518129
      22A     -0.491264    23A     -0.478043    24A     -0.468704
      25A     -0.464114    26A     -0.454912    27A     -0.444795
      28A     -0.382131

  @DF-RHF Final Energy:  -289.32277495776765

   => Energetics <=

    Nuclear Repulsion Energy =            324.9345197417605959
    One-Electron Energy =               -1034.7576809466456780
    Two-Electron Energy =                 420.5003862471174330
    Total Energy =                       -289.3227749577676491
  Basis Set: (AUG-CC-PVTZ AUX)
    Blend: AUG-CC-PVTZ-RI
    Molecular point group: c1

    Geometry (in Angstrom), charge = 0, multiplicity = 1:

       Center              X                  Y                   Z               Mass
    ------------   -----------------  -----------------  -----------------  -----------------
         N            2.713380320427     0.320916492931    -0.124877527173    14.003074004430
         C            0.297698320427    -0.215326507069     0.466660472827    12.000000000000
         C           -0.269273679573     1.139162492931    -0.007061527173    12.000000000000
         C           -0.850374679573    -1.238871507069     0.244018472827    12.000000000000
         C           -1.786550679573     0.977661492931     0.098956472827    12.000000000000
         C           -2.000592679573    -0.449889507069    -0.405021527173    12.000000000000
         C            1.587936320427    -0.607814507069    -0.255812527173    12.000000000000
         H            0.521728320427    -0.147940507069     1.540754472827     1.007825032230
         H            0.000596320427     1.305005492931    -1.060129527173     1.007825032230
         H            0.118121320427     1.988104492931     0.565849472827     1.007825032230
         H           -1.173963679573    -1.660299507069     1.201700472827     1.007825032230
         H           -0.526090679573    -2.081834507069    -0.377480527173     1.007825032230
         H           -2.343927679573     1.729876492931    -0.469115527173     1.007825032230
         H           -2.098711679573     1.054618492931     1.148021472827     1.007825032230
         H           -2.987048679573    -0.857954507069    -0.162375527173     1.007825032230
         H           -1.900720679573    -0.465738507069    -1.497071527173     1.007825032230
         H            1.372633320427    -0.719296507069    -1.326655527173     1.007825032230
         H            1.925264320427    -1.589472507069     0.098143472827     1.007825032230
         H            2.925417320427     0.453541492931     0.863794472827     1.007825032230
         H            2.438445320427     1.236590492931    -0.478015527173     1.007825032230

  Basis Set: AUG-CC-PVTZ
    Blend: AUG-CC-PVTZ
  Basis Set: (AUG-CC-PVTZ AUX)
    Blend: AUG-CC-PVTZ-JKFIT
	 Reference Energy          =    -289.3227749577676491 [Eh]
	 Singles Energy            =      -0.0000000000000000 [Eh]
	 Same-Spin Energy          =      -0.3126006916731298 [Eh]
	 Opposite-Spin Energy      =      -1.0973163930411745 [Eh]
	 Correlation Energy        =      -1.4099170847143041 [Eh]
	 Total Energy              =    -290.7326920424819718 [Eh]

	 ================> DF-SCS-MP2 Energies <==================
	-----------------------------------------------------------
	 SCS Same-Spin Scale       =       0.3333333333333333 [-]
	 SCS Opposite-Spin Scale   =       1.2000000000000000 [-]
	 SCS Same-Spin Energy      =      -0.1042002305577099 [Eh]
	 SCS Opposite-Spin Energy  =      -1.3167796716494093 [Eh]
	 SCS Correlation Energy    =      -1.4209799022071192 [Eh]
	 SCS Total Energy          =    -290.7437548599747856 [Eh]
	-----------------------------------------------------------

  Dipole Moment: [D]
     X:    -1.3066      Y:     0.4694      Z:     0.7692     Total:     1.5872

*** Psi4 exiting successfully. Buy a developer a beer!
