                               Psi4 1.4a3.dev225

  ==> Input File <==

--------------------------------------------------------------------------
#psi4
#
memory 32 gb

molecule  {
0 1
  N        2.7287650     0.3187530    -0.1253010
  C        0.2792105    -0.1874292     0.4960975
  C       -0.2538890     1.1369990    -0.0074850
  C       -0.8349900    -1.2410350     0.2435950
  C       -1.7711660     0.9754980     0.0985330
  C       -1.9852080    -0.4520530    -0.4054450
  C        1.6033210    -0.6099780    -0.2562360
  H        0.5371130    -0.1501040     1.5403310
  H        0.0159810     1.3028420    -1.0605530
  H        0.1335060     1.9859410     0.5654260
  H       -1.1585790    -1.6624630     1.2012770
  H       -0.5107060    -2.0839980    -0.3779040
  H       -2.3285430     1.7277130    -0.4695390
  H       -2.0833270     1.0524550     1.1475980
  H       -2.9716640    -0.8601180    -0.1627990
  H       -1.8853360    -0.4679020    -1.4974950
  H        1.3880180    -0.7214600    -1.3270790
  H        1.9406490    -1.5916360     0.0977200
  H        2.9408020     0.4513780     0.8633710
  H        2.4538300     1.2344270    -0.4784390
units angstrom
no_reorient  #important for SAPT in psi4, default
symmetry c1  #important for SAPT in psi4, default
}

set PROPERTIES_ORIGIN ["COM"]
properties('MP2/aug-cc-pvtz', properties = ['dipole'])
--------------------------------------------------------------------------

    Molecular point group: c1
  Charge       = 0
  Multiplicity = 1
  Basis Set: AUG-CC-PVTZ
    Blend: AUG-CC-PVTZ
  Basis Set: (AUG-CC-PVTZ AUX)
    Blend: AUG-CC-PVTZ-JKFIT

    Orbital Energies [Eh]
    ---------------------

    Doubly Occupied:

       1A    -15.536448     2A    -11.243919     3A    -11.218571
       4A    -11.216631     5A    -11.215768     6A    -11.215541
       7A    -11.214986     8A     -1.175113     9A     -1.120291
      10A     -0.978063    11A     -0.962846    12A     -0.862097
      13A     -0.783006    14A     -0.758446    15A     -0.667749
      16A     -0.648821    17A     -0.640964    18A     -0.579263
      19A     -0.572488    20A     -0.556890    21A     -0.514850
      22A     -0.488525    23A     -0.478894    24A     -0.469170
      25A     -0.466058    26A     -0.456233    27A     -0.452599
      28A     -0.374697

  @DF-RHF Final Energy:  -289.31996416712548

   => Energetics <=

    Nuclear Repulsion Energy =            324.8761524368451887
    One-Electron Energy =               -1034.6543735546729295
    Two-Electron Energy =                 420.4582569507023209
    Total Energy =                       -289.3199641671254767
  Basis Set: (AUG-CC-PVTZ AUX)
    Blend: AUG-CC-PVTZ-RI
    Molecular point group: c1

    Geometry (in Angstrom), charge = 0, multiplicity = 1:

       Center              X                  Y                   Z               Mass
    ------------   -----------------  -----------------  -----------------  -----------------
         N            2.717481736326     0.317276612702    -0.128493154288    14.003074004430
         C            0.267927236326    -0.188905587298     0.492905345712    12.000000000000
         C           -0.265172263674     1.135522612702    -0.010677154288    12.000000000000
         C           -0.846273263674    -1.242511387298     0.240402845712    12.000000000000
         C           -1.782449263674     0.974021612702     0.095340845712    12.000000000000
         C           -1.996491263674    -0.453529387298    -0.408637154288    12.000000000000
         C            1.592037736326    -0.611454387298    -0.259428154288    12.000000000000
         H            0.525829736326    -0.151580387298     1.537138845712     1.007825032230
         H            0.004697736326     1.301365612702    -1.063745154288     1.007825032230
         H            0.122222736326     1.984464612702     0.562233845712     1.007825032230
         H           -1.169862263674    -1.663939387298     1.198084845712     1.007825032230
         H           -0.521989263674    -2.085474387298    -0.381096154288     1.007825032230
         H           -2.339826263674     1.726236612702    -0.472731154288     1.007825032230
         H           -2.094610263674     1.050978612702     1.144405845712     1.007825032230
         H           -2.982947263674    -0.861594387298    -0.165991154288     1.007825032230
         H           -1.896619263674    -0.469378387298    -1.500687154288     1.007825032230
         H            1.376734736326    -0.722936387298    -1.330271154288     1.007825032230
         H            1.929365736326    -1.593112387298     0.094527845712     1.007825032230
         H            2.929518736326     0.449901612702     0.860178845712     1.007825032230
         H            2.442546736326     1.232950612702    -0.481631154288     1.007825032230

  Basis Set: AUG-CC-PVTZ
    Blend: AUG-CC-PVTZ
  Basis Set: (AUG-CC-PVTZ AUX)
    Blend: AUG-CC-PVTZ-JKFIT
	 Reference Energy          =    -289.3199641671254767 [Eh]
	 Singles Energy            =      -0.0000000000000000 [Eh]
	 Same-Spin Energy          =      -0.3126651854360714 [Eh]
	 Opposite-Spin Energy      =      -1.0974676589653030 [Eh]
	 Correlation Energy        =      -1.4101328444013743 [Eh]
	 Total Energy              =    -290.7300970115268228 [Eh]

	 ================> DF-SCS-MP2 Energies <==================
	-----------------------------------------------------------
	 SCS Same-Spin Scale       =       0.3333333333333333 [-]
	 SCS Opposite-Spin Scale   =       1.2000000000000000 [-]
	 SCS Same-Spin Energy      =      -0.1042217284786904 [Eh]
	 SCS Opposite-Spin Energy  =      -1.3169611907583636 [Eh]
	 SCS Correlation Energy    =      -1.4211829192370540 [Eh]
	 SCS Total Energy          =    -290.7411470863625027 [Eh]
	-----------------------------------------------------------

  Dipole Moment: [D]
     X:    -1.2796      Y:     0.4798      Z:     0.7822     Total:     1.5746

*** Psi4 exiting successfully. Buy a developer a beer!
