                               Psi4 1.4a3.dev225

  ==> Input File <==

--------------------------------------------------------------------------
#psi4
#
memory 32 gb

molecule  {
0 1
  N        2.7287650     0.3187530    -0.1253010
  C        0.3130830    -0.2174900     0.4662370
  C       -0.2538890     1.1369990    -0.0074850
  C       -0.8349900    -1.2410350     0.2435950
  C       -1.7711660     0.9754980     0.0985330
  C       -1.9852080    -0.4520530    -0.4054450
  C        1.6033210    -0.6099780    -0.2562360
  H        0.5371130    -0.1501040     1.5403310
  H        0.0159810     1.3028420    -1.0605530
  H        0.1335060     1.9859410     0.5654260
  H       -1.1627385    -1.6448507     1.2074311
  H       -0.5107060    -2.0839980    -0.3779040
  H       -2.3285430     1.7277130    -0.4695390
  H       -2.0833270     1.0524550     1.1475980
  H       -2.9716640    -0.8601180    -0.1627990
  H       -1.8853360    -0.4679020    -1.4974950
  H        1.3880180    -0.7214600    -1.3270790
  H        1.9406490    -1.5916360     0.0977200
  H        2.9408020     0.4513780     0.8633710
  H        2.4538300     1.2344270    -0.4784390
units angstrom
no_reorient  #important for SAPT in psi4, default
symmetry c1  #important for SAPT in psi4, default
}

set PROPERTIES_ORIGIN ["COM"]
properties('MP2/aug-cc-pvtz', properties = ['dipole'])
--------------------------------------------------------------------------

    Molecular point group: c1
  Charge       = 0
  Multiplicity = 1
  Basis Set: AUG-CC-PVTZ
    Blend: AUG-CC-PVTZ
  Basis Set: (AUG-CC-PVTZ AUX)
    Blend: AUG-CC-PVTZ-JKFIT

    Orbital Energies [Eh]
    ---------------------

    Doubly Occupied:

       1A    -15.536989     2A    -11.242370     3A    -11.219878
       4A    -11.217104     5A    -11.216578     6A    -11.216145
       7A    -11.215626     8A     -1.177312     9A     -1.117805
      10A     -0.982750    11A     -0.961138    12A     -0.864791
      13A     -0.782493    14A     -0.755517    15A     -0.668353
      16A     -0.648129    17A     -0.641567    18A     -0.580769
      19A     -0.572689    20A     -0.558572    21A     -0.518150
      22A     -0.491562    23A     -0.477370    24A     -0.468616
      25A     -0.464288    26A     -0.454978    27A     -0.444730
      28A     -0.382082

  @DF-RHF Final Energy:  -289.32273270354398

   => Energetics <=

    Nuclear Repulsion Energy =            324.9547591130408932
    One-Electron Energy =               -1034.7982798383475256
    Two-Electron Energy =                 420.5207880217627121
    Total Energy =                       -289.3227327035439771
  Basis Set: (AUG-CC-PVTZ AUX)
    Blend: AUG-CC-PVTZ-RI
    Molecular point group: c1

    Geometry (in Angstrom), charge = 0, multiplicity = 1:

       Center              X                  Y                   Z               Mass
    ------------   -----------------  -----------------  -----------------  -----------------
         N            2.713422619572     0.320737388418    -0.124940109975    14.003074004430
         C            0.297740619572    -0.215505611582     0.466597890025    12.000000000000
         C           -0.269231380428     1.138983388418    -0.007124109975    12.000000000000
         C           -0.850332380428    -1.239050611582     0.243955890025    12.000000000000
         C           -1.786508380428     0.977482388418     0.098893890025    12.000000000000
         C           -2.000550380428    -0.450068611582    -0.405084109975    12.000000000000
         C            1.587978619572    -0.607993611582    -0.255875109975    12.000000000000
         H            0.521770619572    -0.148119611582     1.540691890025     1.007825032230
         H            0.000638619572     1.304826388418    -1.060192109975     1.007825032230
         H            0.118163619572     1.987925388418     0.565786890025     1.007825032230
         H           -1.178080880428    -1.642866311582     1.207791990025     1.007825032230
         H           -0.526048380428    -2.082013611582    -0.377543109975     1.007825032230
         H           -2.343885380428     1.729697388418    -0.469178109975     1.007825032230
         H           -2.098669380428     1.054439388418     1.147958890025     1.007825032230
         H           -2.987006380428    -0.858133611582    -0.162438109975     1.007825032230
         H           -1.900678380428    -0.465917611582    -1.497134109975     1.007825032230
         H            1.372675619572    -0.719475611582    -1.326718109975     1.007825032230
         H            1.925306619572    -1.589651611582     0.098080890025     1.007825032230
         H            2.925459619572     0.453362388418     0.863731890025     1.007825032230
         H            2.438487619572     1.236411388418    -0.478078109975     1.007825032230

  Basis Set: AUG-CC-PVTZ
    Blend: AUG-CC-PVTZ
  Basis Set: (AUG-CC-PVTZ AUX)
    Blend: AUG-CC-PVTZ-JKFIT
	 Reference Energy          =    -289.3227327035439771 [Eh]
	 Singles Energy            =      -0.0000000000000000 [Eh]
	 Same-Spin Energy          =      -0.3126111903281770 [Eh]
	 Opposite-Spin Energy      =      -1.0973456550007001 [Eh]
	 Correlation Energy        =      -1.4099568453288771 [Eh]
	 Total Energy              =    -290.7326895488728269 [Eh]

	 ================> DF-SCS-MP2 Energies <==================
	-----------------------------------------------------------
	 SCS Same-Spin Scale       =       0.3333333333333333 [-]
	 SCS Opposite-Spin Scale   =       1.2000000000000000 [-]
	 SCS Same-Spin Energy      =      -0.1042037301093923 [Eh]
	 SCS Opposite-Spin Energy  =      -1.3168147860008401 [Eh]
	 SCS Correlation Energy    =      -1.4210185161102324 [Eh]
	 SCS Total Energy          =    -290.7437512196542002 [Eh]
	-----------------------------------------------------------

  Dipole Moment: [D]
     X:    -1.3071      Y:     0.4732      Z:     0.7689     Total:     1.5886

*** Psi4 exiting successfully. Buy a developer a beer!
