                               Psi4 1.4a3.dev225

  ==> Input File <==

--------------------------------------------------------------------------
#psi4
#
memory 32 gb

molecule  {
0 1
  N        2.7287650     0.3187530    -0.1253010
  C        0.3130830    -0.2174900     0.4662370
  C       -0.2538890     1.1369990    -0.0074850
  C       -0.8349900    -1.2410350     0.2435950
  C       -1.7711660     0.9754980     0.0985330
  C       -1.9852080    -0.4520530    -0.4054450
  C        1.6033210    -0.6099780    -0.2562360
  H        0.5371130    -0.1501040     1.5403310
  H        0.0159810     1.3028420    -1.0605530
  H        0.1335060     1.9859410     0.5654260
  H       -1.1315984    -1.7652563     1.1582981
  H       -0.5107060    -2.0839980    -0.3779040
  H       -2.3285430     1.7277130    -0.4695390
  H       -2.0833270     1.0524550     1.1475980
  H       -2.9716640    -0.8601180    -0.1627990
  H       -1.8853360    -0.4679020    -1.4974950
  H        1.3880180    -0.7214600    -1.3270790
  H        1.9406490    -1.5916360     0.0977200
  H        2.9408020     0.4513780     0.8633710
  H        2.4538300     1.2344270    -0.4784390
units angstrom
no_reorient  #important for SAPT in psi4, default
symmetry c1  #important for SAPT in psi4, default
}

set PROPERTIES_ORIGIN ["COM"]
properties('MP2/aug-cc-pvtz', properties = ['dipole'])
--------------------------------------------------------------------------

    Molecular point group: c1
  Charge       = 0
  Multiplicity = 1
  Basis Set: AUG-CC-PVTZ
    Blend: AUG-CC-PVTZ
  Basis Set: (AUG-CC-PVTZ AUX)
    Blend: AUG-CC-PVTZ-JKFIT

    Orbital Energies [Eh]
    ---------------------

    Doubly Occupied:

       1A    -15.537052     2A    -11.242445     3A    -11.220658
       4A    -11.217339     5A    -11.216985     6A    -11.216425
       7A    -11.215481     8A     -1.177347     9A     -1.117387
      10A     -0.982874    11A     -0.961259    12A     -0.864794
      13A     -0.782740    14A     -0.757987    15A     -0.668834
      16A     -0.648143    17A     -0.640985    18A     -0.580113
      19A     -0.570096    20A     -0.557093    21A     -0.518009
      22A     -0.489864    23A     -0.482064    24A     -0.469129
      25A     -0.463155    26A     -0.454592    27A     -0.443915
      28A     -0.382339

  @DF-RHF Final Energy:  -289.32148264527507

   => Energetics <=

    Nuclear Repulsion Energy =            324.8252412313988771
    One-Electron Energy =               -1034.5352359147161678
    Two-Electron Energy =                 420.3885120380422222
    Total Energy =                       -289.3214826452750685
  Basis Set: (AUG-CC-PVTZ AUX)
    Blend: AUG-CC-PVTZ-RI
    Molecular point group: c1

    Geometry (in Angstrom), charge = 0, multiplicity = 1:

       Center              X                  Y                   Z               Mass
    ------------   -----------------  -----------------  -----------------  -----------------
         N            2.713105946994     0.321961827380    -0.124440462454    14.003074004430
         C            0.297423946994    -0.214281172620     0.467097537546    12.000000000000
         C           -0.269548053006     1.140207827380    -0.006624462454    12.000000000000
         C           -0.850649053006    -1.237826172620     0.244455537546    12.000000000000
         C           -1.786825053006     0.978706827380     0.099393537546    12.000000000000
         C           -2.000867053006    -0.448844172620    -0.404584462454    12.000000000000
         C            1.587661946994    -0.606769172620    -0.255375462454    12.000000000000
         H            0.521453946994    -0.146895172620     1.541191537546     1.007825032230
         H            0.000321946994     1.306050827380    -1.059692462454     1.007825032230
         H            0.117846946994     1.989149827380     0.566286537546     1.007825032230
         H           -1.147257453006    -1.762047472620     1.159158637546     1.007825032230
         H           -0.526365053006    -2.080789172620    -0.377043462454     1.007825032230
         H           -2.344202053006     1.730921827380    -0.468678462454     1.007825032230
         H           -2.098986053006     1.055663827380     1.148458537546     1.007825032230
         H           -2.987323053006    -0.856909172620    -0.161938462454     1.007825032230
         H           -1.900995053006    -0.464693172620    -1.496634462454     1.007825032230
         H            1.372358946994    -0.718251172620    -1.326218462454     1.007825032230
         H            1.924989946994    -1.588427172620     0.098580537546     1.007825032230
         H            2.925142946994     0.454586827380     0.864231537546     1.007825032230
         H            2.438170946994     1.237635827380    -0.477578462454     1.007825032230

  Basis Set: AUG-CC-PVTZ
    Blend: AUG-CC-PVTZ
  Basis Set: (AUG-CC-PVTZ AUX)
    Blend: AUG-CC-PVTZ-JKFIT
	 Reference Energy          =    -289.3214826452750685 [Eh]
	 Singles Energy            =      -0.0000000000000000 [Eh]
	 Same-Spin Energy          =      -0.3126152477349244 [Eh]
	 Opposite-Spin Energy      =      -1.0972474901931064 [Eh]
	 Correlation Energy        =      -1.4098627379280309 [Eh]
	 Total Energy              =    -290.7313453832031200 [Eh]

	 ================> DF-SCS-MP2 Energies <==================
	-----------------------------------------------------------
	 SCS Same-Spin Scale       =       0.3333333333333333 [-]
	 SCS Opposite-Spin Scale   =       1.2000000000000000 [-]
	 SCS Same-Spin Energy      =      -0.1042050825783081 [Eh]
	 SCS Opposite-Spin Energy  =      -1.3166969882317276 [Eh]
	 SCS Correlation Energy    =      -1.4209020708100357 [Eh]
	 SCS Total Energy          =    -290.7423847160850983 [Eh]
	-----------------------------------------------------------

  Dipole Moment: [D]
     X:    -1.3021      Y:     0.4467      Z:     0.7663     Total:     1.5755

*** Psi4 exiting successfully. Buy a developer a beer!
