                               Psi4 1.4a3.dev225

  ==> Input File <==

--------------------------------------------------------------------------
#psi4
#
memory 32 gb

molecule  {
0 1
  N        2.7287650     0.3187530    -0.1253010
  C        0.3130830    -0.2174900     0.4662370
  C       -0.2538890     1.1369990    -0.0074850
  C       -0.8349900    -1.2410350     0.2435950
  C       -1.8207656     0.9702186     0.1019987
  C       -1.9852080    -0.4520530    -0.4054450
  C        1.6033210    -0.6099780    -0.2562360
  H        0.5371130    -0.1501040     1.5403310
  H        0.0159810     1.3028420    -1.0605530
  H        0.1335060     1.9859410     0.5654260
  H       -1.1585790    -1.6624630     1.2012770
  H       -0.5107060    -2.0839980    -0.3779040
  H       -2.3285430     1.7277130    -0.4695390
  H       -2.0833270     1.0524550     1.1475980
  H       -2.9716640    -0.8601180    -0.1627990
  H       -1.8853360    -0.4679020    -1.4974950
  H        1.3880180    -0.7214600    -1.3270790
  H        1.9406490    -1.5916360     0.0977200
  H        2.9408020     0.4513780     0.8633710
  H        2.4538300     1.2344270    -0.4784390
units angstrom
no_reorient  #important for SAPT in psi4, default
symmetry c1  #important for SAPT in psi4, default
}

set PROPERTIES_ORIGIN ["COM"]
properties('MP2/aug-cc-pvtz', properties = ['dipole'])
--------------------------------------------------------------------------

    Molecular point group: c1
  Charge       = 0
  Multiplicity = 1
  Basis Set: AUG-CC-PVTZ
    Blend: AUG-CC-PVTZ
  Basis Set: (AUG-CC-PVTZ AUX)
    Blend: AUG-CC-PVTZ-JKFIT

    Orbital Energies [Eh]
    ---------------------

    Doubly Occupied:

       1A    -15.536778     2A    -11.242268     3A    -11.219813
       4A    -11.218428     5A    -11.216510     6A    -11.216026
       7A    -11.215557     8A     -1.176852     9A     -1.114355
      10A     -0.984199    11A     -0.956465    12A     -0.865996
      13A     -0.785276    14A     -0.754598    15A     -0.667518
      16A     -0.647105    17A     -0.641306    18A     -0.582631
      19A     -0.571179    20A     -0.558652    21A     -0.519105
      22A     -0.491717    23A     -0.478613    24A     -0.471127
      25A     -0.463365    26A     -0.450661    27A     -0.442987
      28A     -0.381903

  @DF-RHF Final Energy:  -289.32094103466079

   => Energetics <=

    Nuclear Repulsion Energy =            324.3491610228007289
    One-Electron Energy =               -1033.5982248586751666
    Two-Electron Energy =                 419.9281228012137035
    Total Energy =                       -289.3209410346607910
  Basis Set: (AUG-CC-PVTZ AUX)
    Blend: AUG-CC-PVTZ-RI
    Molecular point group: c1

    Geometry (in Angstrom), charge = 0, multiplicity = 1:

       Center              X                  Y                   Z               Mass
    ------------   -----------------  -----------------  -----------------  -----------------
         N            2.719386035624     0.321555743506    -0.125297167798    14.003074004430
         C            0.303704035624    -0.214687256494     0.466240832202    12.000000000000
         C           -0.263267964376     1.139801743506    -0.007481167798    12.000000000000
         C           -0.844368964376    -1.238232256494     0.243598832202    12.000000000000
         C           -1.830144564376     0.973021343506     0.102002532202    12.000000000000
         C           -1.994586964376    -0.449250256494    -0.405441167798    12.000000000000
         C            1.593942035624    -0.607175256494    -0.256232167798    12.000000000000
         H            0.527734035624    -0.147301256494     1.540334832202     1.007825032230
         H            0.006602035624     1.305644743506    -1.060549167798     1.007825032230
         H            0.124127035624     1.988743743506     0.565429832202     1.007825032230
         H           -1.167957964376    -1.659660256494     1.201280832202     1.007825032230
         H           -0.520084964376    -2.081195256494    -0.377900167798     1.007825032230
         H           -2.337921964376     1.730515743506    -0.469535167798     1.007825032230
         H           -2.092705964376     1.055257743506     1.147601832202     1.007825032230
         H           -2.981042964376    -0.857315256494    -0.162795167798     1.007825032230
         H           -1.894714964376    -0.465099256494    -1.497491167798     1.007825032230
         H            1.378639035624    -0.718657256494    -1.327075167798     1.007825032230
         H            1.931270035624    -1.588833256494     0.097723832202     1.007825032230
         H            2.931423035624     0.454180743506     0.863374832202     1.007825032230
         H            2.444451035624     1.237229743506    -0.478435167798     1.007825032230

  Basis Set: AUG-CC-PVTZ
    Blend: AUG-CC-PVTZ
  Basis Set: (AUG-CC-PVTZ AUX)
    Blend: AUG-CC-PVTZ-JKFIT
	 Reference Energy          =    -289.3209410346607910 [Eh]
	 Singles Energy            =      -0.0000000000000000 [Eh]
	 Same-Spin Energy          =      -0.3124795481313036 [Eh]
	 Opposite-Spin Energy      =      -1.0973470684606557 [Eh]
	 Correlation Energy        =      -1.4098266165919593 [Eh]
	 Total Energy              =    -290.7307676512527337 [Eh]

	 ================> DF-SCS-MP2 Energies <==================
	-----------------------------------------------------------
	 SCS Same-Spin Scale       =       0.3333333333333333 [-]
	 SCS Opposite-Spin Scale   =       1.2000000000000000 [-]
	 SCS Same-Spin Energy      =      -0.1041598493771012 [Eh]
	 SCS Opposite-Spin Energy  =      -1.3168164821527868 [Eh]
	 SCS Correlation Energy    =      -1.4209763315298880 [Eh]
	 SCS Total Energy          =    -290.7419173661907053 [Eh]
	-----------------------------------------------------------

  Dipole Moment: [D]
     X:    -1.3180      Y:     0.4739      Z:     0.7702     Total:     1.5985

*** Psi4 exiting successfully. Buy a developer a beer!
