                               Psi4 1.4a3.dev225

  ==> Input File <==

--------------------------------------------------------------------------
#psi4
#
memory 32 gb

molecule  {
0 1
  N        2.7287650     0.3187530    -0.1253010
  C        0.3130830    -0.2174900     0.4662370
  C       -0.2538890     1.1369990    -0.0074850
  C       -0.8349900    -1.2410350     0.2435950
  C       -1.7711660     0.9754980     0.0985330
  C       -1.9852080    -0.4520530    -0.4054450
  C        1.6033210    -0.6099780    -0.2562360
  H        0.5371130    -0.1501040     1.5403310
  H        0.0159810     1.3028420    -1.0605530
  H        0.1335060     1.9859410     0.5654260
  H       -1.1543209    -1.6799470     1.1948312
  H       -0.5107060    -2.0839980    -0.3779040
  H       -2.3285430     1.7277130    -0.4695390
  H       -2.0833270     1.0524550     1.1475980
  H       -2.9716640    -0.8601180    -0.1627990
  H       -1.8853360    -0.4679020    -1.4974950
  H        1.3880180    -0.7214600    -1.3270790
  H        1.9406490    -1.5916360     0.0977200
  H        2.9408020     0.4513780     0.8633710
  H        2.4538300     1.2344270    -0.4784390
units angstrom
no_reorient  #important for SAPT in psi4, default
symmetry c1  #important for SAPT in psi4, default
}

set PROPERTIES_ORIGIN ["COM"]
properties('MP2/aug-cc-pvtz', properties = ['dipole'])
--------------------------------------------------------------------------

    Molecular point group: c1
  Charge       = 0
  Multiplicity = 1
  Basis Set: AUG-CC-PVTZ
    Blend: AUG-CC-PVTZ
  Basis Set: (AUG-CC-PVTZ AUX)
    Blend: AUG-CC-PVTZ-JKFIT

    Orbital Energies [Eh]
    ---------------------

    Doubly Occupied:

       1A    -15.537009     2A    -11.242396     3A    -11.220088
       4A    -11.217155     5A    -11.216660     6A    -11.216205
       7A    -11.215624     8A     -1.177322     9A     -1.117663
      10A     -0.982779    11A     -0.961143    12A     -0.864778
      13A     -0.782536    14A     -0.756191    15A     -0.668484
      16A     -0.648016    17A     -0.641441    18A     -0.580542
      19A     -0.571939    20A     -0.558221    21A     -0.518109
      22A     -0.490976    23A     -0.478728    24A     -0.468785
      25A     -0.463943    26A     -0.454848    27A     -0.444803
      28A     -0.382177

  @DF-RHF Final Energy:  -289.32274353861618

   => Energetics <=

    Nuclear Repulsion Energy =            324.9148638085749212
    One-Electron Energy =               -1034.7180941897336197
    Two-Electron Energy =                 420.4804868425425752
    Total Energy =                       -289.3227435386161801
  Basis Set: (AUG-CC-PVTZ AUX)
    Blend: AUG-CC-PVTZ-RI
    Molecular point group: c1

    Geometry (in Angstrom), charge = 0, multiplicity = 1:

       Center              X                  Y                   Z               Mass
    ------------   -----------------  -----------------  -----------------  -----------------
         N            2.713337018591     0.321094292725    -0.124811977990    14.003074004430
         C            0.297655018591    -0.215148707275     0.466726022010    12.000000000000
         C           -0.269316981409     1.139340292725    -0.006995977990    12.000000000000
         C           -0.850417981409    -1.238693707275     0.244084022010    12.000000000000
         C           -1.786593981409     0.977839292725     0.099022022010    12.000000000000
         C           -2.000635981409    -0.449711707275    -0.404955977990    12.000000000000
         C            1.587893018591    -0.607636707275    -0.255746977990    12.000000000000
         H            0.521685018591    -0.147762707275     1.540820022010     1.007825032230
         H            0.000553018591     1.305183292725    -1.060063977990     1.007825032230
         H            0.118078018591     1.988282292725     0.565915022010     1.007825032230
         H           -1.169748881409    -1.677605707275     1.195320222010     1.007825032230
         H           -0.526133981409    -2.081656707275    -0.377414977990     1.007825032230
         H           -2.343970981409     1.730054292725    -0.469049977990     1.007825032230
         H           -2.098754981409     1.054796292725     1.148087022010     1.007825032230
         H           -2.987091981409    -0.857776707275    -0.162309977990     1.007825032230
         H           -1.900763981409    -0.465560707275    -1.497005977990     1.007825032230
         H            1.372590018591    -0.719118707275    -1.326589977990     1.007825032230
         H            1.925221018591    -1.589294707275     0.098209022010     1.007825032230
         H            2.925374018591     0.453719292725     0.863860022010     1.007825032230
         H            2.438402018591     1.236768292725    -0.477949977990     1.007825032230

  Basis Set: AUG-CC-PVTZ
    Blend: AUG-CC-PVTZ
  Basis Set: (AUG-CC-PVTZ AUX)
    Blend: AUG-CC-PVTZ-JKFIT
	 Reference Energy          =    -289.3227435386161801 [Eh]
	 Singles Energy            =      -0.0000000000000000 [Eh]
	 Same-Spin Energy          =      -0.3125938695570932 [Eh]
	 Opposite-Spin Energy      =      -1.0972920957457242 [Eh]
	 Correlation Energy        =      -1.4098859653028173 [Eh]
	 Total Energy              =    -290.7326295039189858 [Eh]

	 ================> DF-SCS-MP2 Energies <==================
	-----------------------------------------------------------
	 SCS Same-Spin Scale       =       0.3333333333333333 [-]
	 SCS Opposite-Spin Scale   =       1.2000000000000000 [-]
	 SCS Same-Spin Energy      =      -0.1041979565190311 [Eh]
	 SCS Opposite-Spin Energy  =      -1.3167505148948691 [Eh]
	 SCS Correlation Energy    =      -1.4209484714139000 [Eh]
	 SCS Total Energy          =    -290.7436920100300881 [Eh]
	-----------------------------------------------------------

  Dipole Moment: [D]
     X:    -1.3061      Y:     0.4657      Z:     0.7693     Total:     1.5857

*** Psi4 exiting successfully. Buy a developer a beer!
