                               Psi4 1.4a3.dev225

  ==> Input File <==

--------------------------------------------------------------------------
#psi4
#
memory 32 gb

molecule  {
0 1
  N        2.7287650     0.3187530    -0.1253010
  C        0.3130830    -0.2174900     0.4662370
  C       -0.2538890     1.1369990    -0.0074850
  C       -0.8349900    -1.2410350     0.2435950
  C       -1.7711660     0.9754980     0.0985330
  C       -1.9852080    -0.4520530    -0.4054450
  C        1.6033210    -0.6099780    -0.2562360
  H        0.5371130    -0.1501040     1.5403310
  H        0.0159810     1.3028420    -1.0605530
  H        0.1158166     1.9471762     0.5392655
  H       -1.1585790    -1.6624630     1.2012770
  H       -0.5107060    -2.0839980    -0.3779040
  H       -2.3285430     1.7277130    -0.4695390
  H       -2.0833270     1.0524550     1.1475980
  H       -2.9716640    -0.8601180    -0.1627990
  H       -1.8853360    -0.4679020    -1.4974950
  H        1.3880180    -0.7214600    -1.3270790
  H        1.9406490    -1.5916360     0.0977200
  H        2.9408020     0.4513780     0.8633710
  H        2.4538300     1.2344270    -0.4784390
units angstrom
no_reorient  #important for SAPT in psi4, default
symmetry c1  #important for SAPT in psi4, default
}

set PROPERTIES_ORIGIN ["COM"]
properties('MP2/aug-cc-pvtz', properties = ['dipole'])
--------------------------------------------------------------------------

    Molecular point group: c1
  Charge       = 0
  Multiplicity = 1
  Basis Set: AUG-CC-PVTZ
    Blend: AUG-CC-PVTZ
  Basis Set: (AUG-CC-PVTZ AUX)
    Blend: AUG-CC-PVTZ-JKFIT

    Orbital Energies [Eh]
    ---------------------

    Doubly Occupied:

       1A    -15.537144     2A    -11.242234     3A    -11.219515
       4A    -11.216379     5A    -11.215768     6A    -11.215209
       7A    -11.210491     8A     -1.177405     9A     -1.117859
      10A     -0.982440    11A     -0.963621    12A     -0.865397
      13A     -0.783433    14A     -0.756876    15A     -0.671232
      16A     -0.649499    17A     -0.641199    18A     -0.580655
      19A     -0.573535    20A     -0.558404    21A     -0.517928
      22A     -0.491786    23A     -0.479675    24A     -0.468805
      25A     -0.464512    26A     -0.455233    27A     -0.444330
      28A     -0.382186

  @DF-RHF Final Energy:  -289.32190141909132

   => Energetics <=

    Nuclear Repulsion Energy =            325.1859147423920717
    One-Electron Energy =               -1035.2501340890801202
    Two-Electron Energy =                 420.7423179275967868
    Total Energy =                       -289.3219014190913185
  Basis Set: (AUG-CC-PVTZ AUX)
    Blend: AUG-CC-PVTZ-RI
    Molecular point group: c1

    Geometry (in Angstrom), charge = 0, multiplicity = 1:

       Center              X                  Y                   Z               Mass
    ------------   -----------------  -----------------  -----------------  -----------------
         N            2.713560208992     0.321310703262    -0.124611493571    14.003074004430
         C            0.297878208992    -0.214932296738     0.466926506429    12.000000000000
         C           -0.269093791008     1.139556703262    -0.006795493571    12.000000000000
         C           -0.850194791008    -1.238477296738     0.244284506429    12.000000000000
         C           -1.786370791008     0.978055703262     0.099222506429    12.000000000000
         C           -2.000412791008    -0.449495296738    -0.404755493571    12.000000000000
         C            1.588116208992    -0.607420296738    -0.255546493571    12.000000000000
         H            0.521908208992    -0.147546296738     1.541020506429     1.007825032230
         H            0.000776208992     1.305399703262    -1.059863493571     1.007825032230
         H            0.100611808992     1.949733903262     0.539955006429     1.007825032230
         H           -1.173783791008    -1.659905296738     1.201966506429     1.007825032230
         H           -0.525910791008    -2.081440296738    -0.377214493571     1.007825032230
         H           -2.343747791008     1.730270703262    -0.468849493571     1.007825032230
         H           -2.098531791008     1.055012703262     1.148287506429     1.007825032230
         H           -2.986868791008    -0.857560296738    -0.162109493571     1.007825032230
         H           -1.900540791008    -0.465344296738    -1.496805493571     1.007825032230
         H            1.372813208992    -0.718902296738    -1.326389493571     1.007825032230
         H            1.925444208992    -1.589078296738     0.098409506429     1.007825032230
         H            2.925597208992     0.453935703262     0.864060506429     1.007825032230
         H            2.438625208992     1.236984703262    -0.477749493571     1.007825032230

  Basis Set: AUG-CC-PVTZ
    Blend: AUG-CC-PVTZ
  Basis Set: (AUG-CC-PVTZ AUX)
    Blend: AUG-CC-PVTZ-JKFIT
	 Reference Energy          =    -289.3219014190913185 [Eh]
	 Singles Energy            =      -0.0000000000000000 [Eh]
	 Same-Spin Energy          =      -0.3125923798338189 [Eh]
	 Opposite-Spin Energy      =      -1.0970223754161865 [Eh]
	 Correlation Energy        =      -1.4096147552500056 [Eh]
	 Total Energy              =    -290.7315161743413228 [Eh]

	 ================> DF-SCS-MP2 Energies <==================
	-----------------------------------------------------------
	 SCS Same-Spin Scale       =       0.3333333333333333 [-]
	 SCS Opposite-Spin Scale   =       1.2000000000000000 [-]
	 SCS Same-Spin Energy      =      -0.1041974599446063 [Eh]
	 SCS Opposite-Spin Energy  =      -1.3164268504994239 [Eh]
	 SCS Correlation Energy    =      -1.4206243104440301 [Eh]
	 SCS Total Energy          =    -290.7425257295353731 [Eh]
	-----------------------------------------------------------

  Dipole Moment: [D]
     X:    -1.2892      Y:     0.4993      Z:     0.7776     Total:     1.5861

*** Psi4 exiting successfully. Buy a developer a beer!
