                               Psi4 1.4a3.dev225

  ==> Input File <==

--------------------------------------------------------------------------
#psi4
#
memory 32 gb

molecule  {
0 1
  N        2.7287650     0.3187530    -0.1253010
  C        0.3130830    -0.2174900     0.4662370
  C       -0.2710355     1.2212993    -0.0707070
  C       -0.8349900    -1.2410350     0.2435950
  C       -1.7711660     0.9754980     0.0985330
  C       -1.9852080    -0.4520530    -0.4054450
  C        1.6033210    -0.6099780    -0.2562360
  H        0.5371130    -0.1501040     1.5403310
  H        0.0159810     1.3028420    -1.0605530
  H        0.1335060     1.9859410     0.5654260
  H       -1.1585790    -1.6624630     1.2012770
  H       -0.5107060    -2.0839980    -0.3779040
  H       -2.3285430     1.7277130    -0.4695390
  H       -2.0833270     1.0524550     1.1475980
  H       -2.9716640    -0.8601180    -0.1627990
  H       -1.8853360    -0.4679020    -1.4974950
  H        1.3880180    -0.7214600    -1.3270790
  H        1.9406490    -1.5916360     0.0977200
  H        2.9408020     0.4513780     0.8633710
  H        2.4538300     1.2344270    -0.4784390
units angstrom
no_reorient  #important for SAPT in psi4, default
symmetry c1  #important for SAPT in psi4, default
}

set PROPERTIES_ORIGIN ["COM"]
properties('MP2/aug-cc-pvtz', properties = ['dipole'])
--------------------------------------------------------------------------

    Molecular point group: c1
  Charge       = 0
  Multiplicity = 1
  Basis Set: AUG-CC-PVTZ
    Blend: AUG-CC-PVTZ
  Basis Set: (AUG-CC-PVTZ AUX)
    Blend: AUG-CC-PVTZ-JKFIT

    Orbital Energies [Eh]
    ---------------------

    Doubly Occupied:

       1A    -15.536592     2A    -11.241549     3A    -11.223427
       4A    -11.217387     5A    -11.216561     6A    -11.215443
       7A    -11.214128     8A     -1.175442     9A     -1.110953
      10A     -0.979799    11A     -0.961668    12A     -0.862937
      13A     -0.786307    14A     -0.755354    15A     -0.667163
      16A     -0.648495    17A     -0.635854    18A     -0.585850
      19A     -0.578852    20A     -0.556064    21A     -0.515133
      22A     -0.496158    23A     -0.481540    24A     -0.475477
      25A     -0.468354    26A     -0.452777    27A     -0.422060
      28A     -0.381115

  @DF-RHF Final Energy:  -289.31363650776177

   => Energetics <=

    Nuclear Repulsion Energy =            323.6131292587465396
    One-Electron Energy =               -1032.1286562543566561
    Two-Electron Energy =                 419.2018904878483454
    Total Energy =                       -289.3136365077617711
  Basis Set: (AUG-CC-PVTZ AUX)
    Blend: AUG-CC-PVTZ-RI
    Molecular point group: c1

    Geometry (in Angstrom), charge = 0, multiplicity = 1:

       Center              X                  Y                   Z               Mass
    ------------   -----------------  -----------------  -----------------  -----------------
         N            2.715456486276     0.310709080113    -0.117222358055    14.003074004430
         C            0.299774486276    -0.225533919887     0.474315641945    12.000000000000
         C           -0.284344013724     1.213255380113    -0.062628358055    12.000000000000
         C           -0.848298513724    -1.249078919887     0.251673641945    12.000000000000
         C           -1.784474513724     0.967454080113     0.106611641945    12.000000000000
         C           -1.998516513724    -0.460096919887    -0.397366358055    12.000000000000
         C            1.590012486276    -0.618021919887    -0.248157358055    12.000000000000
         H            0.523804486276    -0.158147919887     1.548409641945     1.007825032230
         H            0.002672486276     1.294798080113    -1.052474358055     1.007825032230
         H            0.120197486276     1.977897080113     0.573504641945     1.007825032230
         H           -1.171887513724    -1.670506919887     1.209355641945     1.007825032230
         H           -0.524014513724    -2.092041919887    -0.369825358055     1.007825032230
         H           -2.341851513724     1.719669080113    -0.461460358055     1.007825032230
         H           -2.096635513724     1.044411080113     1.155676641945     1.007825032230
         H           -2.984972513724    -0.868161919887    -0.154720358055     1.007825032230
         H           -1.898644513724    -0.475945919887    -1.489416358055     1.007825032230
         H            1.374709486276    -0.729503919887    -1.319000358055     1.007825032230
         H            1.927340486276    -1.599679919887     0.105798641945     1.007825032230
         H            2.927493486276     0.443334080113     0.871449641945     1.007825032230
         H            2.440521486276     1.226383080113    -0.470360358055     1.007825032230

  Basis Set: AUG-CC-PVTZ
    Blend: AUG-CC-PVTZ
  Basis Set: (AUG-CC-PVTZ AUX)
    Blend: AUG-CC-PVTZ-JKFIT
	 Reference Energy          =    -289.3136365077617711 [Eh]
	 Singles Energy            =      -0.0000000000000000 [Eh]
	 Same-Spin Energy          =      -0.3123812873073294 [Eh]
	 Opposite-Spin Energy      =      -1.0976181407418490 [Eh]
	 Correlation Energy        =      -1.4099994280491785 [Eh]
	 Total Energy              =    -290.7236359358109326 [Eh]

	 ================> DF-SCS-MP2 Energies <==================
	-----------------------------------------------------------
	 SCS Same-Spin Scale       =       0.3333333333333333 [-]
	 SCS Opposite-Spin Scale   =       1.2000000000000000 [-]
	 SCS Same-Spin Energy      =      -0.1041270957691098 [Eh]
	 SCS Opposite-Spin Energy  =      -1.3171417688902187 [Eh]
	 SCS Correlation Energy    =      -1.4212688646593286 [Eh]
	 SCS Total Energy          =    -290.7349053724211103 [Eh]
	-----------------------------------------------------------

  Dipole Moment: [D]
     X:    -1.2996      Y:     0.4576      Z:     0.7548     Total:     1.5710

*** Psi4 exiting successfully. Buy a developer a beer!
