                               Psi4 1.4a3.dev225

  ==> Input File <==

--------------------------------------------------------------------------
#psi4
#
memory 32 gb

molecule  {
0 1
  N        2.7287650     0.3187530    -0.1253010
  C        0.3130830    -0.2174900     0.4662370
  C       -0.2538890     1.1369990    -0.0074850
  C       -0.7347721    -1.1368198     0.1726998
  C       -1.7711660     0.9754980     0.0985330
  C       -1.9852080    -0.4520530    -0.4054450
  C        1.6033210    -0.6099780    -0.2562360
  H        0.5371130    -0.1501040     1.5403310
  H        0.0159810     1.3028420    -1.0605530
  H        0.1335060     1.9859410     0.5654260
  H       -1.1585790    -1.6624630     1.2012770
  H       -0.5107060    -2.0839980    -0.3779040
  H       -2.3285430     1.7277130    -0.4695390
  H       -2.0833270     1.0524550     1.1475980
  H       -2.9716640    -0.8601180    -0.1627990
  H       -1.8853360    -0.4679020    -1.4974950
  H        1.3880180    -0.7214600    -1.3270790
  H        1.9406490    -1.5916360     0.0977200
  H        2.9408020     0.4513780     0.8633710
  H        2.4538300     1.2344270    -0.4784390
units angstrom
no_reorient  #important for SAPT in psi4, default
symmetry c1  #important for SAPT in psi4, default
}

set PROPERTIES_ORIGIN ["COM"]
properties('MP2/aug-cc-pvtz', properties = ['dipole'])
--------------------------------------------------------------------------

    Molecular point group: c1
  Charge       = 0
  Multiplicity = 1
  Basis Set: AUG-CC-PVTZ
    Blend: AUG-CC-PVTZ
  Basis Set: (AUG-CC-PVTZ AUX)
    Blend: AUG-CC-PVTZ-JKFIT

    Orbital Energies [Eh]
    ---------------------

    Doubly Occupied:

       1A    -15.537406     2A    -11.243675     3A    -11.224267
       4A    -11.218575     5A    -11.217663     6A    -11.216763
       7A    -11.215108     8A     -1.181405     9A     -1.131175
      10A     -0.995316    11A     -0.956823    12A     -0.866909
      13A     -0.786187    14A     -0.750772    15A     -0.673900
      16A     -0.651668    17A     -0.645814    18A     -0.581750
      19A     -0.564336    20A     -0.560723    21A     -0.528185
      22A     -0.498681    23A     -0.482233    24A     -0.468651
      25A     -0.463001    26A     -0.459912    27A     -0.419456
      28A     -0.380369

  @DF-RHF Final Energy:  -289.29539564637952

   => Energetics <=

    Nuclear Repulsion Energy =            327.1987400302525657
    One-Electron Energy =               -1039.1468248110697914
    Two-Electron Energy =                 422.6526891344377077
    Total Energy =                       -289.2953956463795180
  Basis Set: (AUG-CC-PVTZ AUX)
    Blend: AUG-CC-PVTZ-RI
    Molecular point group: c1

    Geometry (in Angstrom), charge = 0, multiplicity = 1:

       Center              X                  Y                   Z               Mass
    ------------   -----------------  -----------------  -----------------  -----------------
         N            2.701245541819     0.308297705473    -0.116293256734    14.003074004430
         C            0.285563541819    -0.227945294527     0.475244743266    12.000000000000
         C           -0.281408458181     1.126543705473     0.001522743266    12.000000000000
         C           -0.762291558181    -1.147275094527     0.181707543266    12.000000000000
         C           -1.798685458181     0.965042705473     0.107540743266    12.000000000000
         C           -2.012727458181    -0.462508294527    -0.396437256734    12.000000000000
         C            1.575801541819    -0.620433294527    -0.247228256734    12.000000000000
         H            0.509593541819    -0.160559294527     1.549338743266     1.007825032230
         H           -0.011538458181     1.292386705473    -1.051545256734     1.007825032230
         H            0.105986541819     1.975485705473     0.574433743266     1.007825032230
         H           -1.186098458181    -1.672918294527     1.210284743266     1.007825032230
         H           -0.538225458181    -2.094453294527    -0.368896256734     1.007825032230
         H           -2.356062458181     1.717257705473    -0.460531256734     1.007825032230
         H           -2.110846458181     1.041999705473     1.156605743266     1.007825032230
         H           -2.999183458181    -0.870573294527    -0.153791256734     1.007825032230
         H           -1.912855458181    -0.478357294527    -1.488487256734     1.007825032230
         H            1.360498541819    -0.731915294527    -1.318071256734     1.007825032230
         H            1.913129541819    -1.602091294527     0.106727743266     1.007825032230
         H            2.913282541819     0.440922705473     0.872378743266     1.007825032230
         H            2.426310541819     1.223971705473    -0.469431256734     1.007825032230

  Basis Set: AUG-CC-PVTZ
    Blend: AUG-CC-PVTZ
  Basis Set: (AUG-CC-PVTZ AUX)
    Blend: AUG-CC-PVTZ-JKFIT
	 Reference Energy          =    -289.2953956463795180 [Eh]
	 Singles Energy            =      -0.0000000000000000 [Eh]
	 Same-Spin Energy          =      -0.3143330243173380 [Eh]
	 Opposite-Spin Energy      =      -1.0997676673180443 [Eh]
	 Correlation Energy        =      -1.4141006916353822 [Eh]
	 Total Energy              =    -290.7094963380149011 [Eh]

	 ================> DF-SCS-MP2 Energies <==================
	-----------------------------------------------------------
	 SCS Same-Spin Scale       =       0.3333333333333333 [-]
	 SCS Opposite-Spin Scale   =       1.2000000000000000 [-]
	 SCS Same-Spin Energy      =      -0.1047776747724460 [Eh]
	 SCS Opposite-Spin Energy  =      -1.3197212007816532 [Eh]
	 SCS Correlation Energy    =      -1.4244988755540993 [Eh]
	 SCS Total Energy          =    -290.7198945219336110 [Eh]
	-----------------------------------------------------------

  Dipole Moment: [D]
     X:    -1.2809      Y:     0.5348      Z:     0.7014     Total:     1.5552

*** Psi4 exiting successfully. Buy a developer a beer!
