                               Psi4 1.4a3.dev225

  ==> Input File <==

--------------------------------------------------------------------------
#psi4
#
memory 32 gb

molecule  {
0 1
  N        2.7287650     0.3187530    -0.1253010
  C        0.3130830    -0.2174900     0.4662370
  C       -0.2538890     1.1369990    -0.0074850
  C       -0.8497646    -1.2542070     0.2407298
  C       -1.7711660     0.9754980     0.0985330
  C       -1.9852080    -0.4520530    -0.4054450
  C        1.6033210    -0.6099780    -0.2562360
  H        0.5371130    -0.1501040     1.5403310
  H        0.0159810     1.3028420    -1.0605530
  H        0.1335060     1.9859410     0.5654260
  H       -1.1585790    -1.6624630     1.2012770
  H       -0.5107060    -2.0839980    -0.3779040
  H       -2.3285430     1.7277130    -0.4695390
  H       -2.0833270     1.0524550     1.1475980
  H       -2.9716640    -0.8601180    -0.1627990
  H       -1.8853360    -0.4679020    -1.4974950
  H        1.3880180    -0.7214600    -1.3270790
  H        1.9406490    -1.5916360     0.0977200
  H        2.9408020     0.4513780     0.8633710
  H        2.4538300     1.2344270    -0.4784390
units angstrom
no_reorient  #important for SAPT in psi4, default
symmetry c1  #important for SAPT in psi4, default
}

set PROPERTIES_ORIGIN ["COM"]
properties('MP2/aug-cc-pvtz', properties = ['dipole'])
--------------------------------------------------------------------------

    Molecular point group: c1
  Charge       = 0
  Multiplicity = 1
  Basis Set: AUG-CC-PVTZ
    Blend: AUG-CC-PVTZ
  Basis Set: (AUG-CC-PVTZ AUX)
    Blend: AUG-CC-PVTZ-JKFIT

    Orbital Energies [Eh]
    ---------------------

    Doubly Occupied:

       1A    -15.536935     2A    -11.242234     3A    -11.220676
       4A    -11.217149     5A    -11.216557     6A    -11.215990
       7A    -11.215210     8A     -1.176974     9A     -1.116582
      10A     -0.981431    11A     -0.962221    12A     -0.864464
      13A     -0.782289    14A     -0.756439    15A     -0.667847
      16A     -0.647818    17A     -0.641284    18A     -0.580458
      19A     -0.573719    20A     -0.558302    21A     -0.517675
      22A     -0.491185    23A     -0.478385    24A     -0.469685
      25A     -0.464682    26A     -0.452074    27A     -0.445705
      28A     -0.381653

  @DF-RHF Final Energy:  -289.32259196628547

   => Energetics <=

    Nuclear Repulsion Energy =            324.6834432244467052
    One-Electron Energy =               -1034.2608200579832101
    Two-Electron Energy =                 420.2547848672510327
    Total Energy =                       -289.3225919662854722
  Basis Set: (AUG-CC-PVTZ AUX)
    Blend: AUG-CC-PVTZ-RI
    Molecular point group: c1

    Geometry (in Angstrom), charge = 0, multiplicity = 1:

       Center              X                  Y                   Z               Mass
    ------------   -----------------  -----------------  -----------------  -----------------
         N            2.715169287269     0.322511410644    -0.124530597456    14.003074004430
         C            0.299487287269    -0.213731589356     0.467007402544    12.000000000000
         C           -0.267484712731     1.140757410644    -0.006714597456    12.000000000000
         C           -0.863360312731    -1.250448589356     0.241500202544    12.000000000000
         C           -1.784761712731     0.979256410644     0.099303402544    12.000000000000
         C           -1.998803712731    -0.448294589356    -0.404674597456    12.000000000000
         C            1.589725287269    -0.606219589356    -0.255465597456    12.000000000000
         H            0.523517287269    -0.146345589356     1.541101402544     1.007825032230
         H            0.002385287269     1.306600410644    -1.059782597456     1.007825032230
         H            0.119910287269     1.989699410644     0.566196402544     1.007825032230
         H           -1.172174712731    -1.658704589356     1.202047402544     1.007825032230
         H           -0.524301712731    -2.080239589356    -0.377133597456     1.007825032230
         H           -2.342138712731     1.731471410644    -0.468768597456     1.007825032230
         H           -2.096922712731     1.056213410644     1.148368402544     1.007825032230
         H           -2.985259712731    -0.856359589356    -0.162028597456     1.007825032230
         H           -1.898931712731    -0.464143589356    -1.496724597456     1.007825032230
         H            1.374422287269    -0.717701589356    -1.326308597456     1.007825032230
         H            1.927053287269    -1.587877589356     0.098490402544     1.007825032230
         H            2.927206287269     0.455136410644     0.864141402544     1.007825032230
         H            2.440234287269     1.238185410644    -0.477668597456     1.007825032230

  Basis Set: AUG-CC-PVTZ
    Blend: AUG-CC-PVTZ
  Basis Set: (AUG-CC-PVTZ AUX)
    Blend: AUG-CC-PVTZ-JKFIT
	 Reference Energy          =    -289.3225919662854722 [Eh]
	 Singles Energy            =      -0.0000000000000000 [Eh]
	 Same-Spin Energy          =      -0.3125271140982461 [Eh]
	 Opposite-Spin Energy      =      -1.0972630689679392 [Eh]
	 Correlation Energy        =      -1.4097901830661854 [Eh]
	 Total Energy              =    -290.7323821493516789 [Eh]

	 ================> DF-SCS-MP2 Energies <==================
	-----------------------------------------------------------
	 SCS Same-Spin Scale       =       0.3333333333333333 [-]
	 SCS Opposite-Spin Scale   =       1.2000000000000000 [-]
	 SCS Same-Spin Energy      =      -0.1041757046994154 [Eh]
	 SCS Opposite-Spin Energy  =      -1.3167156827615270 [Eh]
	 SCS Correlation Energy    =      -1.4208913874609423 [Eh]
	 SCS Total Energy          =    -290.7434833537463987 [Eh]
	-----------------------------------------------------------

  Dipole Moment: [D]
     X:    -1.3057      Y:     0.4672      Z:     0.7692     Total:     1.5858

*** Psi4 exiting successfully. Buy a developer a beer!
