                               Psi4 1.4a3.dev225

  ==> Input File <==

--------------------------------------------------------------------------
#psi4
#
memory 32 gb

molecule  {
0 1
  N        2.7287650     0.3187530    -0.1253010
  C        0.3130830    -0.2174900     0.4662370
  C       -0.2538890     1.1369990    -0.0074850
  C       -0.7611171    -1.1751749     0.2579209
  C       -1.7711660     0.9754980     0.0985330
  C       -1.9852080    -0.4520530    -0.4054450
  C        1.6033210    -0.6099780    -0.2562360
  H        0.5371130    -0.1501040     1.5403310
  H        0.0159810     1.3028420    -1.0605530
  H        0.1335060     1.9859410     0.5654260
  H       -1.1585790    -1.6624630     1.2012770
  H       -0.5107060    -2.0839980    -0.3779040
  H       -2.3285430     1.7277130    -0.4695390
  H       -2.0833270     1.0524550     1.1475980
  H       -2.9716640    -0.8601180    -0.1627990
  H       -1.8853360    -0.4679020    -1.4974950
  H        1.3880180    -0.7214600    -1.3270790
  H        1.9406490    -1.5916360     0.0977200
  H        2.9408020     0.4513780     0.8633710
  H        2.4538300     1.2344270    -0.4784390
units angstrom
no_reorient  #important for SAPT in psi4, default
symmetry c1  #important for SAPT in psi4, default
}

set PROPERTIES_ORIGIN ["COM"]
properties('MP2/aug-cc-pvtz', properties = ['dipole'])
--------------------------------------------------------------------------

    Molecular point group: c1
  Charge       = 0
  Multiplicity = 1
  Basis Set: AUG-CC-PVTZ
    Blend: AUG-CC-PVTZ
  Basis Set: (AUG-CC-PVTZ AUX)
    Blend: AUG-CC-PVTZ-JKFIT

    Orbital Energies [Eh]
    ---------------------

    Doubly Occupied:

       1A    -15.537371     2A    -11.243349     3A    -11.219753
       4A    -11.217840     5A    -11.217696     6A    -11.216115
       7A    -11.215607     8A     -1.179636     9A     -1.124846
      10A     -0.991232    11A     -0.955178    12A     -0.867100
      13A     -0.784806    14A     -0.751795    15A     -0.671944
      16A     -0.649914    17A     -0.642680    18A     -0.582571
      19A     -0.567279    20A     -0.558175    21A     -0.523333
      22A     -0.499207    23A     -0.477448    24A     -0.467181
      25A     -0.462581    26A     -0.453869    27A     -0.435572
      28A     -0.383147

  @DF-RHF Final Energy:  -289.31200213310007

   => Energetics <=

    Nuclear Repulsion Energy =            326.2293587946190883
    One-Electron Energy =               -1037.2882705087054092
    Two-Electron Energy =                 421.7469095809862552
    Total Energy =                       -289.3120021331000657
  Basis Set: (AUG-CC-PVTZ AUX)
    Blend: AUG-CC-PVTZ-RI
    Molecular point group: c1

    Geometry (in Angstrom), charge = 0, multiplicity = 1:

       Center              X                  Y                   Z               Mass
    ------------   -----------------  -----------------  -----------------  -----------------
         N            2.704435498328     0.312941892260    -0.126612163649    14.003074004430
         C            0.288753498328    -0.223301107740     0.464925836351    12.000000000000
         C           -0.278218501672     1.131187892260    -0.008796163649    12.000000000000
         C           -0.785446601672    -1.180986007740     0.256609736351    12.000000000000
         C           -1.795495501672     0.969686892260     0.097221836351    12.000000000000
         C           -2.009537501672    -0.457864107740    -0.406756163649    12.000000000000
         C            1.578991498328    -0.615789107740    -0.257547163649    12.000000000000
         H            0.512783498328    -0.155915107740     1.539019836351     1.007825032230
         H           -0.008348501672     1.297030892260    -1.061864163649     1.007825032230
         H            0.109176498328     1.980129892260     0.564114836351     1.007825032230
         H           -1.182908501672    -1.668274107740     1.199965836351     1.007825032230
         H           -0.535035501672    -2.089809107740    -0.379215163649     1.007825032230
         H           -2.352872501672     1.721901892260    -0.470850163649     1.007825032230
         H           -2.107656501672     1.046643892260     1.146286836351     1.007825032230
         H           -2.995993501672    -0.865929107740    -0.164110163649     1.007825032230
         H           -1.909665501672    -0.473713107740    -1.498806163649     1.007825032230
         H            1.363688498328    -0.727271107740    -1.328390163649     1.007825032230
         H            1.916319498328    -1.597447107740     0.096408836351     1.007825032230
         H            2.916472498328     0.445566892260     0.862059836351     1.007825032230
         H            2.429500498328     1.228615892260    -0.479750163649     1.007825032230

  Basis Set: AUG-CC-PVTZ
    Blend: AUG-CC-PVTZ
  Basis Set: (AUG-CC-PVTZ AUX)
    Blend: AUG-CC-PVTZ-JKFIT
	 Reference Energy          =    -289.3120021331000657 [Eh]
	 Singles Energy            =      -0.0000000000000000 [Eh]
	 Same-Spin Energy          =      -0.3135117778264442 [Eh]
	 Opposite-Spin Energy      =      -1.0984471312611876 [Eh]
	 Correlation Energy        =      -1.4119589090876319 [Eh]
	 Total Energy              =    -290.7239610421876819 [Eh]

	 ================> DF-SCS-MP2 Energies <==================
	-----------------------------------------------------------
	 SCS Same-Spin Scale       =       0.3333333333333333 [-]
	 SCS Opposite-Spin Scale   =       1.2000000000000000 [-]
	 SCS Same-Spin Energy      =      -0.1045039259421481 [Eh]
	 SCS Opposite-Spin Energy  =      -1.3181365575134252 [Eh]
	 SCS Correlation Energy    =      -1.4226404834555733 [Eh]
	 SCS Total Energy          =    -290.7346426165556181 [Eh]
	-----------------------------------------------------------

  Dipole Moment: [D]
     X:    -1.3029      Y:     0.5002      Z:     0.7681     Total:     1.5930

*** Psi4 exiting successfully. Buy a developer a beer!
