                               Psi4 1.4a3.dev225

  ==> Input File <==

--------------------------------------------------------------------------
#psi4
#
memory 32 gb

molecule  {
0 1
  N        2.7287650     0.3187530    -0.1253010
  C        0.3130830    -0.2174900     0.4662370
  C       -0.2538890     1.1369990    -0.0074850
  C       -0.8349900    -1.2410350     0.2435950
  C       -1.7711660     0.9754980     0.0985330
  C       -1.9852080    -0.4520530    -0.4054450
  C        1.6033210    -0.6099780    -0.2562360
  H        0.5371130    -0.1501040     1.5403310
  H        0.0159810     1.3028420    -1.0605530
  H        0.1335060     1.9859410     0.5654260
  H       -1.1585790    -1.6624630     1.2012770
  H       -0.4515496    -2.2377727    -0.4912789
  H       -2.3285430     1.7277130    -0.4695390
  H       -2.0833270     1.0524550     1.1475980
  H       -2.9716640    -0.8601180    -0.1627990
  H       -1.8853360    -0.4679020    -1.4974950
  H        1.3880180    -0.7214600    -1.3270790
  H        1.9406490    -1.5916360     0.0977200
  H        2.9408020     0.4513780     0.8633710
  H        2.4538300     1.2344270    -0.4784390
units angstrom
no_reorient  #important for SAPT in psi4, default
symmetry c1  #important for SAPT in psi4, default
}

set PROPERTIES_ORIGIN ["COM"]
properties('MP2/aug-cc-pvtz', properties = ['dipole'])
--------------------------------------------------------------------------

    Molecular point group: c1
  Charge       = 0
  Multiplicity = 1
  Basis Set: AUG-CC-PVTZ
    Blend: AUG-CC-PVTZ
  Basis Set: (AUG-CC-PVTZ AUX)
    Blend: AUG-CC-PVTZ-JKFIT

    Orbital Energies [Eh]
    ---------------------

    Doubly Occupied:

       1A    -15.537092     2A    -11.242421     3A    -11.239333
       4A    -11.222780     5A    -11.219255     6A    -11.218757
       7A    -11.218376     8A     -1.177564     9A     -1.118528
      10A     -0.983734    11A     -0.956630    12A     -0.863734
      13A     -0.783467    14A     -0.747220    15A     -0.669314
      16A     -0.649561    17A     -0.635387    18A     -0.581452
      19A     -0.570657    20A     -0.552001    21A     -0.518829
      22A     -0.490485    23A     -0.477400    24A     -0.470177
      25A     -0.460424    26A     -0.451210    27A     -0.440285
      28A     -0.382660

  @DF-RHF Final Energy:  -289.30284560708833

   => Energetics <=

    Nuclear Repulsion Energy =            324.0884121450077942
    One-Electron Energy =               -1033.0250509609525125
    Two-Electron Energy =                 419.6337932088563321
    Total Energy =                       -289.3028456070883294
  Basis Set: (AUG-CC-PVTZ AUX)
    Blend: AUG-CC-PVTZ-RI
    Molecular point group: c1

    Geometry (in Angstrom), charge = 0, multiplicity = 1:

       Center              X                  Y                   Z               Mass
    ------------   -----------------  -----------------  -----------------  -----------------
         N            2.712778742087     0.322480271809    -0.123724585409    14.003074004430
         C            0.297096742087    -0.213762728191     0.467813414591    12.000000000000
         C           -0.269875257913     1.140726271809    -0.005908585409    12.000000000000
         C           -0.850976257913    -1.237307728191     0.245171414591    12.000000000000
         C           -1.787152257913     0.979225271809     0.100109414591    12.000000000000
         C           -2.001194257913    -0.448325728191    -0.403868585409    12.000000000000
         C            1.587334742087    -0.606250728191    -0.254659585409    12.000000000000
         H            0.521126742087    -0.146376728191     1.541907414591     1.007825032230
         H           -0.000005257913     1.306569271809    -1.058976585409     1.007825032230
         H            0.117519742087     1.989668271809     0.567002414591     1.007825032230
         H           -1.174565257913    -1.658735728191     1.202853414591     1.007825032230
         H           -0.467535857913    -2.234045428191    -0.489702485409     1.007825032230
         H           -2.344529257913     1.731440271809    -0.467962585409     1.007825032230
         H           -2.099313257913     1.056182271809     1.149174414591     1.007825032230
         H           -2.987650257913    -0.856390728191    -0.161222585409     1.007825032230
         H           -1.901322257913    -0.464174728191    -1.495918585409     1.007825032230
         H            1.372031742087    -0.717732728191    -1.325502585409     1.007825032230
         H            1.924662742087    -1.587908728191     0.099296414591     1.007825032230
         H            2.924815742087     0.455105271809     0.864947414591     1.007825032230
         H            2.437843742087     1.238154271809    -0.476862585409     1.007825032230

  Basis Set: AUG-CC-PVTZ
    Blend: AUG-CC-PVTZ
  Basis Set: (AUG-CC-PVTZ AUX)
    Blend: AUG-CC-PVTZ-JKFIT
	 Reference Energy          =    -289.3028456070883294 [Eh]
	 Singles Energy            =      -0.0000000000000000 [Eh]
	 Same-Spin Energy          =      -0.3127359546427065 [Eh]
	 Opposite-Spin Energy      =      -1.0990481775166696 [Eh]
	 Correlation Energy        =      -1.4117841321593763 [Eh]
	 Total Energy              =    -290.7146297392476981 [Eh]

	 ================> DF-SCS-MP2 Energies <==================
	-----------------------------------------------------------
	 SCS Same-Spin Scale       =       0.3333333333333333 [-]
	 SCS Opposite-Spin Scale   =       1.2000000000000000 [-]
	 SCS Same-Spin Energy      =      -0.1042453182142355 [Eh]
	 SCS Opposite-Spin Energy  =      -1.3188578130200035 [Eh]
	 SCS Correlation Energy    =      -1.4231031312342390 [Eh]
	 SCS Total Energy          =    -290.7259487383225860 [Eh]
	-----------------------------------------------------------

  Dipole Moment: [D]
     X:    -1.3457      Y:     0.6461      Z:     0.8295     Total:     1.7077

*** Psi4 exiting successfully. Buy a developer a beer!
