                               Psi4 1.4a3.dev225

  ==> Input File <==

--------------------------------------------------------------------------
#psi4
#
memory 32 gb

molecule  {
0 1
  N        2.7287650     0.3187530    -0.1253010
  C        0.3130830    -0.2174900     0.4662370
  C       -0.2538890     1.1369990    -0.0074850
  C       -0.8349900    -1.2410350     0.2435950
  C       -1.7711660     0.9754980     0.0985330
  C       -1.9852080    -0.4520530    -0.4054450
  C        1.6033210    -0.6099780    -0.2562360
  H        0.5371130    -0.1501040     1.5403310
  H        0.0159810     1.3028420    -1.0605530
  H        0.1335060     1.9859410     0.5654260
  H       -1.1585790    -1.6624630     1.2012770
  H       -0.5107060    -2.0839980    -0.3779040
  H       -2.3285430     1.7277130    -0.4695390
  H       -2.0833270     1.0524550     1.1475980
  H       -2.9716640    -0.8601180    -0.1627990
  H       -1.8944424    -0.4664569    -1.3979210
  H        1.3880180    -0.7214600    -1.3270790
  H        1.9406490    -1.5916360     0.0977200
  H        2.9408020     0.4513780     0.8633710
  H        2.4538300     1.2344270    -0.4784390
units angstrom
no_reorient  #important for SAPT in psi4, default
symmetry c1  #important for SAPT in psi4, default
}

set PROPERTIES_ORIGIN ["COM"]
properties('MP2/aug-cc-pvtz', properties = ['dipole'])
--------------------------------------------------------------------------

    Molecular point group: c1
  Charge       = 0
  Multiplicity = 1
  Basis Set: AUG-CC-PVTZ
    Blend: AUG-CC-PVTZ
  Basis Set: (AUG-CC-PVTZ AUX)
    Blend: AUG-CC-PVTZ-JKFIT

    Orbital Energies [Eh]
    ---------------------

    Doubly Occupied:

       1A    -15.536895     2A    -11.242290     3A    -11.219649
       4A    -11.216748     5A    -11.215623     6A    -11.214865
       7A    -11.203192     8A     -1.177248     9A     -1.119011
      10A     -0.984832    11A     -0.962852    12A     -0.865613
      13A     -0.790838    14A     -0.756340    15A     -0.668172
      16A     -0.649111    17A     -0.642866    18A     -0.583403
      19A     -0.576200    20A     -0.558200    21A     -0.518257
      22A     -0.491620    23A     -0.478140    24A     -0.470467
      25A     -0.465464    26A     -0.454980    27A     -0.445903
      28A     -0.381949

  @DF-RHF Final Energy:  -289.31692713691706

   => Energetics <=

    Nuclear Repulsion Energy =            325.4170017240907669
    One-Electron Energy =               -1035.6864020006248666
    Two-Electron Energy =                 420.9524731396169841
    Total Energy =                       -289.3169271369170588
  Basis Set: (AUG-CC-PVTZ AUX)
    Blend: AUG-CC-PVTZ-RI
    Molecular point group: c1

    Geometry (in Angstrom), charge = 0, multiplicity = 1:

       Center              X                  Y                   Z               Mass
    ------------   -----------------  -----------------  -----------------  -----------------
         N            2.713472926012     0.320901797296    -0.125890123640    14.003074004430
         C            0.297790926012    -0.215341202704     0.465647876360    12.000000000000
         C           -0.269181073988     1.139147797296    -0.008074123640    12.000000000000
         C           -0.850282073988    -1.238886202704     0.243005876360    12.000000000000
         C           -1.786458073988     0.977646797296     0.097943876360    12.000000000000
         C           -2.000500073988    -0.449904202704    -0.406034123640    12.000000000000
         C            1.588028926012    -0.607829202704    -0.256825123640    12.000000000000
         H            0.521820926012    -0.147955202704     1.539741876360     1.007825032230
         H            0.000688926012     1.304990797296    -1.061142123640     1.007825032230
         H            0.118213926012     1.988089797296     0.564836876360     1.007825032230
         H           -1.173871073988    -1.660314202704     1.200687876360     1.007825032230
         H           -0.525998073988    -2.081849202704    -0.378493123640     1.007825032230
         H           -2.343835073988     1.729861797296    -0.470128123640     1.007825032230
         H           -2.098619073988     1.054603797296     1.147008876360     1.007825032230
         H           -2.986956073988    -0.857969202704    -0.163388123640     1.007825032230
         H           -1.909734473988    -0.464308102704    -1.398510123640     1.007825032230
         H            1.372725926012    -0.719311202704    -1.327668123640     1.007825032230
         H            1.925356926012    -1.589487202704     0.097130876360     1.007825032230
         H            2.925509926012     0.453526797296     0.862781876360     1.007825032230
         H            2.438537926012     1.236575797296    -0.479028123640     1.007825032230

  Basis Set: AUG-CC-PVTZ
    Blend: AUG-CC-PVTZ
  Basis Set: (AUG-CC-PVTZ AUX)
    Blend: AUG-CC-PVTZ-JKFIT
	 Reference Energy          =    -289.3169271369170588 [Eh]
	 Singles Energy            =      -0.0000000000000000 [Eh]
	 Same-Spin Energy          =      -0.3126169647486214 [Eh]
	 Opposite-Spin Energy      =      -1.0968233292789971 [Eh]
	 Correlation Energy        =      -1.4094402940276185 [Eh]
	 Total Energy              =    -290.7263674309446628 [Eh]

	 ================> DF-SCS-MP2 Energies <==================
	-----------------------------------------------------------
	 SCS Same-Spin Scale       =       0.3333333333333333 [-]
	 SCS Opposite-Spin Scale   =       1.2000000000000000 [-]
	 SCS Same-Spin Energy      =      -0.1042056549162071 [Eh]
	 SCS Opposite-Spin Energy  =      -1.3161879951347963 [Eh]
	 SCS Correlation Energy    =      -1.4203936500510035 [Eh]
	 SCS Total Energy          =    -290.7373207869680414 [Eh]
	-----------------------------------------------------------

  Dipole Moment: [D]
     X:    -1.3159      Y:     0.4643      Z:     0.7081     Total:     1.5648

*** Psi4 exiting successfully. Buy a developer a beer!
