                               Psi4 1.4a3.dev225

  ==> Input File <==

--------------------------------------------------------------------------
#psi4
#
memory 32 gb

molecule  {
0 1
  N        2.7287650     0.3187530    -0.1253010
  C        0.3990158    -0.2164101     0.6013662
  C       -0.2538890     1.1369990    -0.0074850
  C       -0.8349900    -1.2410350     0.2435950
  C       -1.7711660     0.9754980     0.0985330
  C       -1.9852080    -0.4520530    -0.4054450
  C        1.6033210    -0.6099780    -0.2562360
  H        0.5371130    -0.1501040     1.5403310
  H        0.0159810     1.3028420    -1.0605530
  H        0.1335060     1.9859410     0.5654260
  H       -1.1585790    -1.6624630     1.2012770
  H       -0.5107060    -2.0839980    -0.3779040
  H       -2.3285430     1.7277130    -0.4695390
  H       -2.0833270     1.0524550     1.1475980
  H       -2.9716640    -0.8601180    -0.1627990
  H       -1.8853360    -0.4679020    -1.4974950
  H        1.3880180    -0.7214600    -1.3270790
  H        1.9406490    -1.5916360     0.0977200
  H        2.9408020     0.4513780     0.8633710
  H        2.4538300     1.2344270    -0.4784390
units angstrom
no_reorient  #important for SAPT in psi4, default
symmetry c1  #important for SAPT in psi4, default
}

set PROPERTIES_ORIGIN ["COM"]
properties('MP2/aug-cc-pvtz', properties = ['dipole'])
--------------------------------------------------------------------------

    Molecular point group: c1
  Charge       = 0
  Multiplicity = 1
  Basis Set: AUG-CC-PVTZ
    Blend: AUG-CC-PVTZ
  Basis Set: (AUG-CC-PVTZ AUX)
    Blend: AUG-CC-PVTZ-JKFIT

    Orbital Energies [Eh]
    ---------------------

    Doubly Occupied:

       1A    -15.534131     2A    -11.243593     3A    -11.219957
       4A    -11.218423     5A    -11.216671     6A    -11.216426
       7A    -11.215775     8A     -1.176226     9A     -1.105242
      10A     -0.983596    11A     -0.953520    12A     -0.861259
      13A     -0.787542    14A     -0.773204    15A     -0.663487
      16A     -0.644566    17A     -0.633253    18A     -0.592289
      19A     -0.571458    20A     -0.559721    21A     -0.522465
      22A     -0.488148    23A     -0.479311    24A     -0.470079
      25A     -0.466780    26A     -0.461212    27A     -0.419835
      28A     -0.375531

  @DF-RHF Final Energy:  -289.29222192569529

   => Energetics <=

    Nuclear Repulsion Energy =            323.3511835495272635
    One-Electron Energy =               -1031.5794058412689083
    Two-Electron Energy =                 418.9360003660463576
    Total Energy =                       -289.2922219256952872
  Basis Set: (AUG-CC-PVTZ AUX)
    Blend: AUG-CC-PVTZ-RI
    Molecular point group: c1

    Geometry (in Angstrom), charge = 0, multiplicity = 1:

       Center              X                  Y                   Z               Mass
    ------------   -----------------  -----------------  -----------------  -----------------
         N            2.702975238070     0.320785734380    -0.141239503681    14.003074004430
         C            0.373226038070    -0.214377365620     0.585427696319    12.000000000000
         C           -0.279678761930     1.139031734380    -0.023423503681    12.000000000000
         C           -0.860779761930    -1.239002265620     0.227656496319    12.000000000000
         C           -1.796955761930     0.977530734380     0.082594496319    12.000000000000
         C           -2.010997761930    -0.450020265620    -0.421383503681    12.000000000000
         C            1.577531238070    -0.607945265620    -0.272174503681    12.000000000000
         H            0.511323238070    -0.148071265620     1.524392496319     1.007825032230
         H           -0.009808761930     1.304874734380    -1.076491503681     1.007825032230
         H            0.107716238070     1.987973734380     0.549487496319     1.007825032230
         H           -1.184368761930    -1.660430265620     1.185338496319     1.007825032230
         H           -0.536495761930    -2.081965265620    -0.393842503681     1.007825032230
         H           -2.354332761930     1.729745734380    -0.485477503681     1.007825032230
         H           -2.109116761930     1.054487734380     1.131659496319     1.007825032230
         H           -2.997453761930    -0.858085265620    -0.178737503681     1.007825032230
         H           -1.911125761930    -0.465869265620    -1.513433503681     1.007825032230
         H            1.362228238070    -0.719427265620    -1.343017503681     1.007825032230
         H            1.914859238070    -1.589603265620     0.081781496319     1.007825032230
         H            2.915012238070     0.453410734380     0.847432496319     1.007825032230
         H            2.428040238070     1.236459734380    -0.494377503681     1.007825032230

  Basis Set: AUG-CC-PVTZ
    Blend: AUG-CC-PVTZ
  Basis Set: (AUG-CC-PVTZ AUX)
    Blend: AUG-CC-PVTZ-JKFIT
	 Reference Energy          =    -289.2922219256952872 [Eh]
	 Singles Energy            =      -0.0000000000000000 [Eh]
	 Same-Spin Energy          =      -0.3122969290287951 [Eh]
	 Opposite-Spin Energy      =      -1.0981956604182246 [Eh]
	 Correlation Energy        =      -1.4104925894470197 [Eh]
	 Total Energy              =    -290.7027145151423042 [Eh]

	 ================> DF-SCS-MP2 Energies <==================
	-----------------------------------------------------------
	 SCS Same-Spin Scale       =       0.3333333333333333 [-]
	 SCS Opposite-Spin Scale   =       1.2000000000000000 [-]
	 SCS Same-Spin Energy      =      -0.1040989763429317 [Eh]
	 SCS Opposite-Spin Energy  =      -1.3178347925018694 [Eh]
	 SCS Correlation Energy    =      -1.4219337688448010 [Eh]
	 SCS Total Energy          =    -290.7141556945400680 [Eh]
	-----------------------------------------------------------

  Dipole Moment: [D]
     X:    -1.2964      Y:     0.4584      Z:     0.8080     Total:     1.5949

*** Psi4 exiting successfully. Buy a developer a beer!
