                               Psi4 1.4a3.dev225

  ==> Input File <==

--------------------------------------------------------------------------
#psi4
#
memory 32 gb

molecule  {
0 1
  N        2.7287650     0.3187530    -0.1253010
  C        0.3130830    -0.2174900     0.4662370
  C       -0.2615426     1.1792733    -0.0391799
  C       -0.8349900    -1.2410350     0.2435950
  C       -1.7711660     0.9754980     0.0985330
  C       -1.9852080    -0.4520530    -0.4054450
  C        1.6033210    -0.6099780    -0.2562360
  H        0.5371130    -0.1501040     1.5403310
  H        0.0159810     1.3028420    -1.0605530
  H        0.1335060     1.9859410     0.5654260
  H       -1.1585790    -1.6624630     1.2012770
  H       -0.5107060    -2.0839980    -0.3779040
  H       -2.3285430     1.7277130    -0.4695390
  H       -2.0833270     1.0524550     1.1475980
  H       -2.9716640    -0.8601180    -0.1627990
  H       -1.8853360    -0.4679020    -1.4974950
  H        1.3880180    -0.7214600    -1.3270790
  H        1.9406490    -1.5916360     0.0977200
  H        2.9408020     0.4513780     0.8633710
  H        2.4538300     1.2344270    -0.4784390
units angstrom
no_reorient  #important for SAPT in psi4, default
symmetry c1  #important for SAPT in psi4, default
}

set PROPERTIES_ORIGIN ["COM"]
properties('MP2/aug-cc-pvtz', properties = ['dipole'])
--------------------------------------------------------------------------

    Molecular point group: c1
  Charge       = 0
  Multiplicity = 1
  Basis Set: AUG-CC-PVTZ
    Blend: AUG-CC-PVTZ
  Basis Set: (AUG-CC-PVTZ AUX)
    Blend: AUG-CC-PVTZ-JKFIT

    Orbital Energies [Eh]
    ---------------------

    Doubly Occupied:

       1A    -15.536794     2A    -11.241905     3A    -11.221773
       4A    -11.217013     5A    -11.216317     6A    -11.215500
       7A    -11.215056     8A     -1.176294     9A     -1.114057
      10A     -0.980845    11A     -0.961528    12A     -0.863682
      13A     -0.784048    14A     -0.755877    15A     -0.667781
      16A     -0.648072    17A     -0.638677    18A     -0.581737
      19A     -0.576588    20A     -0.557166    21A     -0.516215
      22A     -0.493028    23A     -0.479644    24A     -0.472656
      25A     -0.466908    26A     -0.453315    27A     -0.434981
      28A     -0.381708

  @DF-RHF Final Energy:  -289.32067135229732

   => Energetics <=

    Nuclear Repulsion Energy =            324.2687156940790487
    One-Electron Energy =               -1033.4404443145613186
    Two-Electron Energy =                 419.8510572681850022
    Total Energy =                       -289.3206713522973246
  Basis Set: (AUG-CC-PVTZ AUX)
    Blend: AUG-CC-PVTZ-RI
    Molecular point group: c1

    Geometry (in Angstrom), charge = 0, multiplicity = 1:

       Center              X                  Y                   Z               Mass
    ------------   -----------------  -----------------  -----------------  -----------------
         N            2.714307048502     0.315797753950    -0.121039783671    14.003074004430
         C            0.298625048502    -0.220445246050     0.470498216329    12.000000000000
         C           -0.276000551498     1.176318053950    -0.034918683671    12.000000000000
         C           -0.849447951498    -1.243990246050     0.247856216329    12.000000000000
         C           -1.785623951498     0.972542753950     0.102794216329    12.000000000000
         C           -1.999665951498    -0.455008246050    -0.401183783671    12.000000000000
         C            1.588863048502    -0.612933246050    -0.251974783671    12.000000000000
         H            0.522655048502    -0.153059246050     1.544592216329     1.007825032230
         H            0.001523048502     1.299886753950    -1.056291783671     1.007825032230
         H            0.119048048502     1.982985753950     0.569687216329     1.007825032230
         H           -1.173036951498    -1.665418246050     1.205538216329     1.007825032230
         H           -0.525163951498    -2.086953246050    -0.373642783671     1.007825032230
         H           -2.343000951498     1.724757753950    -0.465277783671     1.007825032230
         H           -2.097784951498     1.049499753950     1.151859216329     1.007825032230
         H           -2.986121951498    -0.863073246050    -0.158537783671     1.007825032230
         H           -1.899793951498    -0.470857246050    -1.493233783671     1.007825032230
         H            1.373560048502    -0.724415246050    -1.322817783671     1.007825032230
         H            1.926191048502    -1.594591246050     0.101981216329     1.007825032230
         H            2.926344048502     0.448422753950     0.867632216329     1.007825032230
         H            2.439372048502     1.231471753950    -0.474177783671     1.007825032230

  Basis Set: AUG-CC-PVTZ
    Blend: AUG-CC-PVTZ
  Basis Set: (AUG-CC-PVTZ AUX)
    Blend: AUG-CC-PVTZ-JKFIT
	 Reference Energy          =    -289.3206713522973246 [Eh]
	 Singles Energy            =      -0.0000000000000000 [Eh]
	 Same-Spin Energy          =      -0.3123866843835677 [Eh]
	 Opposite-Spin Energy      =      -1.0972777018006608 [Eh]
	 Correlation Energy        =      -1.4096643861842284 [Eh]
	 Total Energy              =    -290.7303357384815286 [Eh]

	 ================> DF-SCS-MP2 Energies <==================
	-----------------------------------------------------------
	 SCS Same-Spin Scale       =       0.3333333333333333 [-]
	 SCS Opposite-Spin Scale   =       1.2000000000000000 [-]
	 SCS Same-Spin Energy      =      -0.1041288947945226 [Eh]
	 SCS Opposite-Spin Energy  =      -1.3167332421607929 [Eh]
	 SCS Correlation Energy    =      -1.4208621369553154 [Eh]
	 SCS Total Energy          =    -290.7415334892526175 [Eh]
	-----------------------------------------------------------

  Dipole Moment: [D]
     X:    -1.3024      Y:     0.4679      Z:     0.7596     Total:     1.5787

*** Psi4 exiting successfully. Buy a developer a beer!
