                               Psi4 1.4a3.dev225

  ==> Input File <==

--------------------------------------------------------------------------
#psi4
#
memory 32 gb

molecule  {
0 1
  N        2.7287650     0.3187530    -0.1253010
  C        0.3130830    -0.2174900     0.4662370
  C       -0.2538890     1.1369990    -0.0074850
  C       -0.8001266    -1.2072025     0.2207166
  C       -1.7711660     0.9754980     0.0985330
  C       -1.9852080    -0.4520530    -0.4054450
  C        1.6033210    -0.6099780    -0.2562360
  H        0.5371130    -0.1501040     1.5403310
  H        0.0159810     1.3028420    -1.0605530
  H        0.1335060     1.9859410     0.5654260
  H       -1.1585790    -1.6624630     1.2012770
  H       -0.5107060    -2.0839980    -0.3779040
  H       -2.3285430     1.7277130    -0.4695390
  H       -2.0833270     1.0524550     1.1475980
  H       -2.9716640    -0.8601180    -0.1627990
  H       -1.8853360    -0.4679020    -1.4974950
  H        1.3880180    -0.7214600    -1.3270790
  H        1.9406490    -1.5916360     0.0977200
  H        2.9408020     0.4513780     0.8633710
  H        2.4538300     1.2344270    -0.4784390
units angstrom
no_reorient  #important for SAPT in psi4, default
symmetry c1  #important for SAPT in psi4, default
}

set PROPERTIES_ORIGIN ["COM"]
properties('MP2/aug-cc-pvtz', properties = ['dipole'])
--------------------------------------------------------------------------

    Molecular point group: c1
  Charge       = 0
  Multiplicity = 1
  Basis Set: AUG-CC-PVTZ
    Blend: AUG-CC-PVTZ
  Basis Set: (AUG-CC-PVTZ AUX)
    Blend: AUG-CC-PVTZ-JKFIT

    Orbital Energies [Eh]
    ---------------------

    Doubly Occupied:

       1A    -15.537069     2A    -11.242691     3A    -11.218618
       4A    -11.217863     5A    -11.217331     6A    -11.216696
       7A    -11.216079     8A     -1.178317     9A     -1.121698
      10A     -0.986458    11A     -0.959587    12A     -0.865154
      13A     -0.783122    14A     -0.754444    15A     -0.669892
      16A     -0.648568    17A     -0.643385    18A     -0.580543
      19A     -0.568427    20A     -0.559206    21A     -0.520103
      22A     -0.492006    23A     -0.479777    24A     -0.467306
      25A     -0.463613    26A     -0.460408    27A     -0.438564
      28A     -0.382285

  @DF-RHF Final Energy:  -289.31939362009416

   => Energetics <=

    Nuclear Repulsion Energy =            325.6718476604893908
    One-Electron Energy =               -1036.2040654649308635
    Two-Electron Energy =                 421.2128241843472551
    Total Energy =                       -289.3193936200941607
  Basis Set: (AUG-CC-PVTZ AUX)
    Blend: AUG-CC-PVTZ-RI
    Molecular point group: c1

    Geometry (in Angstrom), charge = 0, multiplicity = 1:

       Center              X                  Y                   Z               Mass
    ------------   -----------------  -----------------  -----------------  -----------------
         N            2.709158922448     0.316819920390    -0.122107320265    14.003074004430
         C            0.293476922448    -0.219423079610     0.469430679735    12.000000000000
         C           -0.273495077552     1.135065920390    -0.004291320265    12.000000000000
         C           -0.819732677552    -1.209135579610     0.223910279735    12.000000000000
         C           -1.790772077552     0.973564920390     0.101726679735    12.000000000000
         C           -2.004814077552    -0.453986079610    -0.402251320265    12.000000000000
         C            1.583714922448    -0.611911079610    -0.253042320265    12.000000000000
         H            0.517506922448    -0.152037079610     1.543524679735     1.007825032230
         H           -0.003625077552     1.300908920390    -1.057359320265     1.007825032230
         H            0.113899922448     1.984007920390     0.568619679735     1.007825032230
         H           -1.178185077552    -1.664396079610     1.204470679735     1.007825032230
         H           -0.530312077552    -2.085931079610    -0.374710320265     1.007825032230
         H           -2.348149077552     1.725779920390    -0.466345320265     1.007825032230
         H           -2.102933077552     1.050521920390     1.150791679735     1.007825032230
         H           -2.991270077552    -0.862051079610    -0.159605320265     1.007825032230
         H           -1.904942077552    -0.469835079610    -1.494301320265     1.007825032230
         H            1.368411922448    -0.723393079610    -1.323885320265     1.007825032230
         H            1.921042922448    -1.593569079610     0.100913679735     1.007825032230
         H            2.921195922448     0.449444920390     0.866564679735     1.007825032230
         H            2.434223922448     1.232493920390    -0.475245320265     1.007825032230

  Basis Set: AUG-CC-PVTZ
    Blend: AUG-CC-PVTZ
  Basis Set: (AUG-CC-PVTZ AUX)
    Blend: AUG-CC-PVTZ-JKFIT
	 Reference Energy          =    -289.3193936200941607 [Eh]
	 Singles Energy            =      -0.0000000000000000 [Eh]
	 Same-Spin Energy          =      -0.3129690730447892 [Eh]
	 Opposite-Spin Energy      =      -1.0977589756869295 [Eh]
	 Correlation Energy        =      -1.4107280487317186 [Eh]
	 Total Energy              =    -290.7301216688258592 [Eh]

	 ================> DF-SCS-MP2 Energies <==================
	-----------------------------------------------------------
	 SCS Same-Spin Scale       =       0.3333333333333333 [-]
	 SCS Opposite-Spin Scale   =       1.2000000000000000 [-]
	 SCS Same-Spin Energy      =      -0.1043230243482630 [Eh]
	 SCS Opposite-Spin Energy  =      -1.3173107708243152 [Eh]
	 SCS Correlation Energy    =      -1.4216337951725784 [Eh]
	 SCS Total Energy          =    -290.7410274152667284 [Eh]
	-----------------------------------------------------------

  Dipole Moment: [D]
     X:    -1.3025      Y:     0.4817      Z:     0.7507     Total:     1.5787

*** Psi4 exiting successfully. Buy a developer a beer!
