                               Psi4 1.4a3.dev225

  ==> Input File <==

--------------------------------------------------------------------------
#psi4
#
memory 32 gb

molecule  {
0 1
  N        2.7287650     0.3187530    -0.1253010
  C        0.3130830    -0.2174900     0.4662370
  C       -0.2538890     1.1369990    -0.0074850
  C       -0.8349900    -1.2410350     0.2435950
  C       -1.7711660     0.9754980     0.0985330
  C       -1.9852080    -0.4520530    -0.4054450
  C        1.6033210    -0.6099780    -0.2562360
  H        0.5371130    -0.1501040     1.5403310
  H        0.0159810     1.3028420    -1.0605530
  H        0.1335060     1.9859410     0.5654260
  H       -1.1585790    -1.6624630     1.2012770
  H       -0.5107060    -2.0839980    -0.3779040
  H       -2.3285430     1.7277130    -0.4695390
  H       -2.0890170     1.0538578     1.1667201
  H       -2.9716640    -0.8601180    -0.1627990
  H       -1.8853360    -0.4679020    -1.4974950
  H        1.3880180    -0.7214600    -1.3270790
  H        1.9406490    -1.5916360     0.0977200
  H        2.9408020     0.4513780     0.8633710
  H        2.4538300     1.2344270    -0.4784390
units angstrom
no_reorient  #important for SAPT in psi4, default
symmetry c1  #important for SAPT in psi4, default
}

set PROPERTIES_ORIGIN ["COM"]
properties('MP2/aug-cc-pvtz', properties = ['dipole'])
--------------------------------------------------------------------------

    Molecular point group: c1
  Charge       = 0
  Multiplicity = 1
  Basis Set: AUG-CC-PVTZ
    Blend: AUG-CC-PVTZ
  Basis Set: (AUG-CC-PVTZ AUX)
    Blend: AUG-CC-PVTZ-JKFIT

    Orbital Energies [Eh]
    ---------------------

    Doubly Occupied:

       1A    -15.537055     2A    -11.242441     3A    -11.220047
       4A    -11.219311     5A    -11.217046     6A    -11.216512
       7A    -11.215753     8A     -1.177371     9A     -1.117571
      10A     -0.982397    11A     -0.961111    12A     -0.864640
      13A     -0.780928    14A     -0.755945    15A     -0.668500
      16A     -0.647676    17A     -0.641650    18A     -0.579603
      19A     -0.572306    20A     -0.558200    21A     -0.518212
      22A     -0.491203    23A     -0.478234    24A     -0.468601
      25A     -0.462845    26A     -0.455011    27A     -0.444888
      28A     -0.382192

  @DF-RHF Final Energy:  -289.32227700173667

   => Energetics <=

    Nuclear Repulsion Energy =            324.8426357460342615
    One-Electron Energy =               -1034.5753241461889047
    Two-Electron Energy =                 420.4104113984179776
    Total Energy =                       -289.3222770017366656
  Basis Set: (AUG-CC-PVTZ AUX)
    Blend: AUG-CC-PVTZ-RI
    Molecular point group: c1

    Geometry (in Angstrom), charge = 0, multiplicity = 1:

       Center              X                  Y                   Z               Mass
    ------------   -----------------  -----------------  -----------------  -----------------
         N            2.713438183664     0.320902227457    -0.125071985273    14.003074004430
         C            0.297756183664    -0.215340772543     0.466466014727    12.000000000000
         C           -0.269215816336     1.139148227457    -0.007255985273    12.000000000000
         C           -0.850316816336    -1.238885772543     0.243824014727    12.000000000000
         C           -1.786492816336     0.977647227457     0.098762014727    12.000000000000
         C           -2.000534816336    -0.449903772543    -0.405215985273    12.000000000000
         C            1.587994183664    -0.607828772543    -0.256006985273    12.000000000000
         H            0.521786183664    -0.147954772543     1.540560014727     1.007825032230
         H            0.000654183664     1.304991227457    -1.060323985273     1.007825032230
         H            0.118179183664     1.988090227457     0.565655014727     1.007825032230
         H           -1.173905816336    -1.660313772543     1.201506014727     1.007825032230
         H           -0.526032816336    -2.081848772543    -0.377674985273     1.007825032230
         H           -2.343869816336     1.729862227457    -0.469309985273     1.007825032230
         H           -2.104343816336     1.056007027457     1.166949114727     1.007825032230
         H           -2.986990816336    -0.857968772543    -0.162569985273     1.007825032230
         H           -1.900662816336    -0.465752772543    -1.497265985273     1.007825032230
         H            1.372691183664    -0.719310772543    -1.326849985273     1.007825032230
         H            1.925322183664    -1.589486772543     0.097949014727     1.007825032230
         H            2.925475183664     0.453527227457     0.863600014727     1.007825032230
         H            2.438503183664     1.236576227457    -0.478209985273     1.007825032230

  Basis Set: AUG-CC-PVTZ
    Blend: AUG-CC-PVTZ
  Basis Set: (AUG-CC-PVTZ AUX)
    Blend: AUG-CC-PVTZ-JKFIT
	 Reference Energy          =    -289.3222770017366656 [Eh]
	 Singles Energy            =      -0.0000000000000000 [Eh]
	 Same-Spin Energy          =      -0.3125987808040475 [Eh]
	 Opposite-Spin Energy      =      -1.0974432765073245 [Eh]
	 Correlation Energy        =      -1.4100420573113719 [Eh]
	 Total Energy              =    -290.7323190590480522 [Eh]

	 ================> DF-SCS-MP2 Energies <==================
	-----------------------------------------------------------
	 SCS Same-Spin Scale       =       0.3333333333333333 [-]
	 SCS Opposite-Spin Scale   =       1.2000000000000000 [-]
	 SCS Same-Spin Energy      =      -0.1041995936013491 [Eh]
	 SCS Opposite-Spin Energy  =      -1.3169319318087893 [Eh]
	 SCS Correlation Energy    =      -1.4211315254101384 [Eh]
	 SCS Total Energy          =    -290.7434085271468120 [Eh]
	-----------------------------------------------------------

  Dipole Moment: [D]
     X:    -1.2997      Y:     0.4657      Z:     0.7556     Total:     1.5739

*** Psi4 exiting successfully. Buy a developer a beer!
