                               Psi4 1.4a3.dev225

  ==> Input File <==

--------------------------------------------------------------------------
#psi4
#
memory 32 gb

molecule  {
0 1
  N        2.7287650     0.3187530    -0.1253010
  C        0.3130830    -0.2174900     0.4662370
  C       -0.2538890     1.1369990    -0.0074850
  C       -0.8349900    -1.2410350     0.2435950
  C       -1.7513262     0.9776098     0.0971467
  C       -1.9852080    -0.4520530    -0.4054450
  C        1.6033210    -0.6099780    -0.2562360
  H        0.5371130    -0.1501040     1.5403310
  H        0.0159810     1.3028420    -1.0605530
  H        0.1335060     1.9859410     0.5654260
  H       -1.1585790    -1.6624630     1.2012770
  H       -0.5107060    -2.0839980    -0.3779040
  H       -2.3285430     1.7277130    -0.4695390
  H       -2.0833270     1.0524550     1.1475980
  H       -2.9716640    -0.8601180    -0.1627990
  H       -1.8853360    -0.4679020    -1.4974950
  H        1.3880180    -0.7214600    -1.3270790
  H        1.9406490    -1.5916360     0.0977200
  H        2.9408020     0.4513780     0.8633710
  H        2.4538300     1.2344270    -0.4784390
units angstrom
no_reorient  #important for SAPT in psi4, default
symmetry c1  #important for SAPT in psi4, default
}

set PROPERTIES_ORIGIN ["COM"]
properties('MP2/aug-cc-pvtz', properties = ['dipole'])
--------------------------------------------------------------------------

    Molecular point group: c1
  Charge       = 0
  Multiplicity = 1
  Basis Set: AUG-CC-PVTZ
    Blend: AUG-CC-PVTZ
  Basis Set: (AUG-CC-PVTZ AUX)
    Blend: AUG-CC-PVTZ-JKFIT

    Orbital Energies [Eh]
    ---------------------

    Doubly Occupied:

       1A    -15.537096     2A    -11.242446     3A    -11.220091
       4A    -11.217406     5A    -11.216357     6A    -11.216029
       7A    -11.215572     8A     -1.177535     9A     -1.119262
      10A     -0.982291    11A     -0.963116    12A     -0.864277
      13A     -0.781377    14A     -0.756416    15A     -0.668846
      16A     -0.648737    17A     -0.641402    18A     -0.579957
      19A     -0.572894    20A     -0.558343    21A     -0.517774
      22A     -0.491109    23A     -0.481474    24A     -0.468790
      25A     -0.461140    26A     -0.455317    27A     -0.444756
      28A     -0.382221

  @DF-RHF Final Energy:  -289.32223410887252

   => Energetics <=

    Nuclear Repulsion Energy =            325.1717718353337432
    One-Electron Energy =               -1035.2239432009605480
    Two-Electron Energy =                 420.7299372567542832
    Total Energy =                       -289.3222341088725216
  Basis Set: (AUG-CC-PVTZ AUX)
    Blend: AUG-CC-PVTZ-RI
    Molecular point group: c1

    Geometry (in Angstrom), charge = 0, multiplicity = 1:

       Center              X                  Y                   Z               Mass
    ------------   -----------------  -----------------  -----------------  -----------------
         N            2.710978039192     0.320660787858    -0.124709668501    14.003074004430
         C            0.295296039192    -0.215582212142     0.466828331499    12.000000000000
         C           -0.271675960808     1.138906787858    -0.006893668501    12.000000000000
         C           -0.852776960808    -1.239127212142     0.244186331499    12.000000000000
         C           -1.769113160808     0.979517587858     0.097738031499    12.000000000000
         C           -2.002994960808    -0.450145212142    -0.404853668501    12.000000000000
         C            1.585534039192    -0.608070212142    -0.255644668501    12.000000000000
         H            0.519326039192    -0.148196212142     1.540922331499     1.007825032230
         H           -0.001805960808     1.304749787858    -1.059961668501     1.007825032230
         H            0.115719039192     1.987848787858     0.566017331499     1.007825032230
         H           -1.176365960808    -1.660555212142     1.201868331499     1.007825032230
         H           -0.528492960808    -2.082090212142    -0.377312668501     1.007825032230
         H           -2.346329960808     1.729620787858    -0.468947668501     1.007825032230
         H           -2.101113960808     1.054362787858     1.148189331499     1.007825032230
         H           -2.989450960808    -0.858210212142    -0.162207668501     1.007825032230
         H           -1.903122960808    -0.465994212142    -1.496903668501     1.007825032230
         H            1.370231039192    -0.719552212142    -1.326487668501     1.007825032230
         H            1.922862039192    -1.589728212142     0.098311331499     1.007825032230
         H            2.923015039192     0.453285787858     0.863962331499     1.007825032230
         H            2.436043039192     1.236334787858    -0.477847668501     1.007825032230

  Basis Set: AUG-CC-PVTZ
    Blend: AUG-CC-PVTZ
  Basis Set: (AUG-CC-PVTZ AUX)
    Blend: AUG-CC-PVTZ-JKFIT
	 Reference Energy          =    -289.3222341088725216 [Eh]
	 Singles Energy            =      -0.0000000000000000 [Eh]
	 Same-Spin Energy          =      -0.3127039608657918 [Eh]
	 Opposite-Spin Energy      =      -1.0974028058938177 [Eh]
	 Correlation Energy        =      -1.4101067667596094 [Eh]
	 Total Energy              =    -290.7323408756321328 [Eh]

	 ================> DF-SCS-MP2 Energies <==================
	-----------------------------------------------------------
	 SCS Same-Spin Scale       =       0.3333333333333333 [-]
	 SCS Opposite-Spin Scale   =       1.2000000000000000 [-]
	 SCS Same-Spin Energy      =      -0.1042346536219306 [Eh]
	 SCS Opposite-Spin Energy  =      -1.3168833670725812 [Eh]
	 SCS Correlation Energy    =      -1.4211180206945118 [Eh]
	 SCS Total Energy          =    -290.7433521295670289 [Eh]
	-----------------------------------------------------------

  Dipole Moment: [D]
     X:    -1.3001      Y:     0.4665      Z:     0.7686     Total:     1.5806

*** Psi4 exiting successfully. Buy a developer a beer!
