                               Psi4 1.4a3.dev225

  ==> Input File <==

--------------------------------------------------------------------------
#psi4
#
memory 32 gb

molecule  {
0 1
  N        2.7287650     0.3187530    -0.1253010
  C        0.3001120    -0.2180891     0.4429046
  C       -0.2538890     1.1369990    -0.0074850
  C       -0.8349900    -1.2410350     0.2435950
  C       -1.7711660     0.9754980     0.0985330
  C       -1.9852080    -0.4520530    -0.4054450
  C        1.6033210    -0.6099780    -0.2562360
  H        0.5371130    -0.1501040     1.5403310
  H        0.0159810     1.3028420    -1.0605530
  H        0.1335060     1.9859410     0.5654260
  H       -1.1585790    -1.6624630     1.2012770
  H       -0.5107060    -2.0839980    -0.3779040
  H       -2.3285430     1.7277130    -0.4695390
  H       -2.0833270     1.0524550     1.1475980
  H       -2.9716640    -0.8601180    -0.1627990
  H       -1.8853360    -0.4679020    -1.4974950
  H        1.3880180    -0.7214600    -1.3270790
  H        1.9406490    -1.5916360     0.0977200
  H        2.9408020     0.4513780     0.8633710
  H        2.4538300     1.2344270    -0.4784390
units angstrom
no_reorient  #important for SAPT in psi4, default
symmetry c1  #important for SAPT in psi4, default
}

set PROPERTIES_ORIGIN ["COM"]
properties('MP2/aug-cc-pvtz', properties = ['dipole'])
--------------------------------------------------------------------------

    Molecular point group: c1
  Charge       = 0
  Multiplicity = 1
  Basis Set: AUG-CC-PVTZ
    Blend: AUG-CC-PVTZ
  Basis Set: (AUG-CC-PVTZ AUX)
    Blend: AUG-CC-PVTZ-JKFIT

    Orbital Energies [Eh]
    ---------------------

    Doubly Occupied:

       1A    -15.537508     2A    -11.242530     3A    -11.221059
       4A    -11.217147     5A    -11.216537     6A    -11.216208
       7A    -11.215503     8A     -1.177661     9A     -1.120032
      10A     -0.982977    11A     -0.962605    12A     -0.865574
      13A     -0.783332    14A     -0.752532    15A     -0.669156
      16A     -0.648859    17A     -0.642872    18A     -0.579599
      19A     -0.572539    20A     -0.558416    21A     -0.517403
      22A     -0.492655    23A     -0.480166    24A     -0.468972
      25A     -0.464062    26A     -0.456626    27A     -0.440354
      28A     -0.382835

  @DF-RHF Final Energy:  -289.32164633145157

   => Energetics <=

    Nuclear Repulsion Energy =            325.1889401931390466
    One-Electron Energy =               -1035.2497346395032309
    Two-Electron Energy =                 420.7391481149126093
    Total Energy =                       -289.3216463314515750
  Basis Set: (AUG-CC-PVTZ AUX)
    Blend: AUG-CC-PVTZ-RI
    Molecular point group: c1

    Geometry (in Angstrom), charge = 0, multiplicity = 1:

       Center              X                  Y                   Z               Mass
    ------------   -----------------  -----------------  -----------------  -----------------
         N            2.714950900267     0.320989034322    -0.122052348154    14.003074004430
         C            0.286297900267    -0.215853065678     0.446153251846    12.000000000000
         C           -0.267703099733     1.139235034322    -0.004236348154    12.000000000000
         C           -0.848804099733    -1.238798965678     0.246843651846    12.000000000000
         C           -1.784980099733     0.977734034322     0.101781651846    12.000000000000
         C           -1.999022099733    -0.449816965678    -0.402196348154    12.000000000000
         C            1.589506900267    -0.607741965678    -0.252987348154    12.000000000000
         H            0.523298900267    -0.147867965678     1.543579651846     1.007825032230
         H            0.002166900267     1.305078034322    -1.057304348154     1.007825032230
         H            0.119691900267     1.988177034322     0.568674651846     1.007825032230
         H           -1.172393099733    -1.660226965678     1.204525651846     1.007825032230
         H           -0.524520099733    -2.081761965678    -0.374655348154     1.007825032230
         H           -2.342357099733     1.729949034322    -0.466290348154     1.007825032230
         H           -2.097141099733     1.054691034322     1.150846651846     1.007825032230
         H           -2.985478099733    -0.857881965678    -0.159550348154     1.007825032230
         H           -1.899150099733    -0.465665965678    -1.494246348154     1.007825032230
         H            1.374203900267    -0.719223965678    -1.323830348154     1.007825032230
         H            1.926834900267    -1.589399965678     0.100968651846     1.007825032230
         H            2.926987900267     0.453614034322     0.866619651846     1.007825032230
         H            2.440015900267     1.236663034322    -0.475190348154     1.007825032230

  Basis Set: AUG-CC-PVTZ
    Blend: AUG-CC-PVTZ
  Basis Set: (AUG-CC-PVTZ AUX)
    Blend: AUG-CC-PVTZ-JKFIT
	 Reference Energy          =    -289.3216463314515750 [Eh]
	 Singles Energy            =      -0.0000000000000000 [Eh]
	 Same-Spin Energy          =      -0.3127845894247235 [Eh]
	 Opposite-Spin Energy      =      -1.0975221714364725 [Eh]
	 Correlation Energy        =      -1.4103067608611961 [Eh]
	 Total Energy              =    -290.7319530923127786 [Eh]

	 ================> DF-SCS-MP2 Energies <==================
	-----------------------------------------------------------
	 SCS Same-Spin Scale       =       0.3333333333333333 [-]
	 SCS Opposite-Spin Scale   =       1.2000000000000000 [-]
	 SCS Same-Spin Energy      =      -0.1042615298082412 [Eh]
	 SCS Opposite-Spin Energy  =      -1.3170266057237670 [Eh]
	 SCS Correlation Energy    =      -1.4212881355320082 [Eh]
	 SCS Total Energy          =    -290.7429344669835700 [Eh]
	-----------------------------------------------------------

  Dipole Moment: [D]
     X:    -1.3117      Y:     0.4710      Z:     0.7550     Total:     1.5851

*** Psi4 exiting successfully. Buy a developer a beer!
