                               Psi4 1.4a3.dev225

  ==> Input File <==

--------------------------------------------------------------------------
#psi4
#
memory 32 gb

molecule  {
0 1
  N        2.7287650     0.3187530    -0.1253010
  C        0.3130830    -0.2174900     0.4662370
  C       -0.2538890     1.1369990    -0.0074850
  C       -0.8349900    -1.2410350     0.2435950
  C       -1.6719669     0.9860569     0.0916016
  C       -1.9852080    -0.4520530    -0.4054450
  C        1.6033210    -0.6099780    -0.2562360
  H        0.5371130    -0.1501040     1.5403310
  H        0.0159810     1.3028420    -1.0605530
  H        0.1335060     1.9859410     0.5654260
  H       -1.1585790    -1.6624630     1.2012770
  H       -0.5107060    -2.0839980    -0.3779040
  H       -2.3285430     1.7277130    -0.4695390
  H       -2.0833270     1.0524550     1.1475980
  H       -2.9716640    -0.8601180    -0.1627990
  H       -1.8853360    -0.4679020    -1.4974950
  H        1.3880180    -0.7214600    -1.3270790
  H        1.9406490    -1.5916360     0.0977200
  H        2.9408020     0.4513780     0.8633710
  H        2.4538300     1.2344270    -0.4784390
units angstrom
no_reorient  #important for SAPT in psi4, default
symmetry c1  #important for SAPT in psi4, default
}

set PROPERTIES_ORIGIN ["COM"]
properties('MP2/aug-cc-pvtz', properties = ['dipole'])
--------------------------------------------------------------------------

    Molecular point group: c1
  Charge       = 0
  Multiplicity = 1
  Basis Set: AUG-CC-PVTZ
    Blend: AUG-CC-PVTZ
  Basis Set: (AUG-CC-PVTZ AUX)
    Blend: AUG-CC-PVTZ-JKFIT

    Orbital Energies [Eh]
    ---------------------

    Doubly Occupied:

       1A    -15.537544     2A    -11.242812     3A    -11.220780
       4A    -11.220395     5A    -11.217133     6A    -11.215303
       7A    -11.212923     8A     -1.178680     9A     -1.126634
      10A     -0.982309    11A     -0.970355    12A     -0.862153
      13A     -0.776757    14A     -0.758986    15A     -0.671048
      16A     -0.652036    17A     -0.640988    18A     -0.578165
      19A     -0.575726    20A     -0.558454    21A     -0.516898
      22A     -0.501810    23A     -0.490618    24A     -0.467125
      25A     -0.453266    26A     -0.447983    27A     -0.440703
      28A     -0.382580

  @DF-RHF Final Energy:  -289.31145652809573

   => Energetics <=

    Nuclear Repulsion Energy =            326.1464892818775638
    One-Electron Energy =               -1037.1155659127655326
    Two-Electron Energy =                 421.6576201027921798
    Total Energy =                       -289.3114565280957322
  Basis Set: (AUG-CC-PVTZ AUX)
    Blend: AUG-CC-PVTZ-RI
    Molecular point group: c1

    Geometry (in Angstrom), charge = 0, multiplicity = 1:

       Center              X                  Y                   Z               Mass
    ------------   -----------------  -----------------  -----------------  -----------------
         N            2.701368902142     0.319637979673    -0.124038245922    14.003074004430
         C            0.285686902142    -0.216605020327     0.467499754078    12.000000000000
         C           -0.281285097858     1.137883979673    -0.006222245922    12.000000000000
         C           -0.862386097858    -1.240150020327     0.244857754078    12.000000000000
         C           -1.699362997858     0.986941879673     0.092864354078    12.000000000000
         C           -2.012604097858    -0.451168020327    -0.404182245922    12.000000000000
         C            1.575924902142    -0.609093020327    -0.254973245922    12.000000000000
         H            0.509716902142    -0.149219020327     1.541593754078     1.007825032230
         H           -0.011415097858     1.303726979673    -1.059290245922     1.007825032230
         H            0.106109902142     1.986825979673     0.566688754078     1.007825032230
         H           -1.185975097858    -1.661578020327     1.202539754078     1.007825032230
         H           -0.538102097858    -2.083113020327    -0.376641245922     1.007825032230
         H           -2.355939097858     1.728597979673    -0.468276245922     1.007825032230
         H           -2.110723097858     1.053339979673     1.148860754078     1.007825032230
         H           -2.999060097858    -0.859233020327    -0.161536245922     1.007825032230
         H           -1.912732097858    -0.467017020327    -1.496232245922     1.007825032230
         H            1.360621902142    -0.720575020327    -1.325816245922     1.007825032230
         H            1.913252902142    -1.590751020327     0.098982754078     1.007825032230
         H            2.913405902142     0.452262979673     0.864633754078     1.007825032230
         H            2.426433902142     1.235311979673    -0.477176245922     1.007825032230

  Basis Set: AUG-CC-PVTZ
    Blend: AUG-CC-PVTZ
  Basis Set: (AUG-CC-PVTZ AUX)
    Blend: AUG-CC-PVTZ-JKFIT
	 Reference Energy          =    -289.3114565280957322 [Eh]
	 Singles Energy            =      -0.0000000000000000 [Eh]
	 Same-Spin Energy          =      -0.3134558709388673 [Eh]
	 Opposite-Spin Energy      =      -1.0983424474463970 [Eh]
	 Correlation Energy        =      -1.4117983183852643 [Eh]
	 Total Energy              =    -290.7232548464809838 [Eh]

	 ================> DF-SCS-MP2 Energies <==================
	-----------------------------------------------------------
	 SCS Same-Spin Scale       =       0.3333333333333333 [-]
	 SCS Opposite-Spin Scale   =       1.2000000000000000 [-]
	 SCS Same-Spin Energy      =      -0.1044852903129558 [Eh]
	 SCS Opposite-Spin Energy  =      -1.3180109369356763 [Eh]
	 SCS Correlation Energy    =      -1.4224962272486321 [Eh]
	 SCS Total Energy          =    -290.7339527553443759 [Eh]
	-----------------------------------------------------------

  Dipole Moment: [D]
     X:    -1.2606      Y:     0.4480      Z:     0.7647     Total:     1.5410

*** Psi4 exiting successfully. Buy a developer a beer!
