                               Psi4 1.4a3.dev225

  ==> Input File <==

--------------------------------------------------------------------------
#psi4
#
memory 32 gb

molecule  {
0 1
  N        2.7287650     0.3187530    -0.1253010
  C        0.3130830    -0.2174900     0.4662370
  C       -0.2538890     1.1369990    -0.0074850
  C       -0.8349900    -1.2410350     0.2435950
  C       -1.7711660     0.9754980     0.0985330
  C       -1.9852080    -0.4520530    -0.4054450
  C        1.6033210    -0.6099780    -0.2562360
  H        0.5371130    -0.1501040     1.5403310
  H       -0.0368736     1.2031975    -1.0834999
  H        0.1335060     1.9859410     0.5654260
  H       -1.1585790    -1.6624630     1.2012770
  H       -0.5107060    -2.0839980    -0.3779040
  H       -2.3285430     1.7277130    -0.4695390
  H       -2.0833270     1.0524550     1.1475980
  H       -2.9716640    -0.8601180    -0.1627990
  H       -1.8853360    -0.4679020    -1.4974950
  H        1.3880180    -0.7214600    -1.3270790
  H        1.9406490    -1.5916360     0.0977200
  H        2.9408020     0.4513780     0.8633710
  H        2.4538300     1.2344270    -0.4784390
units angstrom
no_reorient  #important for SAPT in psi4, default
symmetry c1  #important for SAPT in psi4, default
}

set PROPERTIES_ORIGIN ["COM"]
properties('MP2/aug-cc-pvtz', properties = ['dipole'])
--------------------------------------------------------------------------

    Molecular point group: c1
  Charge       = 0
  Multiplicity = 1
  Basis Set: AUG-CC-PVTZ
    Blend: AUG-CC-PVTZ
  Basis Set: (AUG-CC-PVTZ AUX)
    Blend: AUG-CC-PVTZ-JKFIT

    Orbital Energies [Eh]
    ---------------------

    Doubly Occupied:

       1A    -15.536876     2A    -11.242351     3A    -11.219446
       4A    -11.217256     5A    -11.216588     6A    -11.215997
       7A    -11.215647     8A     -1.177333     9A     -1.118482
      10A     -0.982770    11A     -0.961131    12A     -0.864580
      13A     -0.782119    14A     -0.754772    15A     -0.668687
      16A     -0.649858    17A     -0.640486    18A     -0.581001
      19A     -0.574634    20A     -0.558136    21A     -0.517843
      22A     -0.492872    23A     -0.478304    24A     -0.467327
      25A     -0.463384    26A     -0.455396    27A     -0.443227
      28A     -0.382021

  @DF-RHF Final Energy:  -289.32131405283627

   => Energetics <=

    Nuclear Repulsion Energy =            325.0889460986500126
    One-Electron Energy =               -1035.0634722441859594
    Two-Electron Energy =                 420.6532120926996754
    Total Energy =                       -289.3213140528362715
  Basis Set: (AUG-CC-PVTZ AUX)
    Blend: AUG-CC-PVTZ-RI
    Molecular point group: c1

    Geometry (in Angstrom), charge = 0, multiplicity = 1:

       Center              X                  Y                   Z               Mass
    ------------   -----------------  -----------------  -----------------  -----------------
         N            2.713917813962     0.321929806333    -0.124644173588    14.003074004430
         C            0.298235813962    -0.214313193667     0.466893826412    12.000000000000
         C           -0.268736186038     1.140175806333    -0.006828173588    12.000000000000
         C           -0.849837186038    -1.237858193667     0.244251826412    12.000000000000
         C           -1.786013186038     0.978674806333     0.099189826412    12.000000000000
         C           -2.000055186038    -0.448876193667    -0.404788173588    12.000000000000
         C            1.588473813962    -0.606801193667    -0.255579173588    12.000000000000
         H            0.522265813962    -0.146927193667     1.540987826412     1.007825032230
         H           -0.051720786038     1.206374306333    -1.082843073588     1.007825032230
         H            0.118658813962     1.989117806333     0.566082826412     1.007825032230
         H           -1.173426186038    -1.659286193667     1.201933826412     1.007825032230
         H           -0.525553186038    -2.080821193667    -0.377247173588     1.007825032230
         H           -2.343390186038     1.730889806333    -0.468882173588     1.007825032230
         H           -2.098174186038     1.055631806333     1.148254826412     1.007825032230
         H           -2.986511186038    -0.856941193667    -0.162142173588     1.007825032230
         H           -1.900183186038    -0.464725193667    -1.496838173588     1.007825032230
         H            1.373170813962    -0.718283193667    -1.326422173588     1.007825032230
         H            1.925801813962    -1.588459193667     0.098376826412     1.007825032230
         H            2.925954813962     0.454554806333     0.864027826412     1.007825032230
         H            2.438982813962     1.237603806333    -0.477782173588     1.007825032230

  Basis Set: AUG-CC-PVTZ
    Blend: AUG-CC-PVTZ
  Basis Set: (AUG-CC-PVTZ AUX)
    Blend: AUG-CC-PVTZ-JKFIT
	 Reference Energy          =    -289.3213140528362715 [Eh]
	 Singles Energy            =      -0.0000000000000000 [Eh]
	 Same-Spin Energy          =      -0.3127963212633517 [Eh]
	 Opposite-Spin Energy      =      -1.0975909696027202 [Eh]
	 Correlation Energy        =      -1.4103872908660717 [Eh]
	 Total Energy              =    -290.7317013437023547 [Eh]

	 ================> DF-SCS-MP2 Energies <==================
	-----------------------------------------------------------
	 SCS Same-Spin Scale       =       0.3333333333333333 [-]
	 SCS Opposite-Spin Scale   =       1.2000000000000000 [-]
	 SCS Same-Spin Energy      =      -0.1042654404211172 [Eh]
	 SCS Opposite-Spin Energy  =      -1.3171091635232641 [Eh]
	 SCS Correlation Energy    =      -1.4213746039443813 [Eh]
	 SCS Total Energy          =    -290.7426886567806719 [Eh]
	-----------------------------------------------------------

  Dipole Moment: [D]
     X:    -1.3179      Y:     0.4547      Z:     0.7793     Total:     1.5971

*** Psi4 exiting successfully. Buy a developer a beer!
