                               Psi4 1.4a3.dev225

  ==> Input File <==

--------------------------------------------------------------------------
#psi4
#
memory 32 gb

molecule  {
0 1
  N        2.7287650     0.3187530    -0.1253010
  C        0.3130830    -0.2174900     0.4662370
  C       -0.2538890     1.1369990    -0.0074850
  C       -0.8349900    -1.2410350     0.2435950
  C       -1.7711660     0.9754980     0.0985330
  C       -1.9852080    -0.4520530    -0.4054450
  C        1.6033210    -0.6099780    -0.2562360
  H        0.5371130    -0.1501040     1.5403310
  H        0.0159810     1.3028420    -1.0605530
  H        0.1335060     1.9859410     0.5654260
  H       -1.1585790    -1.6624630     1.2012770
  H       -0.5047904    -2.0993755    -0.3892415
  H       -2.3285430     1.7277130    -0.4695390
  H       -2.0833270     1.0524550     1.1475980
  H       -2.9716640    -0.8601180    -0.1627990
  H       -1.8853360    -0.4679020    -1.4974950
  H        1.3880180    -0.7214600    -1.3270790
  H        1.9406490    -1.5916360     0.0977200
  H        2.9408020     0.4513780     0.8633710
  H        2.4538300     1.2344270    -0.4784390
units angstrom
no_reorient  #important for SAPT in psi4, default
symmetry c1  #important for SAPT in psi4, default
}

set PROPERTIES_ORIGIN ["COM"]
properties('MP2/aug-cc-pvtz', properties = ['dipole'])
--------------------------------------------------------------------------

    Molecular point group: c1
  Charge       = 0
  Multiplicity = 1
  Basis Set: AUG-CC-PVTZ
    Blend: AUG-CC-PVTZ
  Basis Set: (AUG-CC-PVTZ AUX)
    Blend: AUG-CC-PVTZ-JKFIT

    Orbital Energies [Eh]
    ---------------------

    Doubly Occupied:

       1A    -15.536997     2A    -11.242377     3A    -11.220235
       4A    -11.218332     5A    -11.217293     6A    -11.216742
       7A    -11.216175     8A     -1.177321     9A     -1.117708
      10A     -0.982784    11A     -0.960426    12A     -0.864580
      13A     -0.782493    14A     -0.754698    15A     -0.668476
      16A     -0.648165    17A     -0.640716    18A     -0.580684
      19A     -0.571997    20A     -0.557776    21A     -0.518171
      22A     -0.490999    23A     -0.477835    24A     -0.468755
      25A     -0.463573    26A     -0.454838    27A     -0.444781
      28A     -0.382171

  @DF-RHF Final Energy:  -289.32222292454179

   => Energetics <=

    Nuclear Repulsion Energy =            324.8418016555559120
    One-Electron Energy =               -1034.5738499283129386
    Two-Electron Energy =                 420.4098253482152927
    Total Energy =                       -289.3222229245417907
  Basis Set: (AUG-CC-PVTZ AUX)
    Blend: AUG-CC-PVTZ-RI
    Molecular point group: c1

    Geometry (in Angstrom), charge = 0, multiplicity = 1:

       Center              X                  Y                   Z               Mass
    ------------   -----------------  -----------------  -----------------  -----------------
         N            2.713320163000     0.321072871124    -0.124762232895    14.003074004430
         C            0.297638163000    -0.215170128876     0.466775767105    12.000000000000
         C           -0.269333837000     1.139318871124    -0.006946232895    12.000000000000
         C           -0.850434837000    -1.238715128876     0.244133767105    12.000000000000
         C           -1.786610837000     0.977817871124     0.099071767105    12.000000000000
         C           -2.000652837000    -0.449733128876    -0.404906232895    12.000000000000
         C            1.587876163000    -0.607658128876    -0.255697232895    12.000000000000
         H            0.521668163000    -0.147784128876     1.540869767105     1.007825032230
         H            0.000536163000     1.305161871124    -1.060014232895     1.007825032230
         H            0.118061163000     1.988260871124     0.565964767105     1.007825032230
         H           -1.174023837000    -1.660143128876     1.201815767105     1.007825032230
         H           -0.520235237000    -2.097055628876    -0.388702732895     1.007825032230
         H           -2.343987837000     1.730032871124    -0.469000232895     1.007825032230
         H           -2.098771837000     1.054774871124     1.148136767105     1.007825032230
         H           -2.987108837000    -0.857798128876    -0.162260232895     1.007825032230
         H           -1.900780837000    -0.465582128876    -1.496956232895     1.007825032230
         H            1.372573163000    -0.719140128876    -1.326540232895     1.007825032230
         H            1.925204163000    -1.589316128876     0.098258767105     1.007825032230
         H            2.925357163000     0.453697871124     0.863909767105     1.007825032230
         H            2.438385163000     1.236746871124    -0.477900232895     1.007825032230

  Basis Set: AUG-CC-PVTZ
    Blend: AUG-CC-PVTZ
  Basis Set: (AUG-CC-PVTZ AUX)
    Blend: AUG-CC-PVTZ-JKFIT
	 Reference Energy          =    -289.3222229245417907 [Eh]
	 Singles Energy            =      -0.0000000000000000 [Eh]
	 Same-Spin Energy          =      -0.3126141970739528 [Eh]
	 Opposite-Spin Energy      =      -1.0974657278181505 [Eh]
	 Correlation Energy        =      -1.4100799248921034 [Eh]
	 Total Energy              =    -290.7323028494338928 [Eh]

	 ================> DF-SCS-MP2 Energies <==================
	-----------------------------------------------------------
	 SCS Same-Spin Scale       =       0.3333333333333333 [-]
	 SCS Opposite-Spin Scale   =       1.2000000000000000 [-]
	 SCS Same-Spin Energy      =      -0.1042047323579843 [Eh]
	 SCS Opposite-Spin Energy  =      -1.3169588733817805 [Eh]
	 SCS Correlation Energy    =      -1.4211636057397647 [Eh]
	 SCS Total Energy          =    -290.7433865302815548 [Eh]
	-----------------------------------------------------------

  Dipole Moment: [D]
     X:    -1.3100      Y:     0.4840      Z:     0.7739     Total:     1.5967

*** Psi4 exiting successfully. Buy a developer a beer!
