                               Psi4 1.4a3.dev225

  ==> Input File <==

--------------------------------------------------------------------------
#psi4
#
memory 32 gb

molecule  {
0 1
  N        2.7287650     0.3187530    -0.1253010
  C        0.2074359    -0.1311936     0.5548597
  C       -0.2538890     1.1369990    -0.0074850
  C       -0.8349900    -1.2410350     0.2435950
  C       -1.7711660     0.9754980     0.0985330
  C       -1.9852080    -0.4520530    -0.4054450
  C        1.6033210    -0.6099780    -0.2562360
  H        0.5371130    -0.1501040     1.5403310
  H        0.0159810     1.3028420    -1.0605530
  H        0.1335060     1.9859410     0.5654260
  H       -1.1585790    -1.6624630     1.2012770
  H       -0.5107060    -2.0839980    -0.3779040
  H       -2.3285430     1.7277130    -0.4695390
  H       -2.0833270     1.0524550     1.1475980
  H       -2.9716640    -0.8601180    -0.1627990
  H       -1.8853360    -0.4679020    -1.4974950
  H        1.3880180    -0.7214600    -1.3270790
  H        1.9406490    -1.5916360     0.0977200
  H        2.9408020     0.4513780     0.8633710
  H        2.4538300     1.2344270    -0.4784390
units angstrom
no_reorient  #important for SAPT in psi4, default
symmetry c1  #important for SAPT in psi4, default
}

set PROPERTIES_ORIGIN ["COM"]
properties('MP2/aug-cc-pvtz', properties = ['dipole'])
--------------------------------------------------------------------------

    Molecular point group: c1
  Charge       = 0
  Multiplicity = 1
  Basis Set: AUG-CC-PVTZ
    Blend: AUG-CC-PVTZ
  Basis Set: (AUG-CC-PVTZ AUX)
    Blend: AUG-CC-PVTZ-JKFIT

    Orbital Energies [Eh]
    ---------------------

    Doubly Occupied:

       1A    -15.535895     2A    -11.246362     3A    -11.217590
       4A    -11.216224     5A    -11.214975     6A    -11.214364
       7A    -11.214096     8A     -1.171835     9A     -1.126328
      10A     -0.973305    11A     -0.964502    12A     -0.857408
      13A     -0.784419    14A     -0.762892    15A     -0.668489
      16A     -0.650935    17A     -0.640533    18A     -0.578961
      19A     -0.572118    20A     -0.554285    21A     -0.510877
      22A     -0.490741    23A     -0.479403    24A     -0.476460
      25A     -0.464642    26A     -0.459922    27A     -0.453269
      28A     -0.356095

  @DF-RHF Final Energy:  -289.29908130363168

   => Energetics <=

    Nuclear Repulsion Energy =            324.7816611503297963
    One-Electron Energy =               -1034.4476382370701231
    Two-Electron Energy =                 420.3668957831086459
    Total Energy =                       -289.2990813036316808
  Basis Set: (AUG-CC-PVTZ AUX)
    Blend: AUG-CC-PVTZ-RI
    Molecular point group: c1

    Geometry (in Angstrom), charge = 0, multiplicity = 1:

       Center              X                  Y                   Z               Mass
    ------------   -----------------  -----------------  -----------------  -----------------
         N            2.726172487985     0.310467384452    -0.135608313231    14.003074004430
         C            0.204843387985    -0.139479215548     0.544552386769    12.000000000000
         C           -0.256481512015     1.128713384452    -0.017792313231    12.000000000000
         C           -0.837582512015    -1.249320615548     0.233287686769    12.000000000000
         C           -1.773758512015     0.967212384452     0.088225686769    12.000000000000
         C           -1.987800512015    -0.460338615548    -0.415752313231    12.000000000000
         C            1.600728487985    -0.618263615548    -0.266543313231    12.000000000000
         H            0.534520487985    -0.158389615548     1.530023686769     1.007825032230
         H            0.013388487985     1.294556384452    -1.070860313231     1.007825032230
         H            0.130913487985     1.977655384452     0.555118686769     1.007825032230
         H           -1.161171512015    -1.670748615548     1.190969686769     1.007825032230
         H           -0.513298512015    -2.092283615548    -0.388211313231     1.007825032230
         H           -2.331135512015     1.719427384452    -0.479846313231     1.007825032230
         H           -2.085919512015     1.044169384452     1.137290686769     1.007825032230
         H           -2.974256512015    -0.868403615548    -0.173106313231     1.007825032230
         H           -1.887928512015    -0.476187615548    -1.507802313231     1.007825032230
         H            1.385425487985    -0.729745615548    -1.337386313231     1.007825032230
         H            1.938056487985    -1.599921615548     0.087412686769     1.007825032230
         H            2.938209487985     0.443092384452     0.853063686769     1.007825032230
         H            2.451237487985     1.226141384452    -0.488746313231     1.007825032230

  Basis Set: AUG-CC-PVTZ
    Blend: AUG-CC-PVTZ
  Basis Set: (AUG-CC-PVTZ AUX)
    Blend: AUG-CC-PVTZ-JKFIT
	 Reference Energy          =    -289.2990813036316808 [Eh]
	 Singles Energy            =      -0.0000000000000000 [Eh]
	 Same-Spin Energy          =      -0.3135967596488503 [Eh]
	 Opposite-Spin Energy      =      -1.0992049658770204 [Eh]
	 Correlation Energy        =      -1.4128017255258707 [Eh]
	 Total Energy              =    -290.7118830291575478 [Eh]

	 ================> DF-SCS-MP2 Energies <==================
	-----------------------------------------------------------
	 SCS Same-Spin Scale       =       0.3333333333333333 [-]
	 SCS Opposite-Spin Scale   =       1.2000000000000000 [-]
	 SCS Same-Spin Energy      =      -0.1045322532162834 [Eh]
	 SCS Opposite-Spin Energy  =      -1.3190459590524244 [Eh]
	 SCS Correlation Energy    =      -1.4235782122687077 [Eh]
	 SCS Total Energy          =    -290.7226595159003750 [Eh]
	-----------------------------------------------------------

  Dipole Moment: [D]
     X:    -1.2078      Y:     0.5016      Z:     0.7976     Total:     1.5319

*** Psi4 exiting successfully. Buy a developer a beer!
