                               Psi4 1.4a3.dev225

  ==> Input File <==

--------------------------------------------------------------------------
#psi4
#
memory 32 gb

molecule  {
0 1
  N        2.7287650     0.3187530    -0.1253010
  C        0.3130830    -0.2174900     0.4662370
  C       -0.2538890     1.1369990    -0.0074850
  C       -0.8349900    -1.2410350     0.2435950
  C       -1.7711660     0.9754980     0.0985330
  C       -1.9852080    -0.4520530    -0.4054450
  C        1.6033210    -0.6099780    -0.2562360
  H        0.5371130    -0.1501040     1.5403310
  H        0.0159810     1.3028420    -1.0605530
  H        0.1335060     1.9859410     0.5654260
  H       -1.1585790    -1.6624630     1.2012770
  H       -0.5107060    -2.0839980    -0.3779040
  H       -2.3285430     1.7277130    -0.4695390
  H       -2.0833270     1.0524550     1.1475980
  H       -2.9716640    -0.8601180    -0.1627990
  H       -1.8853360    -0.4679020    -1.4974950
  H        1.3880180    -0.7214600    -1.3270790
  H        1.9406490    -1.5916360     0.0977200
  H        2.9408020     0.4513780     0.8633710
  H        2.4403421     1.2793485    -0.4957634
units angstrom
no_reorient  #important for SAPT in psi4, default
symmetry c1  #important for SAPT in psi4, default
}

set PROPERTIES_ORIGIN ["COM"]
properties('MP2/aug-cc-pvtz', properties = ['dipole'])
--------------------------------------------------------------------------

    Molecular point group: c1
  Charge       = 0
  Multiplicity = 1
  Basis Set: AUG-CC-PVTZ
    Blend: AUG-CC-PVTZ
  Basis Set: (AUG-CC-PVTZ AUX)
    Blend: AUG-CC-PVTZ-JKFIT

    Orbital Energies [Eh]
    ---------------------

    Doubly Occupied:

       1A    -15.542513     2A    -11.242621     3A    -11.219957
       4A    -11.217067     5A    -11.216563     6A    -11.216131
       7A    -11.215607     8A     -1.172467     9A     -1.116658
      10A     -0.981491    11A     -0.961075    12A     -0.862895
      13A     -0.782479    14A     -0.755772    15A     -0.664115
      16A     -0.646192    17A     -0.640254    18A     -0.580669
      19A     -0.571884    20A     -0.555927    21A     -0.516083
      22A     -0.491241    23A     -0.477976    24A     -0.468454
      25A     -0.464072    26A     -0.454868    27A     -0.444544
      28A     -0.381660

  @DF-RHF Final Energy:  -289.31931691704199

   => Energetics <=

    Nuclear Repulsion Energy =            324.7175840167492424
    One-Electron Energy =               -1034.3513356885264329
    Two-Electron Energy =                 420.3144347547352027
    Total Energy =                       -289.3193169170419878
  Basis Set: (AUG-CC-PVTZ AUX)
    Blend: AUG-CC-PVTZ-RI
    Molecular point group: c1

    Geometry (in Angstrom), charge = 0, multiplicity = 1:

       Center              X                  Y                   Z               Mass
    ------------   -----------------  -----------------  -----------------  -----------------
         N            2.713517482738     0.320459673358    -0.124701350397    14.003074004430
         C            0.297835482738    -0.215783326642     0.466836649603    12.000000000000
         C           -0.269136517262     1.138705673358    -0.006885350397    12.000000000000
         C           -0.850237517262    -1.239328326642     0.244194649603    12.000000000000
         C           -1.786413517262     0.977204673358     0.099132649603    12.000000000000
         C           -2.000455517262    -0.450346326642    -0.404845350397    12.000000000000
         C            1.588073482738    -0.608271326642    -0.255636350397    12.000000000000
         H            0.521865482738    -0.148397326642     1.540930649603     1.007825032230
         H            0.000733482738     1.304548673358    -1.059953350397     1.007825032230
         H            0.118258482738     1.987647673358     0.566025649603     1.007825032230
         H           -1.173826517262    -1.660756326642     1.201876649603     1.007825032230
         H           -0.525953517262    -2.082291326642    -0.377304350397     1.007825032230
         H           -2.343790517262     1.729419673358    -0.468939350397     1.007825032230
         H           -2.098574517262     1.054161673358     1.148197649603     1.007825032230
         H           -2.986911517262    -0.858411326642    -0.162199350397     1.007825032230
         H           -1.900583517262    -0.466195326642    -1.496895350397     1.007825032230
         H            1.372770482738    -0.719753326642    -1.326479350397     1.007825032230
         H            1.925401482738    -1.589929326642     0.098319649603     1.007825032230
         H            2.925554482738     0.453084673358     0.863970649603     1.007825032230
         H            2.425094582738     1.281055173358    -0.495163750397     1.007825032230

  Basis Set: AUG-CC-PVTZ
    Blend: AUG-CC-PVTZ
  Basis Set: (AUG-CC-PVTZ AUX)
    Blend: AUG-CC-PVTZ-JKFIT
	 Reference Energy          =    -289.3193169170419878 [Eh]
	 Singles Energy            =      -0.0000000000000000 [Eh]
	 Same-Spin Energy          =      -0.3128567229245629 [Eh]
	 Opposite-Spin Energy      =      -1.0981958376898728 [Eh]
	 Correlation Energy        =      -1.4110525606144357 [Eh]
	 Total Energy              =    -290.7303694776564384 [Eh]

	 ================> DF-SCS-MP2 Energies <==================
	-----------------------------------------------------------
	 SCS Same-Spin Scale       =       0.3333333333333333 [-]
	 SCS Opposite-Spin Scale   =       1.2000000000000000 [-]
	 SCS Same-Spin Energy      =      -0.1042855743081876 [Eh]
	 SCS Opposite-Spin Energy  =      -1.3178350052278474 [Eh]
	 SCS Correlation Energy    =      -1.4221205795360350 [Eh]
	 SCS Total Energy          =    -290.7414374965780439 [Eh]
	-----------------------------------------------------------

  Dipole Moment: [D]
     X:    -1.3090      Y:     0.4692      Z:     0.7627     Total:     1.5860

*** Psi4 exiting successfully. Buy a developer a beer!
