                               Psi4 1.4a3.dev225

  ==> Input File <==

--------------------------------------------------------------------------
#psi4
#
memory 32 gb

molecule  {
0 1
  N        2.7287650     0.3187530    -0.1253010
  C        0.4061516    -0.3150006     0.3751750
  C       -0.2538890     1.1369990    -0.0074850
  C       -0.8349900    -1.2410350     0.2435950
  C       -1.7711660     0.9754980     0.0985330
  C       -1.9852080    -0.4520530    -0.4054450
  C        1.6033210    -0.6099780    -0.2562360
  H        0.5371130    -0.1501040     1.5403310
  H        0.0159810     1.3028420    -1.0605530
  H        0.1335060     1.9859410     0.5654260
  H       -1.1585790    -1.6624630     1.2012770
  H       -0.5107060    -2.0839980    -0.3779040
  H       -2.3285430     1.7277130    -0.4695390
  H       -2.0833270     1.0524550     1.1475980
  H       -2.9716640    -0.8601180    -0.1627990
  H       -1.8853360    -0.4679020    -1.4974950
  H        1.3880180    -0.7214600    -1.3270790
  H        1.9406490    -1.5916360     0.0977200
  H        2.9408020     0.4513780     0.8633710
  H        2.4538300     1.2344270    -0.4784390
units angstrom
no_reorient  #important for SAPT in psi4, default
symmetry c1  #important for SAPT in psi4, default
}

set PROPERTIES_ORIGIN ["COM"]
properties('MP2/aug-cc-pvtz', properties = ['dipole'])
--------------------------------------------------------------------------

    Molecular point group: c1
  Charge       = 0
  Multiplicity = 1
  Basis Set: AUG-CC-PVTZ
    Blend: AUG-CC-PVTZ
  Basis Set: (AUG-CC-PVTZ AUX)
    Blend: AUG-CC-PVTZ-JKFIT

    Orbital Energies [Eh]
    ---------------------

    Doubly Occupied:

       1A    -15.539646     2A    -11.237024     3A    -11.227356
       4A    -11.220456     5A    -11.219983     6A    -11.218498
       7A    -11.217605     8A     -1.186527     9A     -1.112208
      10A     -1.003703    11A     -0.957140    12A     -0.873136
      13A     -0.781767    14A     -0.747708    15A     -0.673342
      16A     -0.648456    17A     -0.643643    18A     -0.586098
      19A     -0.574426    20A     -0.563334    21A     -0.532974
      22A     -0.500589    23A     -0.477069    24A     -0.469548
      25A     -0.464009    26A     -0.440276    27A     -0.407411
      28A     -0.397745

  @DF-RHF Final Energy:  -289.29337555566940

   => Energetics <=

    Nuclear Repulsion Energy =            325.1834209012092742
    One-Electron Energy =               -1035.1102423539498432
    Two-Electron Energy =                 420.6334458970711694
    Total Energy =                       -289.2933755556693995
  Basis Set: (AUG-CC-PVTZ AUX)
    Blend: AUG-CC-PVTZ-RI
    Molecular point group: c1

    Geometry (in Angstrom), charge = 0, multiplicity = 1:

       Center              X                  Y                   Z               Mass
    ------------   -----------------  -----------------  -----------------  -----------------
         N            2.702111207261     0.332723460977    -0.113851381049    14.003074004430
         C            0.379497807261    -0.301030139023     0.386624618951    12.000000000000
         C           -0.280542792739     1.150969460977     0.003964618951    12.000000000000
         C           -0.861643792739    -1.227064539023     0.255044618951    12.000000000000
         C           -1.797819792739     0.989468460977     0.109982618951    12.000000000000
         C           -2.011861792739    -0.438082539023    -0.393995381049    12.000000000000
         C            1.576667207261    -0.596007539023    -0.244786381049    12.000000000000
         H            0.510459207261    -0.136133539023     1.551780618951     1.007825032230
         H           -0.010672792739     1.316812460977    -1.049103381049     1.007825032230
         H            0.106852207261     1.999911460977     0.576875618951     1.007825032230
         H           -1.185232792739    -1.648492539023     1.212726618951     1.007825032230
         H           -0.537359792739    -2.070027539023    -0.366454381049     1.007825032230
         H           -2.355196792739     1.741683460977    -0.458089381049     1.007825032230
         H           -2.109980792739     1.066425460977     1.159047618951     1.007825032230
         H           -2.998317792739    -0.846147539023    -0.151349381049     1.007825032230
         H           -1.911989792739    -0.453931539023    -1.486045381049     1.007825032230
         H            1.361364207261    -0.707489539023    -1.315629381049     1.007825032230
         H            1.913995207261    -1.577665539023     0.109169618951     1.007825032230
         H            2.914148207261     0.465348460977     0.874820618951     1.007825032230
         H            2.427176207261     1.248397460977    -0.466989381049     1.007825032230

  Basis Set: AUG-CC-PVTZ
    Blend: AUG-CC-PVTZ
  Basis Set: (AUG-CC-PVTZ AUX)
    Blend: AUG-CC-PVTZ-JKFIT
	 Reference Energy          =    -289.2933755556693995 [Eh]
	 Singles Energy            =      -0.0000000000000000 [Eh]
	 Same-Spin Energy          =      -0.3140711865619492 [Eh]
	 Opposite-Spin Energy      =      -1.0997374911290698 [Eh]
	 Correlation Energy        =      -1.4138086776910190 [Eh]
	 Total Energy              =    -290.7071842333604081 [Eh]

	 ================> DF-SCS-MP2 Energies <==================
	-----------------------------------------------------------
	 SCS Same-Spin Scale       =       0.3333333333333333 [-]
	 SCS Opposite-Spin Scale   =       1.2000000000000000 [-]
	 SCS Same-Spin Energy      =      -0.1046903955206497 [Eh]
	 SCS Opposite-Spin Energy  =      -1.3196849893548837 [Eh]
	 SCS Correlation Energy    =      -1.4243753848755334 [Eh]
	 SCS Total Energy          =    -290.7177509405449314 [Eh]
	-----------------------------------------------------------

  Dipole Moment: [D]
     X:    -1.3664      Y:     0.4342      Z:     0.7021     Total:     1.5964

*** Psi4 exiting successfully. Buy a developer a beer!
