                               Psi4 1.4a3.dev225

  ==> Input File <==

--------------------------------------------------------------------------
#psi4
#
memory 32 gb

molecule  {
0 1
  N        2.7287650     0.3187530    -0.1253010
  C        0.3294972    -0.2329904     0.4512027
  C       -0.2538890     1.1369990    -0.0074850
  C       -0.8349900    -1.2410350     0.2435950
  C       -1.7711660     0.9754980     0.0985330
  C       -1.9852080    -0.4520530    -0.4054450
  C        1.6033210    -0.6099780    -0.2562360
  H        0.5371130    -0.1501040     1.5403310
  H        0.0159810     1.3028420    -1.0605530
  H        0.1335060     1.9859410     0.5654260
  H       -1.1585790    -1.6624630     1.2012770
  H       -0.5107060    -2.0839980    -0.3779040
  H       -2.3285430     1.7277130    -0.4695390
  H       -2.0833270     1.0524550     1.1475980
  H       -2.9716640    -0.8601180    -0.1627990
  H       -1.8853360    -0.4679020    -1.4974950
  H        1.3880180    -0.7214600    -1.3270790
  H        1.9406490    -1.5916360     0.0977200
  H        2.9408020     0.4513780     0.8633710
  H        2.4538300     1.2344270    -0.4784390
units angstrom
no_reorient  #important for SAPT in psi4, default
symmetry c1  #important for SAPT in psi4, default
}

set PROPERTIES_ORIGIN ["COM"]
properties('MP2/aug-cc-pvtz', properties = ['dipole'])
--------------------------------------------------------------------------

    Molecular point group: c1
  Charge       = 0
  Multiplicity = 1
  Basis Set: AUG-CC-PVTZ
    Blend: AUG-CC-PVTZ
  Basis Set: (AUG-CC-PVTZ AUX)
    Blend: AUG-CC-PVTZ-JKFIT

    Orbital Energies [Eh]
    ---------------------

    Doubly Occupied:

       1A    -15.537338     2A    -11.241546     3A    -11.220899
       4A    -11.217576     5A    -11.216959     6A    -11.216507
       7A    -11.216034     8A     -1.178568     9A     -1.116580
      10A     -0.985551    11A     -0.960299    12A     -0.866178
      13A     -0.782316    14A     -0.754502    15A     -0.668959
      16A     -0.647832    17A     -0.641830    18A     -0.581457
      19A     -0.572340    20A     -0.559209    21A     -0.520122
      22A     -0.492918    23A     -0.477688    24A     -0.468835
      25A     -0.463585    26A     -0.453508    27A     -0.439595
      28A     -0.385391

  @DF-RHF Final Energy:  -289.32198638774713

   => Energetics <=

    Nuclear Repulsion Energy =            324.9677649228408995
    One-Electron Energy =               -1034.8112611965286760
    Two-Electron Energy =                 420.5215098859407021
    Total Energy =                       -289.3219863877471312
  Basis Set: (AUG-CC-PVTZ AUX)
    Blend: AUG-CC-PVTZ-RI
    Molecular point group: c1

    Geometry (in Angstrom), charge = 0, multiplicity = 1:

       Center              X                  Y                   Z               Mass
    ------------   -----------------  -----------------  -----------------  -----------------
         N            2.711392824351     0.322793342499    -0.123057114831    14.003074004430
         C            0.312125024351    -0.228950057501     0.453446585169    12.000000000000
         C           -0.271261175649     1.141039342499    -0.005241114831    12.000000000000
         C           -0.852362175649    -1.236994657501     0.245838885169    12.000000000000
         C           -1.788538175649     0.979538342499     0.100776885169    12.000000000000
         C           -2.002580175649    -0.448012657501    -0.403201114831    12.000000000000
         C            1.585948824351    -0.605937657501    -0.253992114831    12.000000000000
         H            0.519740824351    -0.146063657501     1.542574885169     1.007825032230
         H           -0.001391175649     1.306882342499    -1.058309114831     1.007825032230
         H            0.116133824351     1.989981342499     0.567669885169     1.007825032230
         H           -1.175951175649    -1.658422657501     1.203520885169     1.007825032230
         H           -0.528078175649    -2.079957657501    -0.375660114831     1.007825032230
         H           -2.345915175649     1.731753342499    -0.467295114831     1.007825032230
         H           -2.100699175649     1.056495342499     1.149841885169     1.007825032230
         H           -2.989036175649    -0.856077657501    -0.160555114831     1.007825032230
         H           -1.902708175649    -0.463861657501    -1.495251114831     1.007825032230
         H            1.370645824351    -0.717419657501    -1.324835114831     1.007825032230
         H            1.923276824351    -1.587595657501     0.099963885169     1.007825032230
         H            2.923429824351     0.455418342499     0.865614885169     1.007825032230
         H            2.436457824351     1.238467342499    -0.476195114831     1.007825032230

  Basis Set: AUG-CC-PVTZ
    Blend: AUG-CC-PVTZ
  Basis Set: (AUG-CC-PVTZ AUX)
    Blend: AUG-CC-PVTZ-JKFIT
	 Reference Energy          =    -289.3219863877471312 [Eh]
	 Singles Energy            =      -0.0000000000000000 [Eh]
	 Same-Spin Energy          =      -0.3126710138293545 [Eh]
	 Opposite-Spin Energy      =      -1.0974214421459085 [Eh]
	 Correlation Energy        =      -1.4100924559752630 [Eh]
	 Total Energy              =    -290.7320788437223769 [Eh]

	 ================> DF-SCS-MP2 Energies <==================
	-----------------------------------------------------------
	 SCS Same-Spin Scale       =       0.3333333333333333 [-]
	 SCS Opposite-Spin Scale   =       1.2000000000000000 [-]
	 SCS Same-Spin Energy      =      -0.1042236712764515 [Eh]
	 SCS Opposite-Spin Energy  =      -1.3169057305750902 [Eh]
	 SCS Correlation Energy    =      -1.4211294018515417 [Eh]
	 SCS Total Energy          =    -290.7431157895986757 [Eh]
	-----------------------------------------------------------

  Dipole Moment: [D]
     X:    -1.3187      Y:     0.4643      Z:     0.7612     Total:     1.5918

*** Psi4 exiting successfully. Buy a developer a beer!
