                               Psi4 1.4a3.dev225

  ==> Input File <==

--------------------------------------------------------------------------
#psi4
#
memory 32 gb

molecule  {
0 1
  N        2.7287650     0.3187530    -0.1253010
  C        0.3130830    -0.2174900     0.4662370
  C       -0.2538890     1.1369990    -0.0074850
  C       -0.8349900    -1.2410350     0.2435950
  C       -1.7711660     0.9754980     0.0985330
  C       -1.9852080    -0.4520530    -0.4054450
  C        1.6033210    -0.6099780    -0.2562360
  H        0.5371130    -0.1501040     1.5403310
  H       -0.0013366     1.2697754    -1.0694990
  H        0.1335060     1.9859410     0.5654260
  H       -1.1585790    -1.6624630     1.2012770
  H       -0.5107060    -2.0839980    -0.3779040
  H       -2.3285430     1.7277130    -0.4695390
  H       -2.0833270     1.0524550     1.1475980
  H       -2.9716640    -0.8601180    -0.1627990
  H       -1.8853360    -0.4679020    -1.4974950
  H        1.3880180    -0.7214600    -1.3270790
  H        1.9406490    -1.5916360     0.0977200
  H        2.9408020     0.4513780     0.8633710
  H        2.4538300     1.2344270    -0.4784390
units angstrom
no_reorient  #important for SAPT in psi4, default
symmetry c1  #important for SAPT in psi4, default
}

set PROPERTIES_ORIGIN ["COM"]
properties('MP2/aug-cc-pvtz', properties = ['dipole'])
--------------------------------------------------------------------------

    Molecular point group: c1
  Charge       = 0
  Multiplicity = 1
  Basis Set: AUG-CC-PVTZ
    Blend: AUG-CC-PVTZ
  Basis Set: (AUG-CC-PVTZ AUX)
    Blend: AUG-CC-PVTZ-JKFIT

    Orbital Energies [Eh]
    ---------------------

    Doubly Occupied:

       1A    -15.536955     2A    -11.242375     3A    -11.219790
       4A    -11.217130     5A    -11.216603     6A    -11.216128
       7A    -11.215631     8A     -1.177318     9A     -1.117954
      10A     -0.982759    11A     -0.961115    12A     -0.864706
      13A     -0.782354    14A     -0.755482    15A     -0.668446
      16A     -0.648588    17A     -0.641178    18A     -0.580744
      19A     -0.573189    20A     -0.558311    21A     -0.518028
      22A     -0.491754    23A     -0.477993    24A     -0.467960
      25A     -0.464349    26A     -0.455117    27A     -0.444373
      28A     -0.382096

  @DF-RHF Final Energy:  -289.32259135614538

   => Energetics <=

    Nuclear Repulsion Energy =            324.9839304327976492
    One-Electron Energy =               -1034.8561893699386474
    Two-Electron Energy =                 420.5496675809955605
    Total Energy =                       -289.3225913561453808
  Basis Set: (AUG-CC-PVTZ AUX)
    Blend: AUG-CC-PVTZ-RI
    Molecular point group: c1

    Geometry (in Angstrom), charge = 0, multiplicity = 1:

       Center              X                  Y                   Z               Mass
    ------------   -----------------  -----------------  -----------------  -----------------
         N            2.713556428052     0.321252756638    -0.124786552742    14.003074004430
         C            0.297874428052    -0.214990243362     0.466751447258    12.000000000000
         C           -0.269097571948     1.139498756638    -0.006970552742    12.000000000000
         C           -0.850198571948    -1.238535243362     0.244109447258    12.000000000000
         C           -1.786374571948     0.977997756638     0.099047447258    12.000000000000
         C           -2.000416571948    -0.449553243362    -0.404930552742    12.000000000000
         C            1.588112428052    -0.607478243362    -0.255721552742    12.000000000000
         H            0.521904428052    -0.147604243362     1.540845447258     1.007825032230
         H           -0.016545171948     1.272275156638    -1.068984552742     1.007825032230
         H            0.118297428052     1.988440756638     0.565940447258     1.007825032230
         H           -1.173787571948    -1.659963243362     1.201791447258     1.007825032230
         H           -0.525914571948    -2.081498243362    -0.377389552742     1.007825032230
         H           -2.343751571948     1.730212756638    -0.469024552742     1.007825032230
         H           -2.098535571948     1.054954756638     1.148112447258     1.007825032230
         H           -2.986872571948    -0.857618243362    -0.162284552742     1.007825032230
         H           -1.900544571948    -0.465402243362    -1.496980552742     1.007825032230
         H            1.372809428052    -0.718960243362    -1.326564552742     1.007825032230
         H            1.925440428052    -1.589136243362     0.098234447258     1.007825032230
         H            2.925593428052     0.453877756638     0.863885447258     1.007825032230
         H            2.438621428052     1.236926756638    -0.477924552742     1.007825032230

  Basis Set: AUG-CC-PVTZ
    Blend: AUG-CC-PVTZ
  Basis Set: (AUG-CC-PVTZ AUX)
    Blend: AUG-CC-PVTZ-JKFIT
	 Reference Energy          =    -289.3225913561453808 [Eh]
	 Singles Energy            =      -0.0000000000000000 [Eh]
	 Same-Spin Energy          =      -0.3126496276476839 [Eh]
	 Opposite-Spin Energy      =      -1.0973865235885629 [Eh]
	 Correlation Energy        =      -1.4100361512362469 [Eh]
	 Total Energy              =    -290.7326275073816078 [Eh]

	 ================> DF-SCS-MP2 Energies <==================
	-----------------------------------------------------------
	 SCS Same-Spin Scale       =       0.3333333333333333 [-]
	 SCS Opposite-Spin Scale   =       1.2000000000000000 [-]
	 SCS Same-Spin Energy      =      -0.1042165425492280 [Eh]
	 SCS Opposite-Spin Energy  =      -1.3168638283062755 [Eh]
	 SCS Correlation Energy    =      -1.4210803708555033 [Eh]
	 SCS Total Energy          =    -290.7436717270009012 [Eh]
	-----------------------------------------------------------

  Dipole Moment: [D]
     X:    -1.3103      Y:     0.4644      Z:     0.7719     Total:     1.5901

*** Psi4 exiting successfully. Buy a developer a beer!
