                               Psi4 1.4a3.dev225

  ==> Input File <==

--------------------------------------------------------------------------
#psi4
#
memory 32 gb

molecule  {
0 1
  N        2.7287650     0.3187530    -0.1253010
  C        0.3130830    -0.2174900     0.4662370
  C       -0.2538890     1.1369990    -0.0074850
  C       -0.8349900    -1.2410350     0.2435950
  C       -1.7711660     0.9754980     0.0985330
  C       -1.9852080    -0.4520530    -0.4054450
  C        1.6033210    -0.6099780    -0.2562360
  H        0.5371130    -0.1501040     1.5403310
  H        0.0159810     1.3028420    -1.0605530
  H        0.1335060     1.9859410     0.5654260
  H       -1.2176711    -1.7394220     1.3761639
  H       -0.5107060    -2.0839980    -0.3779040
  H       -2.3285430     1.7277130    -0.4695390
  H       -2.0833270     1.0524550     1.1475980
  H       -2.9716640    -0.8601180    -0.1627990
  H       -1.8853360    -0.4679020    -1.4974950
  H        1.3880180    -0.7214600    -1.3270790
  H        1.9406490    -1.5916360     0.0977200
  H        2.9408020     0.4513780     0.8633710
  H        2.4538300     1.2344270    -0.4784390
units angstrom
no_reorient  #important for SAPT in psi4, default
symmetry c1  #important for SAPT in psi4, default
}

set PROPERTIES_ORIGIN ["COM"]
properties('MP2/aug-cc-pvtz', properties = ['dipole'])
--------------------------------------------------------------------------

    Molecular point group: c1
  Charge       = 0
  Multiplicity = 1
  Basis Set: AUG-CC-PVTZ
    Blend: AUG-CC-PVTZ
  Basis Set: (AUG-CC-PVTZ AUX)
    Blend: AUG-CC-PVTZ-JKFIT

    Orbital Energies [Eh]
    ---------------------

    Doubly Occupied:

       1A    -15.538335     2A    -11.243921     3A    -11.239784
       4A    -11.222322     5A    -11.219021     6A    -11.218441
       7A    -11.217582     8A     -1.178607     9A     -1.117985
      10A     -0.984195    11A     -0.956971    12A     -0.862946
      13A     -0.780950    14A     -0.751718    15A     -0.668010
      16A     -0.644846    17A     -0.643302    18A     -0.580103
      19A     -0.564772    20A     -0.557591    21A     -0.519404
      22A     -0.488736    23A     -0.476270    24A     -0.469761
      25A     -0.465158    26A     -0.457157    27A     -0.433998
      28A     -0.382581

  @DF-RHF Final Energy:  -289.30303100746335

   => Energetics <=

    Nuclear Repulsion Energy =            324.0519380757640988
    One-Electron Energy =               -1032.9410015334344735
    Two-Electron Energy =                 419.5860324502069716
    Total Energy =                       -289.3030310074633462
  Basis Set: (AUG-CC-PVTZ AUX)
    Blend: AUG-CC-PVTZ-RI
    Molecular point group: c1

    Geometry (in Angstrom), charge = 0, multiplicity = 1:

       Center              X                  Y                   Z               Mass
    ------------   -----------------  -----------------  -----------------  -----------------
         N            2.713981244882     0.321699110999    -0.126656002046    14.003074004430
         C            0.298299244882    -0.214543889001     0.464881997954    12.000000000000
         C           -0.268672755118     1.139945110999    -0.008840002046    12.000000000000
         C           -0.849773755118    -1.238088889001     0.242239997954    12.000000000000
         C           -1.785949755118     0.978444110999     0.097177997954    12.000000000000
         C           -1.999991755118    -0.449106889001    -0.406800002046    12.000000000000
         C            1.588537244882    -0.607031889001    -0.257591002046    12.000000000000
         H            0.522329244882    -0.147157889001     1.538975997954     1.007825032230
         H            0.001197244882     1.305788110999    -1.061908002046     1.007825032230
         H            0.118722244882     1.988887110999     0.564070997954     1.007825032230
         H           -1.232454855118    -1.736475889001     1.374808897954     1.007825032230
         H           -0.525489755118    -2.081051889001    -0.379259002046     1.007825032230
         H           -2.343326755118     1.730659110999    -0.470894002046     1.007825032230
         H           -2.098110755118     1.055401110999     1.146242997954     1.007825032230
         H           -2.986447755118    -0.857171889001    -0.164154002046     1.007825032230
         H           -1.900119755118    -0.464955889001    -1.498850002046     1.007825032230
         H            1.373234244882    -0.718513889001    -1.328434002046     1.007825032230
         H            1.925865244882    -1.588689889001     0.096364997954     1.007825032230
         H            2.926018244882     0.454324110999     0.862015997954     1.007825032230
         H            2.439046244882     1.237373110999    -0.479794002046     1.007825032230

  Basis Set: AUG-CC-PVTZ
    Blend: AUG-CC-PVTZ
  Basis Set: (AUG-CC-PVTZ AUX)
    Blend: AUG-CC-PVTZ-JKFIT
	 Reference Energy          =    -289.3030310074633462 [Eh]
	 Singles Energy            =      -0.0000000000000000 [Eh]
	 Same-Spin Energy          =      -0.3125939733728276 [Eh]
	 Opposite-Spin Energy      =      -1.0989477587759331 [Eh]
	 Correlation Energy        =      -1.4115417321487607 [Eh]
	 Total Energy              =    -290.7145727396120947 [Eh]

	 ================> DF-SCS-MP2 Energies <==================
	-----------------------------------------------------------
	 SCS Same-Spin Scale       =       0.3333333333333333 [-]
	 SCS Opposite-Spin Scale   =       1.2000000000000000 [-]
	 SCS Same-Spin Energy      =      -0.1041979911242759 [Eh]
	 SCS Opposite-Spin Energy  =      -1.3187373105311198 [Eh]
	 SCS Correlation Energy    =      -1.4229353016553956 [Eh]
	 SCS Total Energy          =    -290.7259663091187463 [Eh]
	-----------------------------------------------------------

  Dipole Moment: [D]
     X:    -1.2458      Y:     0.5878      Z:     0.6298     Total:     1.5147

*** Psi4 exiting successfully. Buy a developer a beer!
