                               Psi4 1.4a3.dev225

  ==> Input File <==

--------------------------------------------------------------------------
#psi4
#
memory 32 gb

molecule  {
0 1
  N        2.7287650     0.3187530    -0.1253010
  C        0.3130830    -0.2174900     0.4662370
  C       -0.2538890     1.1369990    -0.0074850
  C       -0.8349900    -1.2410350     0.2435950
  C       -1.7711660     0.9754980     0.0985330
  C       -1.9852080    -0.4520530    -0.4054450
  C        1.6033210    -0.6099780    -0.2562360
  H        0.5371130    -0.1501040     1.5403310
  H        0.0329699     1.3357065    -1.0503240
  H        0.1335060     1.9859410     0.5654260
  H       -1.1585790    -1.6624630     1.2012770
  H       -0.5107060    -2.0839980    -0.3779040
  H       -2.3285430     1.7277130    -0.4695390
  H       -2.0833270     1.0524550     1.1475980
  H       -2.9716640    -0.8601180    -0.1627990
  H       -1.8853360    -0.4679020    -1.4974950
  H        1.3880180    -0.7214600    -1.3270790
  H        1.9406490    -1.5916360     0.0977200
  H        2.9408020     0.4513780     0.8633710
  H        2.4538300     1.2344270    -0.4784390
units angstrom
no_reorient  #important for SAPT in psi4, default
symmetry c1  #important for SAPT in psi4, default
}

set PROPERTIES_ORIGIN ["COM"]
properties('MP2/aug-cc-pvtz', properties = ['dipole'])
--------------------------------------------------------------------------

    Molecular point group: c1
  Charge       = 0
  Multiplicity = 1
  Basis Set: AUG-CC-PVTZ
    Blend: AUG-CC-PVTZ
  Basis Set: (AUG-CC-PVTZ AUX)
    Blend: AUG-CC-PVTZ-JKFIT

    Orbital Energies [Eh]
    ---------------------

    Doubly Occupied:

       1A    -15.537046     2A    -11.242390     3A    -11.220185
       4A    -11.217193     5A    -11.216598     6A    -11.216197
       7A    -11.215639     8A     -1.177320     9A     -1.117535
      10A     -0.982775    11A     -0.961182    12A     -0.864870
      13A     -0.782697    14A     -0.756228    15A     -0.668444
      16A     -0.647621    17A     -0.641809    18A     -0.580580
      19A     -0.571355    20A     -0.558498    21A     -0.518237
      22A     -0.490830    23A     -0.478299    24A     -0.469456
      25A     -0.463596    26A     -0.454637    27A     -0.445137
      28A     -0.382164

  @DF-RHF Final Energy:  -289.32265694098214

   => Energetics <=

    Nuclear Repulsion Energy =            324.8871318041130962
    One-Electron Energy =               -1034.6625406351392940
    Two-Electron Energy =                 420.4527518900440555
    Total Energy =                       -289.3226569409821423
  Basis Set: (AUG-CC-PVTZ AUX)
    Blend: AUG-CC-PVTZ-RI
    Molecular point group: c1

    Geometry (in Angstrom), charge = 0, multiplicity = 1:

       Center              X                  Y                   Z               Mass
    ------------   -----------------  -----------------  -----------------  -----------------
         N            2.713207555447     0.320582284437    -0.124981548798    14.003074004430
         C            0.297525555447    -0.215660715563     0.466556451202    12.000000000000
         C           -0.269446444553     1.138828284437    -0.007165548798    12.000000000000
         C           -0.850547444553    -1.239205715563     0.243914451202    12.000000000000
         C           -1.786723444553     0.977327284437     0.098852451202    12.000000000000
         C           -2.000765444553    -0.450223715563    -0.405125548798    12.000000000000
         C            1.587763555447    -0.608148715563    -0.255916548798    12.000000000000
         H            0.521555555447    -0.148274715563     1.540650451202     1.007825032230
         H            0.017412455447     1.337535784437    -1.050004548798     1.007825032230
         H            0.117948555447     1.987770284437     0.565745451202     1.007825032230
         H           -1.174136444553    -1.660633715563     1.201596451202     1.007825032230
         H           -0.526263444553    -2.082168715563    -0.377584548798     1.007825032230
         H           -2.344100444553     1.729542284437    -0.469219548798     1.007825032230
         H           -2.098884444553     1.054284284437     1.147917451202     1.007825032230
         H           -2.987221444553    -0.858288715563    -0.162479548798     1.007825032230
         H           -1.900893444553    -0.466072715563    -1.497175548798     1.007825032230
         H            1.372460555447    -0.719630715563    -1.326759548798     1.007825032230
         H            1.925091555447    -1.589806715563     0.098039451202     1.007825032230
         H            2.925244555447     0.453207284437     0.863690451202     1.007825032230
         H            2.438272555447     1.236256284437    -0.478119548798     1.007825032230

  Basis Set: AUG-CC-PVTZ
    Blend: AUG-CC-PVTZ
  Basis Set: (AUG-CC-PVTZ AUX)
    Blend: AUG-CC-PVTZ-JKFIT
	 Reference Energy          =    -289.3226569409821423 [Eh]
	 Singles Energy            =      -0.0000000000000000 [Eh]
	 Same-Spin Energy          =      -0.3125678423741441 [Eh]
	 Opposite-Spin Energy      =      -1.0972672875778426 [Eh]
	 Correlation Energy        =      -1.4098351299519867 [Eh]
	 Total Energy              =    -290.7324920709341427 [Eh]

	 ================> DF-SCS-MP2 Energies <==================
	-----------------------------------------------------------
	 SCS Same-Spin Scale       =       0.3333333333333333 [-]
	 SCS Opposite-Spin Scale   =       1.2000000000000000 [-]
	 SCS Same-Spin Energy      =      -0.1041892807913814 [Eh]
	 SCS Opposite-Spin Energy  =      -1.3167207450934111 [Eh]
	 SCS Correlation Energy    =      -1.4209100258847924 [Eh]
	 SCS Total Energy          =    -290.7435669668669220 [Eh]
	-----------------------------------------------------------

  Dipole Moment: [D]
     X:    -1.3030      Y:     0.4746      Z:     0.7671     Total:     1.5848

*** Psi4 exiting successfully. Buy a developer a beer!
