                               Psi4 1.4a3.dev225

  ==> Input File <==

--------------------------------------------------------------------------
#psi4
#
memory 32 gb

molecule  {
0 1
  N        2.7287650     0.3187530    -0.1253010
  C        0.3130830    -0.2174900     0.4662370
  C       -0.2538890     1.1369990    -0.0074850
  C       -0.8349900    -1.2410350     0.2435950
  C       -1.7711660     0.9754980     0.0985330
  C       -1.9852080    -0.4520530    -0.4054450
  C        1.6033210    -0.6099780    -0.2562360
  H        0.5371130    -0.1501040     1.5403310
  H        0.0159810     1.3028420    -1.0605530
  H        0.1688848     2.0634706     0.6177471
  H       -1.1585790    -1.6624630     1.2012770
  H       -0.5107060    -2.0839980    -0.3779040
  H       -2.3285430     1.7277130    -0.4695390
  H       -2.0833270     1.0524550     1.1475980
  H       -2.9716640    -0.8601180    -0.1627990
  H       -1.8853360    -0.4679020    -1.4974950
  H        1.3880180    -0.7214600    -1.3270790
  H        1.9406490    -1.5916360     0.0977200
  H        2.9408020     0.4513780     0.8633710
  H        2.4538300     1.2344270    -0.4784390
units angstrom
no_reorient  #important for SAPT in psi4, default
symmetry c1  #important for SAPT in psi4, default
}

set PROPERTIES_ORIGIN ["COM"]
properties('MP2/aug-cc-pvtz', properties = ['dipole'])
--------------------------------------------------------------------------

    Molecular point group: c1
  Charge       = 0
  Multiplicity = 1
  Basis Set: AUG-CC-PVTZ
    Blend: AUG-CC-PVTZ
  Basis Set: (AUG-CC-PVTZ AUX)
    Blend: AUG-CC-PVTZ-JKFIT

    Orbital Energies [Eh]
    ---------------------

    Doubly Occupied:

       1A    -15.536710     2A    -11.242774     3A    -11.229143
       4A    -11.221044     5A    -11.218045     6A    -11.217296
       7A    -11.216659     8A     -1.177218     9A     -1.117963
      10A     -0.983570    11A     -0.957721    12A     -0.864005
      13A     -0.781652    14A     -0.754378    15A     -0.664559
      16A     -0.644911    17A     -0.641977    18A     -0.580971
      19A     -0.569926    20A     -0.558330    21A     -0.518652
      22A     -0.491006    23A     -0.475910    24A     -0.469001
      25A     -0.462142    26A     -0.452518    27A     -0.445934
      28A     -0.382028

  @DF-RHF Final Energy:  -289.31618530836283

   => Energetics <=

    Nuclear Repulsion Energy =            324.4717653363549630
    One-Electron Energy =               -1033.8238095905514911
    Two-Electron Energy =                 420.0358589458336382
    Total Energy =                       -289.3161853083628330
  Basis Set: (AUG-CC-PVTZ AUX)
    Blend: AUG-CC-PVTZ-RI
    Molecular point group: c1

    Geometry (in Angstrom), charge = 0, multiplicity = 1:

       Center              X                  Y                   Z               Mass
    ------------   -----------------  -----------------  -----------------  -----------------
         N            2.713020543298     0.320128072269    -0.125409595393    14.003074004430
         C            0.297338543298    -0.216114927731     0.466128404607    12.000000000000
         C           -0.269633456702     1.138374072269    -0.007593595393    12.000000000000
         C           -0.850734456702    -1.239659927731     0.243486404607    12.000000000000
         C           -1.786910456702     0.976873072269     0.098424404607    12.000000000000
         C           -2.000952456702    -0.450677927731    -0.405553595393    12.000000000000
         C            1.587576543298    -0.608602927731    -0.256344595393    12.000000000000
         H            0.521368543298    -0.148728927731     1.540222404607     1.007825032230
         H            0.000236543298     1.304217072269    -1.060661595393     1.007825032230
         H            0.153140343298     2.064845672269     0.617638504607     1.007825032230
         H           -1.174323456702    -1.661087927731     1.201168404607     1.007825032230
         H           -0.526450456702    -2.082622927731    -0.378012595393     1.007825032230
         H           -2.344287456702     1.729088072269    -0.469647595393     1.007825032230
         H           -2.099071456702     1.053830072269     1.147489404607     1.007825032230
         H           -2.987408456702    -0.858742927731    -0.162907595393     1.007825032230
         H           -1.901080456702    -0.466526927731    -1.497603595393     1.007825032230
         H            1.372273543298    -0.720084927731    -1.327187595393     1.007825032230
         H            1.924904543298    -1.590260927731     0.097611404607     1.007825032230
         H            2.925057543298     0.452753072269     0.863262404607     1.007825032230
         H            2.438085543298     1.235802072269    -0.478547595393     1.007825032230

  Basis Set: AUG-CC-PVTZ
    Blend: AUG-CC-PVTZ
  Basis Set: (AUG-CC-PVTZ AUX)
    Blend: AUG-CC-PVTZ-JKFIT
	 Reference Energy          =    -289.3161853083628330 [Eh]
	 Singles Energy            =      -0.0000000000000000 [Eh]
	 Same-Spin Energy          =      -0.3126223830843416 [Eh]
	 Opposite-Spin Energy      =      -1.0980508173269263 [Eh]
	 Correlation Energy        =      -1.4106732004112679 [Eh]
	 Total Energy              =    -290.7268585087741144 [Eh]

	 ================> DF-SCS-MP2 Energies <==================
	-----------------------------------------------------------
	 SCS Same-Spin Scale       =       0.3333333333333333 [-]
	 SCS Opposite-Spin Scale   =       1.2000000000000000 [-]
	 SCS Same-Spin Energy      =      -0.1042074610281139 [Eh]
	 SCS Opposite-Spin Energy  =      -1.3176609807923116 [Eh]
	 SCS Correlation Energy    =      -1.4218684418204255 [Eh]
	 SCS Total Energy          =    -290.7380537501832691 [Eh]
	-----------------------------------------------------------

  Dipole Moment: [D]
     X:    -1.3475      Y:     0.3963      Z:     0.7467     Total:     1.5907

*** Psi4 exiting successfully. Buy a developer a beer!
