                               Psi4 1.4a3.dev225

  ==> Input File <==

--------------------------------------------------------------------------
#psi4
#
memory 32 gb

molecule  {
0 1
  N        2.7287650     0.3187530    -0.1253010
  C        0.2412863    -0.2228701     0.3231923
  C       -0.2538890     1.1369990    -0.0074850
  C       -0.8349900    -1.2410350     0.2435950
  C       -1.7711660     0.9754980     0.0985330
  C       -1.9852080    -0.4520530    -0.4054450
  C        1.6033210    -0.6099780    -0.2562360
  H        0.5371130    -0.1501040     1.5403310
  H        0.0159810     1.3028420    -1.0605530
  H        0.1335060     1.9859410     0.5654260
  H       -1.1585790    -1.6624630     1.2012770
  H       -0.5107060    -2.0839980    -0.3779040
  H       -2.3285430     1.7277130    -0.4695390
  H       -2.0833270     1.0524550     1.1475980
  H       -2.9716640    -0.8601180    -0.1627990
  H       -1.8853360    -0.4679020    -1.4974950
  H        1.3880180    -0.7214600    -1.3270790
  H        1.9406490    -1.5916360     0.0977200
  H        2.9408020     0.4513780     0.8633710
  H        2.4538300     1.2344270    -0.4784390
units angstrom
no_reorient  #important for SAPT in psi4, default
symmetry c1  #important for SAPT in psi4, default
}

set PROPERTIES_ORIGIN ["COM"]
properties('MP2/aug-cc-pvtz', properties = ['dipole'])
--------------------------------------------------------------------------

    Molecular point group: c1
  Charge       = 0
  Multiplicity = 1
  Basis Set: AUG-CC-PVTZ
    Blend: AUG-CC-PVTZ
  Basis Set: (AUG-CC-PVTZ AUX)
    Blend: AUG-CC-PVTZ-JKFIT

    Orbital Energies [Eh]
    ---------------------

    Doubly Occupied:

       1A    -15.540128     2A    -11.244627     3A    -11.229020
       4A    -11.218239     5A    -11.217459     6A    -11.216787
       7A    -11.215760     8A     -1.180166     9A     -1.131897
      10A     -0.985309    11A     -0.970577    12A     -0.870035
      13A     -0.788207    14A     -0.740942    15A     -0.671985
      16A     -0.654345    17A     -0.648631    18A     -0.578769
      19A     -0.573389    20A     -0.559125    21A     -0.513693
      22A     -0.501361    23A     -0.495049    24A     -0.471317
      25A     -0.466437    26A     -0.464496    27A     -0.405608
      28A     -0.382836

  @DF-RHF Final Energy:  -289.29565533304503

   => Energetics <=

    Nuclear Repulsion Energy =            326.3659104770886756
    One-Electron Energy =               -1037.4507420092415941
    Two-Electron Energy =                 421.7891761991079420
    Total Energy =                       -289.2956553330450333
  Basis Set: (AUG-CC-PVTZ AUX)
    Blend: AUG-CC-PVTZ-RI
    Molecular point group: c1

    Geometry (in Angstrom), charge = 0, multiplicity = 1:

       Center              X                  Y                   Z               Mass
    ------------   -----------------  -----------------  -----------------  -----------------
         N            2.722073748041     0.321567936659    -0.107557110705    14.003074004430
         C            0.234595048041    -0.220055163341     0.340936189295    12.000000000000
         C           -0.260580251959     1.139813936659     0.010258889295    12.000000000000
         C           -0.841681251959    -1.238220063341     0.261338889295    12.000000000000
         C           -1.777857251959     0.978312936659     0.116276889295    12.000000000000
         C           -1.991899251959    -0.449238063341    -0.387701110705    12.000000000000
         C            1.596629748041    -0.607163063341    -0.238492110705    12.000000000000
         H            0.530421748041    -0.147289063341     1.558074889295     1.007825032230
         H            0.009289748041     1.305656936659    -1.042809110705     1.007825032230
         H            0.126814748041     1.988755936659     0.583169889295     1.007825032230
         H           -1.165270251959    -1.659648063341     1.219020889295     1.007825032230
         H           -0.517397251959    -2.081183063341    -0.360160110705     1.007825032230
         H           -2.335234251959     1.730527936659    -0.451795110705     1.007825032230
         H           -2.090018251959     1.055269936659     1.165341889295     1.007825032230
         H           -2.978355251959    -0.857303063341    -0.145055110705     1.007825032230
         H           -1.892027251959    -0.465087063341    -1.479751110705     1.007825032230
         H            1.381326748041    -0.718645063341    -1.309335110705     1.007825032230
         H            1.933957748041    -1.588821063341     0.115463889295     1.007825032230
         H            2.934110748041     0.454192936659     0.881114889295     1.007825032230
         H            2.447138748041     1.237241936659    -0.460695110705     1.007825032230

  Basis Set: AUG-CC-PVTZ
    Blend: AUG-CC-PVTZ
  Basis Set: (AUG-CC-PVTZ AUX)
    Blend: AUG-CC-PVTZ-JKFIT
	 Reference Energy          =    -289.2956553330450333 [Eh]
	 Singles Energy            =      -0.0000000000000000 [Eh]
	 Same-Spin Energy          =      -0.3141965322610744 [Eh]
	 Opposite-Spin Energy      =      -1.0997840990996886 [Eh]
	 Correlation Energy        =      -1.4139806313607628 [Eh]
	 Total Energy              =    -290.7096359644057770 [Eh]

	 ================> DF-SCS-MP2 Energies <==================
	-----------------------------------------------------------
	 SCS Same-Spin Scale       =       0.3333333333333333 [-]
	 SCS Opposite-Spin Scale   =       1.2000000000000000 [-]
	 SCS Same-Spin Energy      =      -0.1047321774203581 [Eh]
	 SCS Opposite-Spin Energy  =      -1.3197409189196263 [Eh]
	 SCS Correlation Energy    =      -1.4244730963399843 [Eh]
	 SCS Total Energy          =    -290.7201284293849994 [Eh]
	-----------------------------------------------------------

  Dipole Moment: [D]
     X:    -1.3535      Y:     0.4770      Z:     0.6517     Total:     1.5761

*** Psi4 exiting successfully. Buy a developer a beer!
