                               Psi4 1.4a3.dev225

  ==> Input File <==

--------------------------------------------------------------------------
#psi4
#
memory 32 gb

molecule  {
0 1
  N        2.7287650     0.3187530    -0.1253010
  C        0.3130830    -0.2174900     0.4662370
  C       -0.2538890     1.1369990    -0.0074850
  C       -0.8349900    -1.2410350     0.2435950
  C       -1.7711660     0.9754980     0.0985330
  C       -1.9852080    -0.4520530    -0.4054450
  C        1.6454872    -0.6228049    -0.2798471
  H        0.5371130    -0.1501040     1.5403310
  H        0.0159810     1.3028420    -1.0605530
  H        0.1335060     1.9859410     0.5654260
  H       -1.1585790    -1.6624630     1.2012770
  H       -0.5107060    -2.0839980    -0.3779040
  H       -2.3285430     1.7277130    -0.4695390
  H       -2.0833270     1.0524550     1.1475980
  H       -2.9716640    -0.8601180    -0.1627990
  H       -1.8853360    -0.4679020    -1.4974950
  H        1.3880180    -0.7214600    -1.3270790
  H        1.9406490    -1.5916360     0.0977200
  H        2.9408020     0.4513780     0.8633710
  H        2.4538300     1.2344270    -0.4784390
units angstrom
no_reorient  #important for SAPT in psi4, default
symmetry c1  #important for SAPT in psi4, default
}

set PROPERTIES_ORIGIN ["COM"]
properties('MP2/aug-cc-pvtz', properties = ['dipole'])
--------------------------------------------------------------------------

    Molecular point group: c1
  Charge       = 0
  Multiplicity = 1
  Basis Set: AUG-CC-PVTZ
    Blend: AUG-CC-PVTZ
  Basis Set: (AUG-CC-PVTZ AUX)
    Blend: AUG-CC-PVTZ-JKFIT

    Orbital Energies [Eh]
    ---------------------

    Doubly Occupied:

       1A    -15.536803     2A    -11.241727     3A    -11.220161
       4A    -11.216441     5A    -11.215894     6A    -11.215395
       7A    -11.214572     8A     -1.180784     9A     -1.116629
      10A     -0.976532    11A     -0.959989    12A     -0.866625
      13A     -0.781433    14A     -0.754013    15A     -0.670604
      16A     -0.648543    17A     -0.639547    18A     -0.583135
      19A     -0.570772    20A     -0.561460    21A     -0.519336
      22A     -0.492727    23A     -0.477413    24A     -0.467846
      25A     -0.463364    26A     -0.454789    27A     -0.446588
      28A     -0.373331

  @DF-RHF Final Energy:  -289.32132747050628

   => Energetics <=

    Nuclear Repulsion Energy =            324.3924668161858449
    One-Electron Energy =               -1033.6946835902392650
    Two-Electron Energy =                 419.9808893035472011
    Total Energy =                       -289.3213274705062759
  Basis Set: (AUG-CC-PVTZ AUX)
    Blend: AUG-CC-PVTZ-RI
    Molecular point group: c1

    Geometry (in Angstrom), charge = 0, multiplicity = 1:

       Center              X                  Y                   Z               Mass
    ------------   -----------------  -----------------  -----------------  -----------------
         N            2.708274670621     0.322469624575    -0.122018602059    14.003074004430
         C            0.292592670621    -0.213773375425     0.469519397941    12.000000000000
         C           -0.274379329379     1.140715624575    -0.004202602059    12.000000000000
         C           -0.855480329379    -1.237318375425     0.246877397941    12.000000000000
         C           -1.791656329379     0.979214624575     0.101815397941    12.000000000000
         C           -2.005698329379    -0.448336375425    -0.402162602059    12.000000000000
         C            1.624996870621    -0.619088275425    -0.276564702059    12.000000000000
         H            0.516622670621    -0.146387375425     1.543613397941     1.007825032230
         H           -0.004509329379     1.306558624575    -1.057270602059     1.007825032230
         H            0.113015670621     1.989657624575     0.568708397941     1.007825032230
         H           -1.179069329379    -1.658746375425     1.204559397941     1.007825032230
         H           -0.531196329379    -2.080281375425    -0.374621602059     1.007825032230
         H           -2.349033329379     1.731429624575    -0.466256602059     1.007825032230
         H           -2.103817329379     1.056171624575     1.150880397941     1.007825032230
         H           -2.992154329379    -0.856401375425    -0.159516602059     1.007825032230
         H           -1.905826329379    -0.464185375425    -1.494212602059     1.007825032230
         H            1.367527670621    -0.717743375425    -1.323796602059     1.007825032230
         H            1.920158670621    -1.587919375425     0.101002397941     1.007825032230
         H            2.920311670621     0.455094624575     0.866653397941     1.007825032230
         H            2.433339670621     1.238143624575    -0.475156602059     1.007825032230

  Basis Set: AUG-CC-PVTZ
    Blend: AUG-CC-PVTZ
  Basis Set: (AUG-CC-PVTZ AUX)
    Blend: AUG-CC-PVTZ-JKFIT
	 Reference Energy          =    -289.3213274705062759 [Eh]
	 Singles Energy            =      -0.0000000000000000 [Eh]
	 Same-Spin Energy          =      -0.3124417782084605 [Eh]
	 Opposite-Spin Energy      =      -1.0970110875271664 [Eh]
	 Correlation Energy        =      -1.4094528657356269 [Eh]
	 Total Energy              =    -290.7307803362418781 [Eh]

	 ================> DF-SCS-MP2 Energies <==================
	-----------------------------------------------------------
	 SCS Same-Spin Scale       =       0.3333333333333333 [-]
	 SCS Opposite-Spin Scale   =       1.2000000000000000 [-]
	 SCS Same-Spin Energy      =      -0.1041472594028202 [Eh]
	 SCS Opposite-Spin Energy  =      -1.3164133050325997 [Eh]
	 SCS Correlation Energy    =      -1.4205605644354198 [Eh]
	 SCS Total Energy          =    -290.7418880349417236 [Eh]
	-----------------------------------------------------------

  Dipole Moment: [D]
     X:    -1.2102      Y:     0.4671      Z:     0.7471     Total:     1.4970

*** Psi4 exiting successfully. Buy a developer a beer!
