                               Psi4 1.4a3.dev225

  ==> Input File <==

--------------------------------------------------------------------------
#psi4
#
memory 32 gb

molecule  {
0 1
  N        2.7287650     0.3187530    -0.1253010
  C        0.3130830    -0.2174900     0.4662370
  C       -0.2507549     1.1157848     0.0084133
  C       -0.8349900    -1.2410350     0.2435950
  C       -1.7711660     0.9754980     0.0985330
  C       -1.9852080    -0.4520530    -0.4054450
  C        1.6033210    -0.6099780    -0.2562360
  H        0.5371130    -0.1501040     1.5403310
  H        0.0159810     1.3028420    -1.0605530
  H        0.1335060     1.9859410     0.5654260
  H       -1.1585790    -1.6624630     1.2012770
  H       -0.5107060    -2.0839980    -0.3779040
  H       -2.3285430     1.7277130    -0.4695390
  H       -2.0833270     1.0524550     1.1475980
  H       -2.9716640    -0.8601180    -0.1627990
  H       -1.8853360    -0.4679020    -1.4974950
  H        1.3880180    -0.7214600    -1.3270790
  H        1.9406490    -1.5916360     0.0977200
  H        2.9408020     0.4513780     0.8633710
  H        2.4538300     1.2344270    -0.4784390
units angstrom
no_reorient  #important for SAPT in psi4, default
symmetry c1  #important for SAPT in psi4, default
}

set PROPERTIES_ORIGIN ["COM"]
properties('MP2/aug-cc-pvtz', properties = ['dipole'])
--------------------------------------------------------------------------

    Molecular point group: c1
  Charge       = 0
  Multiplicity = 1
  Basis Set: AUG-CC-PVTZ
    Blend: AUG-CC-PVTZ
  Basis Set: (AUG-CC-PVTZ AUX)
    Blend: AUG-CC-PVTZ-JKFIT

    Orbital Energies [Eh]
    ---------------------

    Doubly Occupied:

       1A    -15.537103     2A    -11.242673     3A    -11.219097
       4A    -11.218007     5A    -11.216840     6A    -11.216241
       7A    -11.215705     8A     -1.177909     9A     -1.119797
      10A     -0.984052    11A     -0.960870    12A     -0.865480
      13A     -0.782121    14A     -0.755522    15A     -0.668742
      16A     -0.648281    17A     -0.642851    18A     -0.580576
      19A     -0.570236    20A     -0.559038    21A     -0.519485
      22A     -0.490969    23A     -0.477459    24A     -0.466669
      25A     -0.462960    26A     -0.456484    27A     -0.446705
      28A     -0.382284

  @DF-RHF Final Energy:  -289.32179519968730

   => Energetics <=

    Nuclear Repulsion Energy =            325.2717681757782771
    One-Electron Energy =               -1035.4188112095275756
    Two-Electron Energy =                 420.8252478340619405
    Total Energy =                       -289.3217951996873012
  Basis Set: (AUG-CC-PVTZ AUX)
    Blend: AUG-CC-PVTZ-RI
    Molecular point group: c1

    Geometry (in Angstrom), charge = 0, multiplicity = 1:

       Center              X                  Y                   Z               Mass
    ------------   -----------------  -----------------  -----------------  -----------------
         N            2.713000831238     0.323485191939    -0.126802556042    14.003074004430
         C            0.297318831238    -0.212757808061     0.464735443958    12.000000000000
         C           -0.266519068762     1.120516991939     0.006911743958    12.000000000000
         C           -0.850754168762    -1.236302808061     0.242093443958    12.000000000000
         C           -1.786930168762     0.980230191939     0.097031443958    12.000000000000
         C           -2.000972168762    -0.447320808061    -0.406946556042    12.000000000000
         C            1.587556831238    -0.605245808061    -0.257737556042    12.000000000000
         H            0.521348831238    -0.145371808061     1.538829443958     1.007825032230
         H            0.000216831238     1.307574191939    -1.062054556042     1.007825032230
         H            0.117741831238     1.990673191939     0.563924443958     1.007825032230
         H           -1.174343168762    -1.657730808061     1.199775443958     1.007825032230
         H           -0.526470168762    -2.079265808061    -0.379405556042     1.007825032230
         H           -2.344307168762     1.732445191939    -0.471040556042     1.007825032230
         H           -2.099091168762     1.057187191939     1.146096443958     1.007825032230
         H           -2.987428168762    -0.855385808061    -0.164300556042     1.007825032230
         H           -1.901100168762    -0.463169808061    -1.498996556042     1.007825032230
         H            1.372253831238    -0.716727808061    -1.328580556042     1.007825032230
         H            1.924884831238    -1.586903808061     0.096218443958     1.007825032230
         H            2.925037831238     0.456110191939     0.861869443958     1.007825032230
         H            2.438065831238     1.239159191939    -0.479940556042     1.007825032230

  Basis Set: AUG-CC-PVTZ
    Blend: AUG-CC-PVTZ
  Basis Set: (AUG-CC-PVTZ AUX)
    Blend: AUG-CC-PVTZ-JKFIT
	 Reference Energy          =    -289.3217951996873012 [Eh]
	 Singles Energy            =      -0.0000000000000000 [Eh]
	 Same-Spin Energy          =      -0.3127883404286022 [Eh]
	 Opposite-Spin Energy      =      -1.0974798087146076 [Eh]
	 Correlation Energy        =      -1.4102681491432096 [Eh]
	 Total Energy              =    -290.7320633488305361 [Eh]

	 ================> DF-SCS-MP2 Energies <==================
	-----------------------------------------------------------
	 SCS Same-Spin Scale       =       0.3333333333333333 [-]
	 SCS Opposite-Spin Scale   =       1.2000000000000000 [-]
	 SCS Same-Spin Energy      =      -0.1042627801428674 [Eh]
	 SCS Opposite-Spin Energy  =      -1.3169757704575291 [Eh]
	 SCS Correlation Energy    =      -1.4212385506003964 [Eh]
	 SCS Total Energy          =    -290.7430337502876796 [Eh]
	-----------------------------------------------------------

  Dipole Moment: [D]
     X:    -1.3094      Y:     0.4668      Z:     0.7758     Total:     1.5920

*** Psi4 exiting successfully. Buy a developer a beer!
