                               Psi4 1.4a3.dev225

  ==> Input File <==

--------------------------------------------------------------------------
#psi4
#
memory 32 gb

molecule  {
0 1
  N        2.7287650     0.3187530    -0.1253010
  C        0.3130830    -0.2174900     0.4662370
  C       -0.2538890     1.1369990    -0.0074850
  C       -0.8349900    -1.2410350     0.2435950
  C       -1.8703651     0.9649391     0.1054644
  C       -1.9852080    -0.4520530    -0.4054450
  C        1.6033210    -0.6099780    -0.2562360
  H        0.5371130    -0.1501040     1.5403310
  H        0.0159810     1.3028420    -1.0605530
  H        0.1335060     1.9859410     0.5654260
  H       -1.1585790    -1.6624630     1.2012770
  H       -0.5107060    -2.0839980    -0.3779040
  H       -2.3285430     1.7277130    -0.4695390
  H       -2.0833270     1.0524550     1.1475980
  H       -2.9716640    -0.8601180    -0.1627990
  H       -1.8853360    -0.4679020    -1.4974950
  H        1.3880180    -0.7214600    -1.3270790
  H        1.9406490    -1.5916360     0.0977200
  H        2.9408020     0.4513780     0.8633710
  H        2.4538300     1.2344270    -0.4784390
units angstrom
no_reorient  #important for SAPT in psi4, default
symmetry c1  #important for SAPT in psi4, default
}

set PROPERTIES_ORIGIN ["COM"]
properties('MP2/aug-cc-pvtz', properties = ['dipole'])
--------------------------------------------------------------------------

    Molecular point group: c1
  Charge       = 0
  Multiplicity = 1
  Basis Set: AUG-CC-PVTZ
    Blend: AUG-CC-PVTZ
  Basis Set: (AUG-CC-PVTZ AUX)
    Blend: AUG-CC-PVTZ-JKFIT

    Orbital Energies [Eh]
    ---------------------

    Doubly Occupied:

       1A    -15.536583     2A    -11.242208     3A    -11.220052
       4A    -11.219443     5A    -11.216821     6A    -11.216263
       7A    -11.215503     8A     -1.176481     9A     -1.111526
      10A     -0.985796    11A     -0.952335    12A     -0.867128
      13A     -0.787912    14A     -0.753579    15A     -0.666820
      16A     -0.647589    17A     -0.640046    18A     -0.584837
      19A     -0.570489    20A     -0.558983    21A     -0.520127
      22A     -0.492294    23A     -0.482721    24A     -0.477231
      25A     -0.460414    26A     -0.447330    27A     -0.433301
      28A     -0.381656

  @DF-RHF Final Energy:  -289.31516673313911

   => Energetics <=

    Nuclear Repulsion Energy =            323.7712470987606821
    One-Electron Energy =               -1032.4418877442428766
    Two-Electron Energy =                 419.3554739123430863
    Total Energy =                       -289.3151667331391081
  Basis Set: (AUG-CC-PVTZ AUX)
    Blend: AUG-CC-PVTZ-RI
    Molecular point group: c1

    Geometry (in Angstrom), charge = 0, multiplicity = 1:

       Center              X                  Y                   Z               Mass
    ------------   -----------------  -----------------  -----------------  -----------------
         N            2.725391738713     0.322195006189    -0.125716808423    14.003074004430
         C            0.309709738713    -0.214047993811     0.465821191577    12.000000000000
         C           -0.257262261287     1.140441006189    -0.007900808423    12.000000000000
         C           -0.838363261287    -1.237592993811     0.243179191577    12.000000000000
         C           -1.873738361287     0.968381106189     0.105048591577    12.000000000000
         C           -1.988581261287    -0.448610993811    -0.405860808423    12.000000000000
         C            1.599947738713    -0.606535993811    -0.256651808423    12.000000000000
         H            0.533739738713    -0.146661993811     1.539915191577     1.007825032230
         H            0.012607738713     1.306284006189    -1.060968808423     1.007825032230
         H            0.130132738713     1.989383006189     0.565010191577     1.007825032230
         H           -1.161952261287    -1.659020993811     1.200861191577     1.007825032230
         H           -0.514079261287    -2.080555993811    -0.378319808423     1.007825032230
         H           -2.331916261287     1.731155006189    -0.469954808423     1.007825032230
         H           -2.086700261287     1.055897006189     1.147182191577     1.007825032230
         H           -2.975037261287    -0.856675993811    -0.163214808423     1.007825032230
         H           -1.888709261287    -0.464459993811    -1.497910808423     1.007825032230
         H            1.384644738713    -0.718017993811    -1.327494808423     1.007825032230
         H            1.937275738713    -1.588193993811     0.097304191577     1.007825032230
         H            2.937428738713     0.454820006189     0.862955191577     1.007825032230
         H            2.450456738713     1.237869006189    -0.478854808423     1.007825032230

  Basis Set: AUG-CC-PVTZ
    Blend: AUG-CC-PVTZ
  Basis Set: (AUG-CC-PVTZ AUX)
    Blend: AUG-CC-PVTZ-JKFIT
	 Reference Energy          =    -289.3151667331391081 [Eh]
	 Singles Energy            =      -0.0000000000000000 [Eh]
	 Same-Spin Energy          =      -0.3125423544612850 [Eh]
	 Opposite-Spin Energy      =      -1.0977175464504936 [Eh]
	 Correlation Energy        =      -1.4102599009117784 [Eh]
	 Total Energy              =    -290.7254266340509048 [Eh]

	 ================> DF-SCS-MP2 Energies <==================
	-----------------------------------------------------------
	 SCS Same-Spin Scale       =       0.3333333333333333 [-]
	 SCS Opposite-Spin Scale   =       1.2000000000000000 [-]
	 SCS Same-Spin Energy      =      -0.1041807848204283 [Eh]
	 SCS Opposite-Spin Energy  =      -1.3172610557405922 [Eh]
	 SCS Correlation Energy    =      -1.4214418405610205 [Eh]
	 SCS Total Energy          =    -290.7366085737001526 [Eh]
	-----------------------------------------------------------

  Dipole Moment: [D]
     X:    -1.3223      Y:     0.4744      Z:     0.7704     Total:     1.6022

*** Psi4 exiting successfully. Buy a developer a beer!
