                               Psi4 1.4a3.dev225

  ==> Input File <==

--------------------------------------------------------------------------
#psi4
#
memory 32 gb

molecule  {
0 1
  N        2.7287650     0.3187530    -0.1253010
  C        0.3130830    -0.2174900     0.4662370
  C       -0.2538890     1.1369990    -0.0074850
  C       -0.8349900    -1.2410350     0.2435950
  C       -1.7215664     0.9807774     0.0950673
  C       -1.9852080    -0.4520530    -0.4054450
  C        1.6033210    -0.6099780    -0.2562360
  H        0.5371130    -0.1501040     1.5403310
  H        0.0159810     1.3028420    -1.0605530
  H        0.1335060     1.9859410     0.5654260
  H       -1.1585790    -1.6624630     1.2012770
  H       -0.5107060    -2.0839980    -0.3779040
  H       -2.3285430     1.7277130    -0.4695390
  H       -2.0833270     1.0524550     1.1475980
  H       -2.9716640    -0.8601180    -0.1627990
  H       -1.8853360    -0.4679020    -1.4974950
  H        1.3880180    -0.7214600    -1.3270790
  H        1.9406490    -1.5916360     0.0977200
  H        2.9408020     0.4513780     0.8633710
  H        2.4538300     1.2344270    -0.4784390
units angstrom
no_reorient  #important for SAPT in psi4, default
symmetry c1  #important for SAPT in psi4, default
}

set PROPERTIES_ORIGIN ["COM"]
properties('MP2/aug-cc-pvtz', properties = ['dipole'])
--------------------------------------------------------------------------

    Molecular point group: c1
  Charge       = 0
  Multiplicity = 1
  Basis Set: AUG-CC-PVTZ
    Blend: AUG-CC-PVTZ
  Basis Set: (AUG-CC-PVTZ AUX)
    Blend: AUG-CC-PVTZ-JKFIT

    Orbital Energies [Eh]
    ---------------------

    Doubly Occupied:

       1A    -15.537251     2A    -11.242561     3A    -11.220300
       4A    -11.218320     5A    -11.216551     6A    -11.215464
       7A    -11.214975     8A     -1.177907     9A     -1.121778
      10A     -0.981803    11A     -0.966095    12A     -0.863497
      13A     -0.779651    14A     -0.757329    15A     -0.669571
      16A     -0.649910    17A     -0.641200    18A     -0.579058
      19A     -0.573888    20A     -0.558310    21A     -0.517306
      22A     -0.490902    23A     -0.488802    24A     -0.467800
      25A     -0.456507    26A     -0.454876    27A     -0.444123
      28A     -0.382356

  @DF-RHF Final Energy:  -289.31989504825680

   => Energetics <=

    Nuclear Repulsion Energy =            325.5319572011154037
    One-Electron Energy =               -1035.9275232546021925
    Two-Electron Energy =                 421.0756710052300491
    Total Energy =                       -289.3198950482567966
  Basis Set: (AUG-CC-PVTZ AUX)
    Blend: AUG-CC-PVTZ-RI
    Molecular point group: c1

    Geometry (in Angstrom), charge = 0, multiplicity = 1:

       Center              X                  Y                   Z               Mass
    ------------   -----------------  -----------------  -----------------  -----------------
         N            2.707374605230     0.320277242356    -0.124457886547    14.003074004430
         C            0.291692605230    -0.215965757644     0.467080113453    12.000000000000
         C           -0.275279394770     1.138523242356    -0.006641886547    12.000000000000
         C           -0.856380394770    -1.239510757644     0.244438113453    12.000000000000
         C           -1.742956794770     0.982301642356     0.095910413453    12.000000000000
         C           -2.006598394770    -0.450528757644    -0.404601886547    12.000000000000
         C            1.581930605230    -0.608453757644    -0.255392886547    12.000000000000
         H            0.515722605230    -0.148579757644     1.541174113453     1.007825032230
         H           -0.005409394770     1.304366242356    -1.059709886547     1.007825032230
         H            0.112115605230     1.987465242356     0.566269113453     1.007825032230
         H           -1.179969394770    -1.660938757644     1.202120113453     1.007825032230
         H           -0.532096394770    -2.082473757644    -0.377060886547     1.007825032230
         H           -2.349933394770     1.729237242356    -0.468695886547     1.007825032230
         H           -2.104717394770     1.053979242356     1.148441113453     1.007825032230
         H           -2.993054394770    -0.858593757644    -0.161955886547     1.007825032230
         H           -1.906726394770    -0.466377757644    -1.496651886547     1.007825032230
         H            1.366627605230    -0.719935757644    -1.326235886547     1.007825032230
         H            1.919258605230    -1.590111757644     0.098563113453     1.007825032230
         H            2.919411605230     0.452902242356     0.864214113453     1.007825032230
         H            2.432439605230     1.235951242356    -0.477595886547     1.007825032230

  Basis Set: AUG-CC-PVTZ
    Blend: AUG-CC-PVTZ
  Basis Set: (AUG-CC-PVTZ AUX)
    Blend: AUG-CC-PVTZ-JKFIT
	 Reference Energy          =    -289.3198950482567966 [Eh]
	 Singles Energy            =      -0.0000000000000000 [Eh]
	 Same-Spin Energy          =      -0.3129207156405567 [Eh]
	 Opposite-Spin Energy      =      -1.0976417632019118 [Eh]
	 Correlation Energy        =      -1.4105624788424684 [Eh]
	 Total Energy              =    -290.7304575270992473 [Eh]

	 ================> DF-SCS-MP2 Energies <==================
	-----------------------------------------------------------
	 SCS Same-Spin Scale       =       0.3333333333333333 [-]
	 SCS Opposite-Spin Scale   =       1.2000000000000000 [-]
	 SCS Same-Spin Energy      =      -0.1043069052135189 [Eh]
	 SCS Opposite-Spin Energy  =      -1.3171701158422942 [Eh]
	 SCS Correlation Energy    =      -1.4214770210558130 [Eh]
	 SCS Total Energy          =    -290.7413720693126038 [Eh]
	-----------------------------------------------------------

  Dipole Moment: [D]
     X:    -1.2879      Y:     0.4608      Z:     0.7674     Total:     1.5684

*** Psi4 exiting successfully. Buy a developer a beer!
