                               Psi4 1.4a3.dev225

  ==> Input File <==

--------------------------------------------------------------------------
#psi4
#
memory 32 gb

molecule  {
0 1
  N        2.7287650     0.3187530    -0.1253010
  C        0.3765923    -0.2813146     0.4057389
  C       -0.2538890     1.1369990    -0.0074850
  C       -0.8349900    -1.2410350     0.2435950
  C       -1.7711660     0.9754980     0.0985330
  C       -1.9852080    -0.4520530    -0.4054450
  C        1.6033210    -0.6099780    -0.2562360
  H        0.5371130    -0.1501040     1.5403310
  H        0.0159810     1.3028420    -1.0605530
  H        0.1335060     1.9859410     0.5654260
  H       -1.1585790    -1.6624630     1.2012770
  H       -0.5107060    -2.0839980    -0.3779040
  H       -2.3285430     1.7277130    -0.4695390
  H       -2.0833270     1.0524550     1.1475980
  H       -2.9716640    -0.8601180    -0.1627990
  H       -1.8853360    -0.4679020    -1.4974950
  H        1.3880180    -0.7214600    -1.3270790
  H        1.9406490    -1.5916360     0.0977200
  H        2.9408020     0.4513780     0.8633710
  H        2.4538300     1.2344270    -0.4784390
units angstrom
no_reorient  #important for SAPT in psi4, default
symmetry c1  #important for SAPT in psi4, default
}

set PROPERTIES_ORIGIN ["COM"]
properties('MP2/aug-cc-pvtz', properties = ['dipole'])
--------------------------------------------------------------------------

    Molecular point group: c1
  Charge       = 0
  Multiplicity = 1
  Basis Set: AUG-CC-PVTZ
    Blend: AUG-CC-PVTZ
  Basis Set: (AUG-CC-PVTZ AUX)
    Blend: AUG-CC-PVTZ-JKFIT

    Orbital Energies [Eh]
    ---------------------

    Doubly Occupied:

       1A    -15.538598     2A    -11.238851     3A    -11.224426
       4A    -11.219299     5A    -11.218338     6A    -11.217695
       7A    -11.217111     8A     -1.182976     9A     -1.113668
      10A     -0.995608    11A     -0.958141    12A     -0.870415
      13A     -0.781908    14A     -0.750393    15A     -0.671275
      16A     -0.647884    17A     -0.642872    18A     -0.584135
      19A     -0.573132    20A     -0.561724    21A     -0.527381
      22A     -0.497777    23A     -0.477107    24A     -0.469271
      25A     -0.463589    26A     -0.446579    27A     -0.421105
      28A     -0.393533

  @DF-RHF Final Energy:  -289.30999503747751

   => Energetics <=

    Nuclear Repulsion Energy =            325.0867444645461433
    One-Electron Energy =               -1034.9839004904829380
    Two-Electron Energy =                 420.5871609884592317
    Total Energy =                       -289.3099950374775062
  Basis Set: (AUG-CC-PVTZ AUX)
    Blend: AUG-CC-PVTZ-RI
    Molecular point group: c1

    Geometry (in Angstrom), charge = 0, multiplicity = 1:

       Center              X                  Y                   Z               Mass
    ------------   -----------------  -----------------  -----------------  -----------------
         N            2.705690363892     0.328644627234    -0.117552178610    14.003074004430
         C            0.353517663892    -0.271422972766     0.413487721390    12.000000000000
         C           -0.276963636108     1.146890627234     0.000263821390    12.000000000000
         C           -0.858064636108    -1.231143372766     0.251343821390    12.000000000000
         C           -1.794240636108     0.985389627234     0.106281821390    12.000000000000
         C           -2.008282636108    -0.442161372766    -0.397696178610    12.000000000000
         C            1.580246363892    -0.600086372766    -0.248487178610    12.000000000000
         H            0.514038363892    -0.140212372766     1.548079821390     1.007825032230
         H           -0.007093636108     1.312733627234    -1.052804178610     1.007825032230
         H            0.110431363892     1.995832627234     0.573174821390     1.007825032230
         H           -1.181653636108    -1.652571372766     1.209025821390     1.007825032230
         H           -0.533780636108    -2.074106372766    -0.370155178610     1.007825032230
         H           -2.351617636108     1.737604627234    -0.461790178610     1.007825032230
         H           -2.106401636108     1.062346627234     1.155346821390     1.007825032230
         H           -2.994738636108    -0.850226372766    -0.155050178610     1.007825032230
         H           -1.908410636108    -0.458010372766    -1.489746178610     1.007825032230
         H            1.364943363892    -0.711568372766    -1.319330178610     1.007825032230
         H            1.917574363892    -1.581744372766     0.105468821390     1.007825032230
         H            2.917727363892     0.461269627234     0.871119821390     1.007825032230
         H            2.430755363892     1.244318627234    -0.470690178610     1.007825032230

  Basis Set: AUG-CC-PVTZ
    Blend: AUG-CC-PVTZ
  Basis Set: (AUG-CC-PVTZ AUX)
    Blend: AUG-CC-PVTZ-JKFIT
	 Reference Energy          =    -289.3099950374775062 [Eh]
	 Singles Energy            =      -0.0000000000000000 [Eh]
	 Same-Spin Energy          =      -0.3132992884185865 [Eh]
	 Opposite-Spin Energy      =      -1.0984547869793200 [Eh]
	 Correlation Energy        =      -1.4117540753979063 [Eh]
	 Total Energy              =    -290.7217491128753863 [Eh]

	 ================> DF-SCS-MP2 Energies <==================
	-----------------------------------------------------------
	 SCS Same-Spin Scale       =       0.3333333333333333 [-]
	 SCS Opposite-Spin Scale   =       1.2000000000000000 [-]
	 SCS Same-Spin Energy      =      -0.1044330961395288 [Eh]
	 SCS Opposite-Spin Energy  =      -1.3181457443751838 [Eh]
	 SCS Correlation Energy    =      -1.4225788405147126 [Eh]
	 SCS Total Energy          =    -290.7325738779921949 [Eh]
	-----------------------------------------------------------

  Dipole Moment: [D]
     X:    -1.3497      Y:     0.4477      Z:     0.7301     Total:     1.5985

*** Psi4 exiting successfully. Buy a developer a beer!
