                               Psi4 1.4a3.dev225

  ==> Input File <==

--------------------------------------------------------------------------
#psi4
#
memory 32 gb

molecule  {
0 1
  N        2.7287650     0.3187530    -0.1253010
  C        0.3130830    -0.2174900     0.4662370
  C       -0.2538890     1.1369990    -0.0074850
  C       -0.8349900    -1.2410350     0.2435950
  C       -1.7711660     0.9754980     0.0985330
  C       -1.9852080    -0.4520530    -0.4054450
  C        1.6033210    -0.6099780    -0.2562360
  H        0.5371130    -0.1501040     1.5403310
  H        0.0159810     1.3028420    -1.0605530
  H        0.1335060     1.9859410     0.5654260
  H       -1.1585790    -1.6624630     1.2012770
  H       -0.4811278    -2.1608853    -0.4345914
  H       -2.3285430     1.7277130    -0.4695390
  H       -2.0833270     1.0524550     1.1475980
  H       -2.9716640    -0.8601180    -0.1627990
  H       -1.8853360    -0.4679020    -1.4974950
  H        1.3880180    -0.7214600    -1.3270790
  H        1.9406490    -1.5916360     0.0977200
  H        2.9408020     0.4513780     0.8633710
  H        2.4538300     1.2344270    -0.4784390
units angstrom
no_reorient  #important for SAPT in psi4, default
symmetry c1  #important for SAPT in psi4, default
}

set PROPERTIES_ORIGIN ["COM"]
properties('MP2/aug-cc-pvtz', properties = ['dipole'])
--------------------------------------------------------------------------

    Molecular point group: c1
  Charge       = 0
  Multiplicity = 1
  Basis Set: AUG-CC-PVTZ
    Blend: AUG-CC-PVTZ
  Basis Set: (AUG-CC-PVTZ AUX)
    Blend: AUG-CC-PVTZ-JKFIT

    Orbital Energies [Eh]
    ---------------------

    Doubly Occupied:

       1A    -15.537013     2A    -11.242371     3A    -11.227989
       4A    -11.221223     5A    -11.218059     6A    -11.217540
       7A    -11.217092     8A     -1.177384     9A     -1.117859
      10A     -0.983059    11A     -0.958198    12A     -0.864002
      13A     -0.782714    14A     -0.750727    15A     -0.668774
      16A     -0.648703    17A     -0.637920    18A     -0.580931
      19A     -0.571098    20A     -0.555125    21A     -0.518398
      22A     -0.490389    23A     -0.477311    24A     -0.469208
      25A     -0.461303    26A     -0.453776    27A     -0.444256
      28A     -0.382359

  @DF-RHF Final Energy:  -289.31619877532006

   => Energetics <=

    Nuclear Repulsion Energy =            324.4902706089029039
    One-Electron Energy =               -1033.8633733445710732
    Two-Electron Energy =                 420.0569039603481656
    Total Energy =                       -289.3161987753200606
  Basis Set: (AUG-CC-PVTZ AUX)
    Blend: AUG-CC-PVTZ-RI
    Molecular point group: c1

    Geometry (in Angstrom), charge = 0, multiplicity = 1:

       Center              X                  Y                   Z               Mass
    ------------   -----------------  -----------------  -----------------  -----------------
         N            2.713079531257     0.321698381861    -0.124301056799    14.003074004430
         C            0.297397531257    -0.214544618139     0.467236943201    12.000000000000
         C           -0.269574468743     1.139944381861    -0.006485056799    12.000000000000
         C           -0.850675468743    -1.238089618139     0.244594943201    12.000000000000
         C           -1.786851468743     0.978443381861     0.099532943201    12.000000000000
         C           -2.000893468743    -0.449107618139    -0.404445056799    12.000000000000
         C            1.587635531257    -0.607032618139    -0.255236056799    12.000000000000
         H            0.521427531257    -0.147158618139     1.541330943201     1.007825032230
         H            0.000295531257     1.305787381861    -1.059553056799     1.007825032230
         H            0.117820531257     1.988886381861     0.566425943201     1.007825032230
         H           -1.174264468743    -1.659517618139     1.202276943201     1.007825032230
         H           -0.496813268743    -2.157939918139    -0.433591456799     1.007825032230
         H           -2.344228468743     1.730658381861    -0.468539056799     1.007825032230
         H           -2.099012468743     1.055400381861     1.148597943201     1.007825032230
         H           -2.987349468743    -0.857172618139    -0.161799056799     1.007825032230
         H           -1.901021468743    -0.464956618139    -1.496495056799     1.007825032230
         H            1.372332531257    -0.718514618139    -1.326079056799     1.007825032230
         H            1.924963531257    -1.588690618139     0.098719943201     1.007825032230
         H            2.925116531257     0.454323381861     0.864370943201     1.007825032230
         H            2.438144531257     1.237372381861    -0.477439056799     1.007825032230

  Basis Set: AUG-CC-PVTZ
    Blend: AUG-CC-PVTZ
  Basis Set: (AUG-CC-PVTZ AUX)
    Blend: AUG-CC-PVTZ-JKFIT
	 Reference Energy          =    -289.3161987753200606 [Eh]
	 Singles Energy            =      -0.0000000000000000 [Eh]
	 Same-Spin Energy          =      -0.3126709368986331 [Eh]
	 Opposite-Spin Energy      =      -1.0981250398626052 [Eh]
	 Correlation Energy        =      -1.4107959767612384 [Eh]
	 Total Energy              =    -290.7269947520812821 [Eh]

	 ================> DF-SCS-MP2 Energies <==================
	-----------------------------------------------------------
	 SCS Same-Spin Scale       =       0.3333333333333333 [-]
	 SCS Opposite-Spin Scale   =       1.2000000000000000 [-]
	 SCS Same-Spin Energy      =      -0.1042236456328777 [Eh]
	 SCS Opposite-Spin Energy  =      -1.3177500478351263 [Eh]
	 SCS Correlation Energy    =      -1.4219736934680041 [Eh]
	 SCS Total Energy          =    -290.7381724687880364 [Eh]
	-----------------------------------------------------------

  Dipole Moment: [D]
     X:    -1.3247      Y:     0.5495      Z:     0.7958     Total:     1.6401

*** Psi4 exiting successfully. Buy a developer a beer!
