                               Psi4 1.4a3.dev225

  ==> Input File <==

--------------------------------------------------------------------------
#psi4
#
memory 32 gb

molecule  {
0 1
  N        2.7287650     0.3187530    -0.1253010
  C        0.3130830    -0.2174900     0.4662370
  C       -0.2538890     1.1369990    -0.0074850
  C       -0.8349900    -1.2410350     0.2435950
  C       -1.7711660     0.9754980     0.0985330
  C       -1.9852080    -0.4520530    -0.4054450
  C        1.6033210    -0.6099780    -0.2562360
  H        0.5371130    -0.1501040     1.5403310
  H        0.0159810     1.3028420    -1.0605530
  H        0.1335060     1.9859410     0.5654260
  H       -1.1746132    -1.5912973     1.2241248
  H       -0.5107060    -2.0839980    -0.3779040
  H       -2.3285430     1.7277130    -0.4695390
  H       -2.0833270     1.0524550     1.1475980
  H       -2.9716640    -0.8601180    -0.1627990
  H       -1.8853360    -0.4679020    -1.4974950
  H        1.3880180    -0.7214600    -1.3270790
  H        1.9406490    -1.5916360     0.0977200
  H        2.9408020     0.4513780     0.8633710
  H        2.4538300     1.2344270    -0.4784390
units angstrom
no_reorient  #important for SAPT in psi4, default
symmetry c1  #important for SAPT in psi4, default
}

set PROPERTIES_ORIGIN ["COM"]
properties('MP2/aug-cc-pvtz', properties = ['dipole'])
--------------------------------------------------------------------------

    Molecular point group: c1
  Charge       = 0
  Multiplicity = 1
  Basis Set: AUG-CC-PVTZ
    Blend: AUG-CC-PVTZ
  Basis Set: (AUG-CC-PVTZ AUX)
    Blend: AUG-CC-PVTZ-JKFIT

    Orbital Energies [Eh]
    ---------------------

    Doubly Occupied:

       1A    -15.536956     2A    -11.242327     3A    -11.219587
       4A    -11.217053     5A    -11.216496     6A    -11.216150
       7A    -11.215522     8A     -1.177299     9A     -1.118059
      10A     -0.982717    11A     -0.961172    12A     -0.864831
      13A     -0.782467    14A     -0.754556    15A     -0.668167
      16A     -0.648515    17A     -0.641666    18A     -0.581181
      19A     -0.573766    20A     -0.559011    21A     -0.518214
      22A     -0.492492    23A     -0.475470    24A     -0.468305
      25A     -0.464820    26A     -0.455171    27A     -0.444203
      28A     -0.381907

  @DF-RHF Final Energy:  -289.32216355689394

   => Energetics <=

    Nuclear Repulsion Energy =            325.0190105005057717
    One-Electron Energy =               -1034.9261887575235050
    Two-Electron Energy =                 420.5850147001237360
    Total Energy =                       -289.3221635568939405
  Basis Set: (AUG-CC-PVTZ AUX)
    Blend: AUG-CC-PVTZ-RI
    Molecular point group: c1

    Geometry (in Angstrom), charge = 0, multiplicity = 1:

       Center              X                  Y                   Z               Mass
    ------------   -----------------  -----------------  -----------------  -----------------
         N            2.713543376790     0.320192788587    -0.125109872982    14.003074004430
         C            0.297861376790    -0.216050211413     0.466428127018    12.000000000000
         C           -0.269110623210     1.138438788587    -0.007293872982    12.000000000000
         C           -0.850211623210    -1.239595211413     0.243786127018    12.000000000000
         C           -1.786387623210     0.976937788587     0.098724127018    12.000000000000
         C           -2.000429623210    -0.450613211413    -0.405253872982    12.000000000000
         C            1.588099376790    -0.608538211413    -0.256044872982    12.000000000000
         H            0.521891376790    -0.148664211413     1.540522127018     1.007825032230
         H            0.000759376790     1.304281788587    -1.060361872982     1.007825032230
         H            0.118284376790     1.987380788587     0.565617127018     1.007825032230
         H           -1.189834823210    -1.589857511413     1.224315927018     1.007825032230
         H           -0.525927623210    -2.082558211413    -0.377712872982     1.007825032230
         H           -2.343764623210     1.729152788587    -0.469347872982     1.007825032230
         H           -2.098548623210     1.053894788587     1.147789127018     1.007825032230
         H           -2.986885623210    -0.858678211413    -0.162607872982     1.007825032230
         H           -1.900557623210    -0.466462211413    -1.497303872982     1.007825032230
         H            1.372796376790    -0.720020211413    -1.326887872982     1.007825032230
         H            1.925427376790    -1.590196211413     0.097911127018     1.007825032230
         H            2.925580376790     0.452817788587     0.863562127018     1.007825032230
         H            2.438608376790     1.235866788587    -0.478247872982     1.007825032230

  Basis Set: AUG-CC-PVTZ
    Blend: AUG-CC-PVTZ
  Basis Set: (AUG-CC-PVTZ AUX)
    Blend: AUG-CC-PVTZ-JKFIT
	 Reference Energy          =    -289.3221635568939405 [Eh]
	 Singles Energy            =      -0.0000000000000000 [Eh]
	 Same-Spin Energy          =      -0.3126647286032119 [Eh]
	 Opposite-Spin Energy      =      -1.0974627129574848 [Eh]
	 Correlation Energy        =      -1.4101274415606966 [Eh]
	 Total Energy              =    -290.7322909984546300 [Eh]

	 ================> DF-SCS-MP2 Energies <==================
	-----------------------------------------------------------
	 SCS Same-Spin Scale       =       0.3333333333333333 [-]
	 SCS Opposite-Spin Scale   =       1.2000000000000000 [-]
	 SCS Same-Spin Energy      =      -0.1042215762010706 [Eh]
	 SCS Opposite-Spin Energy  =      -1.3169552555489816 [Eh]
	 SCS Correlation Energy    =      -1.4211768317500522 [Eh]
	 SCS Total Energy          =    -290.7433403886440146 [Eh]
	-----------------------------------------------------------

  Dipole Moment: [D]
     X:    -1.3081      Y:     0.4844      Z:     0.7668     Total:     1.5918

*** Psi4 exiting successfully. Buy a developer a beer!
