                               Psi4 1.4a3.dev225

  ==> Input File <==

--------------------------------------------------------------------------
#psi4
#
memory 32 gb

molecule  {
0 1
  N        2.7287650     0.3187530    -0.1253010
  C        0.3688559    -0.2162906     0.5572960
  C       -0.2538890     1.1369990    -0.0074850
  C       -0.8349900    -1.2410350     0.2435950
  C       -1.7711660     0.9754980     0.0985330
  C       -1.9852080    -0.4520530    -0.4054450
  C        1.6033210    -0.6099780    -0.2562360
  H        0.5371130    -0.1501040     1.5403310
  H        0.0159810     1.3028420    -1.0605530
  H        0.1335060     1.9859410     0.5654260
  H       -1.1585790    -1.6624630     1.2012770
  H       -0.5107060    -2.0839980    -0.3779040
  H       -2.3285430     1.7277130    -0.4695390
  H       -2.0833270     1.0524550     1.1475980
  H       -2.9716640    -0.8601180    -0.1627990
  H       -1.8853360    -0.4679020    -1.4974950
  H        1.3880180    -0.7214600    -1.3270790
  H        1.9406490    -1.5916360     0.0977200
  H        2.9408020     0.4513780     0.8633710
  H        2.4538300     1.2344270    -0.4784390
units angstrom
no_reorient  #important for SAPT in psi4, default
symmetry c1  #important for SAPT in psi4, default
}

set PROPERTIES_ORIGIN ["COM"]
properties('MP2/aug-cc-pvtz', properties = ['dipole'])
--------------------------------------------------------------------------

    Molecular point group: c1
  Charge       = 0
  Multiplicity = 1
  Basis Set: AUG-CC-PVTZ
    Blend: AUG-CC-PVTZ
  Basis Set: (AUG-CC-PVTZ AUX)
    Blend: AUG-CC-PVTZ-JKFIT

    Orbital Energies [Eh]
    ---------------------

    Doubly Occupied:

       1A    -15.535047     2A    -11.242780     3A    -11.218716
       4A    -11.217507     5A    -11.217008     6A    -11.216431
       7A    -11.215731     8A     -1.176411     9A     -1.109106
      10A     -0.982872    11A     -0.955823    12A     -0.862127
      13A     -0.781786    14A     -0.770268    15A     -0.665151
      16A     -0.645517    17A     -0.635929    18A     -0.587392
      19A     -0.571670    20A     -0.559036    21A     -0.520997
      22A     -0.487073    23A     -0.475276    24A     -0.471628
      25A     -0.467044    26A     -0.461337    27A     -0.430665
      28A     -0.378188

  @DF-RHF Final Energy:  -289.31024751650909

   => Energetics <=

    Nuclear Repulsion Energy =            323.8841593087605588
    One-Electron Energy =               -1032.6717860139503955
    Two-Electron Energy =                 419.4773791886807430
    Total Energy =                       -289.3102475165090937
  Basis Set: (AUG-CC-PVTZ AUX)
    Blend: AUG-CC-PVTZ-RI
    Molecular point group: c1

    Geometry (in Angstrom), charge = 0, multiplicity = 1:

       Center              X                  Y                   Z               Mass
    ------------   -----------------  -----------------  -----------------  -----------------
         N            2.706627117718     0.320771264849    -0.135903310045    14.003074004430
         C            0.346718017718    -0.214272335151     0.546693689955    12.000000000000
         C           -0.276026882282     1.139017264849    -0.018087310045    12.000000000000
         C           -0.857127882282    -1.239016735151     0.232992689955    12.000000000000
         C           -1.793303882282     0.977516264849     0.087930689955    12.000000000000
         C           -2.007345882282    -0.450034735151    -0.416047310045    12.000000000000
         C            1.581183117718    -0.607959735151    -0.266838310045    12.000000000000
         H            0.514975117718    -0.148085735151     1.529728689955     1.007825032230
         H           -0.006156882282     1.304860264849    -1.071155310045     1.007825032230
         H            0.111368117718     1.987959264849     0.554823689955     1.007825032230
         H           -1.180716882282    -1.660444735151     1.190674689955     1.007825032230
         H           -0.532843882282    -2.081979735151    -0.388506310045     1.007825032230
         H           -2.350680882282     1.729731264849    -0.480141310045     1.007825032230
         H           -2.105464882282     1.054473264849     1.136995689955     1.007825032230
         H           -2.993801882282    -0.858099735151    -0.173401310045     1.007825032230
         H           -1.907473882282    -0.465883735151    -1.508097310045     1.007825032230
         H            1.365880117718    -0.719441735151    -1.337681310045     1.007825032230
         H            1.918511117718    -1.589617735151     0.087117689955     1.007825032230
         H            2.918664117718     0.453396264849     0.852768689955     1.007825032230
         H            2.431692117718     1.236445264849    -0.489041310045     1.007825032230

  Basis Set: AUG-CC-PVTZ
    Blend: AUG-CC-PVTZ
  Basis Set: (AUG-CC-PVTZ AUX)
    Blend: AUG-CC-PVTZ-JKFIT
	 Reference Energy          =    -289.3102475165090937 [Eh]
	 Singles Energy            =      -0.0000000000000000 [Eh]
	 Same-Spin Energy          =      -0.3122376860662505 [Eh]
	 Opposite-Spin Energy      =      -1.0974727745797428 [Eh]
	 Correlation Energy        =      -1.4097104606459934 [Eh]
	 Total Energy              =    -290.7199579771551043 [Eh]

	 ================> DF-SCS-MP2 Energies <==================
	-----------------------------------------------------------
	 SCS Same-Spin Scale       =       0.3333333333333333 [-]
	 SCS Opposite-Spin Scale   =       1.2000000000000000 [-]
	 SCS Same-Spin Energy      =      -0.1040792286887501 [Eh]
	 SCS Opposite-Spin Energy  =      -1.3169673294956914 [Eh]
	 SCS Correlation Energy    =      -1.4210465581844416 [Eh]
	 SCS Total Energy          =    -290.7312940746935510 [Eh]
	-----------------------------------------------------------

  Dipole Moment: [D]
     X:    -1.2964      Y:     0.4624      Z:     0.8037     Total:     1.5938

*** Psi4 exiting successfully. Buy a developer a beer!
