                               Psi4 1.4a3.dev225

  ==> Input File <==

--------------------------------------------------------------------------
#psi4
#
memory 32 gb

molecule  {
0 1
  N        2.7287650     0.3187530    -0.1253010
  C        0.3130830    -0.2174900     0.4662370
  C       -0.2538890     1.1369990    -0.0074850
  C       -0.8349900    -1.2410350     0.2435950
  C       -1.9695642     0.9543802     0.1123959
  C       -1.9852080    -0.4520530    -0.4054450
  C        1.6033210    -0.6099780    -0.2562360
  H        0.5371130    -0.1501040     1.5403310
  H        0.0159810     1.3028420    -1.0605530
  H        0.1335060     1.9859410     0.5654260
  H       -1.1585790    -1.6624630     1.2012770
  H       -0.5107060    -2.0839980    -0.3779040
  H       -2.3285430     1.7277130    -0.4695390
  H       -2.0833270     1.0524550     1.1475980
  H       -2.9716640    -0.8601180    -0.1627990
  H       -1.8853360    -0.4679020    -1.4974950
  H        1.3880180    -0.7214600    -1.3270790
  H        1.9406490    -1.5916360     0.0977200
  H        2.9408020     0.4513780     0.8633710
  H        2.4538300     1.2344270    -0.4784390
units angstrom
no_reorient  #important for SAPT in psi4, default
symmetry c1  #important for SAPT in psi4, default
}

set PROPERTIES_ORIGIN ["COM"]
properties('MP2/aug-cc-pvtz', properties = ['dipole'])
--------------------------------------------------------------------------

    Molecular point group: c1
  Charge       = 0
  Multiplicity = 1
  Basis Set: AUG-CC-PVTZ
    Blend: AUG-CC-PVTZ
  Basis Set: (AUG-CC-PVTZ AUX)
    Blend: AUG-CC-PVTZ-JKFIT

    Orbital Energies [Eh]
    ---------------------

    Doubly Occupied:

       1A    -15.536278     2A    -11.242252     3A    -11.222090
       4A    -11.219723     5A    -11.218038     6A    -11.217568
       7A    -11.217109     8A     -1.175965     9A     -1.107124
      10A     -0.989083    11A     -0.945782    12A     -0.869178
      13A     -0.792720    14A     -0.752192    15A     -0.665928
      16A     -0.650893    17A     -0.636133    18A     -0.589289
      19A     -0.570410    20A     -0.559638    21A     -0.522004
      22A     -0.494094    23A     -0.491009    24A     -0.485393
      25A     -0.458335    26A     -0.446278    27A     -0.404169
      28A     -0.380821

  @DF-RHF Final Energy:  -289.29462461440255

   => Energetics <=

    Nuclear Repulsion Energy =            322.6211965353256232
    One-Electron Energy =               -1030.1126497253233083
    Two-Electron Energy =                 418.1968285755950774
    Total Energy =                       -289.2946246144025508
  Basis Set: (AUG-CC-PVTZ AUX)
    Blend: AUG-CC-PVTZ-RI
    Molecular point group: c1

    Geometry (in Angstrom), charge = 0, multiplicity = 1:

       Center              X                  Y                   Z               Mass
    ------------   -----------------  -----------------  -----------------  -----------------
         N            2.737403156999     0.323473519447    -0.126556101782    14.003074004430
         C            0.321721156999    -0.212769480553     0.464981898218    12.000000000000
         C           -0.245250843001     1.141719519447    -0.008740101782    12.000000000000
         C           -0.826351843001    -1.236314480553     0.242339898218    12.000000000000
         C           -1.960926043001     0.959100719447     0.111140798218    12.000000000000
         C           -1.976569843001    -0.447332480553    -0.406700101782    12.000000000000
         C            1.611959156999    -0.605257480553    -0.257491101782    12.000000000000
         H            0.545751156999    -0.145383480553     1.539075898218     1.007825032230
         H            0.024619156999     1.307562519447    -1.061808101782     1.007825032230
         H            0.142144156999     1.990661519447     0.564170898218     1.007825032230
         H           -1.149940843001    -1.657742480553     1.200021898218     1.007825032230
         H           -0.502067843001    -2.079277480553    -0.379159101782     1.007825032230
         H           -2.319904843001     1.732433519447    -0.470794101782     1.007825032230
         H           -2.074688843001     1.057175519447     1.146342898218     1.007825032230
         H           -2.963025843001    -0.855397480553    -0.164054101782     1.007825032230
         H           -1.876697843001    -0.463181480553    -1.498750101782     1.007825032230
         H            1.396656156999    -0.716739480553    -1.328334101782     1.007825032230
         H            1.949287156999    -1.586915480553     0.096464898218     1.007825032230
         H            2.949440156999     0.456098519447     0.862115898218     1.007825032230
         H            2.462468156999     1.239147519447    -0.479694101782     1.007825032230

  Basis Set: AUG-CC-PVTZ
    Blend: AUG-CC-PVTZ
  Basis Set: (AUG-CC-PVTZ AUX)
    Blend: AUG-CC-PVTZ-JKFIT
	 Reference Energy          =    -289.2946246144025508 [Eh]
	 Singles Energy            =      -0.0000000000000000 [Eh]
	 Same-Spin Energy          =      -0.3131641005499801 [Eh]
	 Opposite-Spin Energy      =      -1.0994238431110701 [Eh]
	 Correlation Energy        =      -1.4125879436610502 [Eh]
	 Total Energy              =    -290.7072125580635884 [Eh]

	 ================> DF-SCS-MP2 Energies <==================
	-----------------------------------------------------------
	 SCS Same-Spin Scale       =       0.3333333333333333 [-]
	 SCS Opposite-Spin Scale   =       1.2000000000000000 [-]
	 SCS Same-Spin Energy      =      -0.1043880335166600 [Eh]
	 SCS Opposite-Spin Energy  =      -1.3193086117332842 [Eh]
	 SCS Correlation Energy    =      -1.4236966452499442 [Eh]
	 SCS Total Energy          =    -290.7183212596524982 [Eh]
	-----------------------------------------------------------

  Dipole Moment: [D]
     X:    -1.3058      Y:     0.4637      Z:     0.7681     Total:     1.5843

*** Psi4 exiting successfully. Buy a developer a beer!
