                               Psi4 1.4a3.dev225

  ==> Input File <==

--------------------------------------------------------------------------
#psi4
#
memory 32 gb

molecule  {
0 1
  N        2.7287650     0.3187530    -0.1253010
  C        0.3130830    -0.2174900     0.4662370
  C       -0.2538890     1.1369990    -0.0074850
  C       -0.8349900    -1.2410350     0.2435950
  C       -1.7711660     0.9754980     0.0985330
  C       -1.9852080    -0.4520530    -0.4054450
  C        1.6033210    -0.6099780    -0.2562360
  H        0.5371130    -0.1501040     1.5403310
  H        0.0159810     1.3028420    -1.0605530
  H        0.1335060     1.9859410     0.5654260
  H       -1.1585790    -1.6624630     1.2012770
  H       -0.4959169    -2.1224417    -0.4062477
  H       -2.3285430     1.7277130    -0.4695390
  H       -2.0833270     1.0524550     1.1475980
  H       -2.9716640    -0.8601180    -0.1627990
  H       -1.8853360    -0.4679020    -1.4974950
  H        1.3880180    -0.7214600    -1.3270790
  H        1.9406490    -1.5916360     0.0977200
  H        2.9408020     0.4513780     0.8633710
  H        2.4538300     1.2344270    -0.4784390
units angstrom
no_reorient  #important for SAPT in psi4, default
symmetry c1  #important for SAPT in psi4, default
}

set PROPERTIES_ORIGIN ["COM"]
properties('MP2/aug-cc-pvtz', properties = ['dipole'])
--------------------------------------------------------------------------

    Molecular point group: c1
  Charge       = 0
  Multiplicity = 1
  Basis Set: AUG-CC-PVTZ
    Blend: AUG-CC-PVTZ
  Basis Set: (AUG-CC-PVTZ AUX)
    Blend: AUG-CC-PVTZ-JKFIT

    Orbital Energies [Eh]
    ---------------------

    Doubly Occupied:

       1A    -15.536999     2A    -11.242371     3A    -11.222065
       4A    -11.220513     5A    -11.217562     6A    -11.217028
       7A    -11.216512     8A     -1.177337     9A     -1.117720
      10A     -0.982854    11A     -0.959478    12A     -0.864321
      13A     -0.782526    14A     -0.753086    15A     -0.668574
      16A     -0.648348    17A     -0.639593    18A     -0.580756
      19A     -0.571592    20A     -0.556796    21A     -0.518244
      22A     -0.490688    23A     -0.477576    24A     -0.468882
      25A     -0.462681    26A     -0.454614    27A     -0.444698
      28A     -0.382236

  @DF-RHF Final Energy:  -289.32061047212824

   => Energetics <=

    Nuclear Repulsion Energy =            324.7064913189689719
    One-Electron Energy =               -1034.3029004209372488
    Two-Electron Energy =                 420.2757986298399828
    Total Energy =                       -289.3206104721282372
  Basis Set: (AUG-CC-PVTZ AUX)
    Blend: AUG-CC-PVTZ-RI
    Molecular point group: c1

    Geometry (in Angstrom), charge = 0, multiplicity = 1:

       Center              X                  Y                   Z               Mass
    ------------   -----------------  -----------------  -----------------  -----------------
         N            2.713229925842     0.321307437905    -0.124589291986    14.003074004430
         C            0.297547925842    -0.214935562095     0.466948708014    12.000000000000
         C           -0.269424074158     1.139553437905    -0.006773291986    12.000000000000
         C           -0.850525074158    -1.238480562095     0.244306708014    12.000000000000
         C           -1.786701074158     0.978052437905     0.099244708014    12.000000000000
         C           -2.000743074158    -0.449498562095    -0.404733291986    12.000000000000
         C            1.587785925842    -0.607423562095    -0.255524291986    12.000000000000
         H            0.521577925842    -0.147549562095     1.541042708014     1.007825032230
         H            0.000445925842     1.305396437905    -1.059841291986     1.007825032230
         H            0.117970925842     1.988495437905     0.566137708014     1.007825032230
         H           -1.174114074158    -1.659908562095     1.201988708014     1.007825032230
         H           -0.511451974158    -2.119887262095    -0.405535991986     1.007825032230
         H           -2.344078074158     1.730267437905    -0.468827291986     1.007825032230
         H           -2.098862074158     1.055009437905     1.148309708014     1.007825032230
         H           -2.987199074158    -0.857563562095    -0.162087291986     1.007825032230
         H           -1.900871074158    -0.465347562095    -1.496783291986     1.007825032230
         H            1.372482925842    -0.718905562095    -1.326367291986     1.007825032230
         H            1.925113925842    -1.589081562095     0.098431708014     1.007825032230
         H            2.925266925842     0.453932437905     0.864082708014     1.007825032230
         H            2.438294925842     1.236981437905    -0.477727291986     1.007825032230

  Basis Set: AUG-CC-PVTZ
    Blend: AUG-CC-PVTZ
  Basis Set: (AUG-CC-PVTZ AUX)
    Blend: AUG-CC-PVTZ-JKFIT
	 Reference Energy          =    -289.3206104721282372 [Eh]
	 Singles Energy            =      -0.0000000000000000 [Eh]
	 Same-Spin Energy          =      -0.3126353128395383 [Eh]
	 Opposite-Spin Energy      =      -1.0977026151572531 [Eh]
	 Correlation Energy        =      -1.4103379279967914 [Eh]
	 Total Energy              =    -290.7309484001250439 [Eh]

	 ================> DF-SCS-MP2 Energies <==================
	-----------------------------------------------------------
	 SCS Same-Spin Scale       =       0.3333333333333333 [-]
	 SCS Opposite-Spin Scale   =       1.2000000000000000 [-]
	 SCS Same-Spin Energy      =      -0.1042117709465128 [Eh]
	 SCS Opposite-Spin Energy  =      -1.3172431381887038 [Eh]
	 SCS Correlation Energy    =      -1.4214549091352164 [Eh]
	 SCS Total Energy          =    -290.7420653812634441 [Eh]
	-----------------------------------------------------------

  Dipole Moment: [D]
     X:    -1.3153      Y:     0.5073      Z:     0.7816     Total:     1.6119

*** Psi4 exiting successfully. Buy a developer a beer!
