                               Psi4 1.4a3.dev225

  ==> Input File <==

--------------------------------------------------------------------------
#psi4
#
memory 32 gb

molecule  {
0 1
  N        2.7287650     0.3187530    -0.1253010
  C        0.3130830    -0.2174900     0.4662370
  C       -0.2538890     1.1369990    -0.0074850
  C       -0.8349900    -1.2410350     0.2435950
  C       -1.7711660     0.9754980     0.0985330
  C       -1.9852080    -0.4520530    -0.4054450
  C        1.6033210    -0.6099780    -0.2562360
  H        0.5371130    -0.1501040     1.5403310
  H        0.0159810     1.3028420    -1.0605530
  H        0.1335060     1.9859410     0.5654260
  H       -1.1667982    -1.6271153     1.2132916
  H       -0.5107060    -2.0839980    -0.3779040
  H       -2.3285430     1.7277130    -0.4695390
  H       -2.0833270     1.0524550     1.1475980
  H       -2.9716640    -0.8601180    -0.1627990
  H       -1.8853360    -0.4679020    -1.4974950
  H        1.3880180    -0.7214600    -1.3270790
  H        1.9406490    -1.5916360     0.0977200
  H        2.9408020     0.4513780     0.8633710
  H        2.4538300     1.2344270    -0.4784390
units angstrom
no_reorient  #important for SAPT in psi4, default
symmetry c1  #important for SAPT in psi4, default
}

set PROPERTIES_ORIGIN ["COM"]
properties('MP2/aug-cc-pvtz', properties = ['dipole'])
--------------------------------------------------------------------------

    Molecular point group: c1
  Charge       = 0
  Multiplicity = 1
  Basis Set: AUG-CC-PVTZ
    Blend: AUG-CC-PVTZ
  Basis Set: (AUG-CC-PVTZ AUX)
    Blend: AUG-CC-PVTZ-JKFIT

    Orbital Energies [Eh]
    ---------------------

    Doubly Occupied:

       1A    -15.536978     2A    -11.242357     3A    -11.219778
       4A    -11.217084     5A    -11.216546     6A    -11.216134
       7A    -11.215605     8A     -1.177307     9A     -1.117884
      10A     -0.982738    11A     -0.961144    12A     -0.864802
      13A     -0.782479    14A     -0.755190    15A     -0.668290
      16A     -0.648227    17A     -0.641612    18A     -0.580897
      19A     -0.573057    20A     -0.558730    21A     -0.518171
      22A     -0.491868    23A     -0.476714    24A     -0.468522
      25A     -0.464464    26A     -0.455043    27A     -0.444608
      28A     -0.382028

  @DF-RHF Final Energy:  -289.32261675217308

   => Energetics <=

    Nuclear Repulsion Energy =            324.9755854483470330
    One-Electron Energy =               -1034.8398953717687618
    Two-Electron Energy =                 420.5416931712486530
    Total Energy =                       -289.3226167521730758
  Basis Set: (AUG-CC-PVTZ AUX)
    Blend: AUG-CC-PVTZ-RI
    Molecular point group: c1

    Geometry (in Angstrom), charge = 0, multiplicity = 1:

       Center              X                  Y                   Z               Mass
    ------------   -----------------  -----------------  -----------------  -----------------
         N            2.713463903821     0.320557032066    -0.124999707074    14.003074004430
         C            0.297781903821    -0.215685967934     0.466538292926    12.000000000000
         C           -0.269190096179     1.138803032066    -0.007183707074    12.000000000000
         C           -0.850291096179    -1.239230967934     0.243896292926    12.000000000000
         C           -1.786467096179     0.977302032066     0.098834292926    12.000000000000
         C           -2.000509096179    -0.450248967934    -0.405143707074    12.000000000000
         C            1.588019903821    -0.608173967934    -0.255934707074    12.000000000000
         H            0.521811903821    -0.148299967934     1.540632292926     1.007825032230
         H            0.000679903821     1.304646032066    -1.060251707074     1.007825032230
         H            0.118204903821     1.987745032066     0.565727292926     1.007825032230
         H           -1.182099296179    -1.625311267934     1.213592892926     1.007825032230
         H           -0.526007096179    -2.082193967934    -0.377602707074     1.007825032230
         H           -2.343844096179     1.729517032066    -0.469237707074     1.007825032230
         H           -2.098628096179     1.054259032066     1.147899292926     1.007825032230
         H           -2.986965096179    -0.858313967934    -0.162497707074     1.007825032230
         H           -1.900637096179    -0.466097967934    -1.497193707074     1.007825032230
         H            1.372716903821    -0.719655967934    -1.326777707074     1.007825032230
         H            1.925347903821    -1.589831967934     0.098021292926     1.007825032230
         H            2.925500903821     0.453182032066     0.863672292926     1.007825032230
         H            2.438528903821     1.236231032066    -0.478137707074     1.007825032230

  Basis Set: AUG-CC-PVTZ
    Blend: AUG-CC-PVTZ
  Basis Set: (AUG-CC-PVTZ AUX)
    Blend: AUG-CC-PVTZ-JKFIT
	 Reference Energy          =    -289.3226167521730758 [Eh]
	 Singles Energy            =      -0.0000000000000000 [Eh]
	 Same-Spin Energy          =      -0.3126253623237126 [Eh]
	 Opposite-Spin Energy      =      -1.0973798274933619 [Eh]
	 Correlation Energy        =      -1.4100051898170745 [Eh]
	 Total Energy              =    -290.7326219419901463 [Eh]

	 ================> DF-SCS-MP2 Energies <==================
	-----------------------------------------------------------
	 SCS Same-Spin Scale       =       0.3333333333333333 [-]
	 SCS Opposite-Spin Scale   =       1.2000000000000000 [-]
	 SCS Same-Spin Energy      =      -0.1042084541079042 [Eh]
	 SCS Opposite-Spin Energy  =      -1.3168557929920344 [Eh]
	 SCS Correlation Energy    =      -1.4210642470999386 [Eh]
	 SCS Total Energy          =    -290.7436809992730105 [Eh]
	-----------------------------------------------------------

  Dipole Moment: [D]
     X:    -1.3075      Y:     0.4769      Z:     0.7684     Total:     1.5898

*** Psi4 exiting successfully. Buy a developer a beer!
