                               Psi4 1.4a3.dev225

  ==> Input File <==

--------------------------------------------------------------------------
#psi4
#
memory 32 gb

molecule  {
0 1
  N        2.7287650     0.3187530    -0.1253010
  C        0.3130830    -0.2174900     0.4662370
  C       -0.2538890     1.1369990    -0.0074850
  C       -0.9827358    -1.3727553     0.2149431
  C       -1.7711660     0.9754980     0.0985330
  C       -1.9852080    -0.4520530    -0.4054450
  C        1.6033210    -0.6099780    -0.2562360
  H        0.5371130    -0.1501040     1.5403310
  H        0.0159810     1.3028420    -1.0605530
  H        0.1335060     1.9859410     0.5654260
  H       -1.1585790    -1.6624630     1.2012770
  H       -0.5107060    -2.0839980    -0.3779040
  H       -2.3285430     1.7277130    -0.4695390
  H       -2.0833270     1.0524550     1.1475980
  H       -2.9716640    -0.8601180    -0.1627990
  H       -1.8853360    -0.4679020    -1.4974950
  H        1.3880180    -0.7214600    -1.3270790
  H        1.9406490    -1.5916360     0.0977200
  H        2.9408020     0.4513780     0.8633710
  H        2.4538300     1.2344270    -0.4784390
units angstrom
no_reorient  #important for SAPT in psi4, default
symmetry c1  #important for SAPT in psi4, default
}

set PROPERTIES_ORIGIN ["COM"]
properties('MP2/aug-cc-pvtz', properties = ['dipole'])
--------------------------------------------------------------------------

    Molecular point group: c1
  Charge       = 0
  Multiplicity = 1
  Basis Set: AUG-CC-PVTZ
    Blend: AUG-CC-PVTZ
  Basis Set: (AUG-CC-PVTZ AUX)
    Blend: AUG-CC-PVTZ-JKFIT

    Orbital Energies [Eh]
    ---------------------

    Doubly Occupied:

       1A    -15.536486     2A    -11.241378     3A    -11.225290
       4A    -11.218660     5A    -11.216610     6A    -11.216397
       7A    -11.215458     8A     -1.174899     9A     -1.109195
      10A     -0.977895    11A     -0.966299    12A     -0.863106
      13A     -0.783657    14A     -0.758841    15A     -0.664487
      16A     -0.649924    17A     -0.636822    18A     -0.589460
      19A     -0.577883    20A     -0.557374    21A     -0.517437
      22A     -0.502137    23A     -0.488970    24A     -0.471042
      25A     -0.466206    26A     -0.450137    27A     -0.415419
      28A     -0.370023

  @DF-RHF Final Energy:  -289.29617489926778

   => Energetics <=

    Nuclear Repulsion Energy =            322.4759027739630142
    One-Electron Energy =               -1029.8211697259325774
    Two-Electron Energy =                 418.0490920527017238
    Total Energy =                       -289.2961748992677826
  Basis Set: (AUG-CC-PVTZ AUX)
    Blend: AUG-CC-PVTZ-RI
    Molecular point group: c1

    Geometry (in Angstrom), charge = 0, multiplicity = 1:

       Center              X                  Y                   Z               Mass
    ------------   -----------------  -----------------  -----------------  -----------------
         N            2.731269964625     0.336865706382    -0.121408242113    14.003074004430
         C            0.315587964625    -0.199377293618     0.470129757887    12.000000000000
         C           -0.251384035375     1.155111706382    -0.003592242113    12.000000000000
         C           -0.980230835375    -1.354642593618     0.218835857887    12.000000000000
         C           -1.768661035375     0.993610706382     0.102425757887    12.000000000000
         C           -1.982703035375    -0.433940293618    -0.401552242113    12.000000000000
         C            1.605825964625    -0.591865293618    -0.252343242113    12.000000000000
         H            0.539617964625    -0.131991293618     1.544223757887     1.007825032230
         H            0.018485964625     1.320954706382    -1.056660242113     1.007825032230
         H            0.136010964625     2.004053706382     0.569318757887     1.007825032230
         H           -1.156074035375    -1.644350293618     1.205169757887     1.007825032230
         H           -0.508201035375    -2.065885293618    -0.374011242113     1.007825032230
         H           -2.326038035375     1.745825706382    -0.465646242113     1.007825032230
         H           -2.080822035375     1.070567706382     1.151490757887     1.007825032230
         H           -2.969159035375    -0.842005293618    -0.158906242113     1.007825032230
         H           -1.882831035375    -0.449789293618    -1.493602242113     1.007825032230
         H            1.390522964625    -0.703347293618    -1.323186242113     1.007825032230
         H            1.943153964625    -1.573523293618     0.101612757887     1.007825032230
         H            2.943306964625     0.469490706382     0.867263757887     1.007825032230
         H            2.456334964625     1.252539706382    -0.474546242113     1.007825032230

  Basis Set: AUG-CC-PVTZ
    Blend: AUG-CC-PVTZ
  Basis Set: (AUG-CC-PVTZ AUX)
    Blend: AUG-CC-PVTZ-JKFIT
	 Reference Energy          =    -289.2961748992677826 [Eh]
	 Singles Energy            =      -0.0000000000000000 [Eh]
	 Same-Spin Energy          =      -0.3132696524813934 [Eh]
	 Opposite-Spin Energy      =      -1.0992286706011525 [Eh]
	 Correlation Energy        =      -1.4124983230825459 [Eh]
	 Total Energy              =    -290.7086732223503418 [Eh]

	 ================> DF-SCS-MP2 Energies <==================
	-----------------------------------------------------------
	 SCS Same-Spin Scale       =       0.3333333333333333 [-]
	 SCS Opposite-Spin Scale   =       1.2000000000000000 [-]
	 SCS Same-Spin Energy      =      -0.1044232174937978 [Eh]
	 SCS Opposite-Spin Energy  =      -1.3190744047213829 [Eh]
	 SCS Correlation Energy    =      -1.4234976222151807 [Eh]
	 SCS Total Energy          =    -290.7196725214829485 [Eh]
	-----------------------------------------------------------

  Dipole Moment: [D]
     X:    -1.2680      Y:     0.5060      Z:     0.7666     Total:     1.5657

*** Psi4 exiting successfully. Buy a developer a beer!
