                               Psi4 1.4a3.dev225

  ==> Input File <==

--------------------------------------------------------------------------
#psi4
#
memory 32 gb

molecule  {
0 1
  N        2.7287650     0.3187530    -0.1253010
  C        0.3130830    -0.2174900     0.4662370
  C       -0.2538890     1.1369990    -0.0074850
  C       -0.8349900    -1.2410350     0.2435950
  C       -1.7711660     0.9754980     0.0985330
  C       -1.9852080    -0.4520530    -0.4054450
  C        1.6033210    -0.6099780    -0.2562360
  H        0.5371130    -0.1501040     1.5403310
  H        0.0159810     1.3028420    -1.0605530
  H        0.1335060     1.9859410     0.5654260
  H       -1.0994869    -1.5855040     1.0263901
  H       -0.5107060    -2.0839980    -0.3779040
  H       -2.3285430     1.7277130    -0.4695390
  H       -2.0833270     1.0524550     1.1475980
  H       -2.9716640    -0.8601180    -0.1627990
  H       -1.8853360    -0.4679020    -1.4974950
  H        1.3880180    -0.7214600    -1.3270790
  H        1.9406490    -1.5916360     0.0977200
  H        2.9408020     0.4513780     0.8633710
  H        2.4538300     1.2344270    -0.4784390
units angstrom
no_reorient  #important for SAPT in psi4, default
symmetry c1  #important for SAPT in psi4, default
}

set PROPERTIES_ORIGIN ["COM"]
properties('MP2/aug-cc-pvtz', properties = ['dipole'])
--------------------------------------------------------------------------

    Molecular point group: c1
  Charge       = 0
  Multiplicity = 1
  Basis Set: AUG-CC-PVTZ
    Blend: AUG-CC-PVTZ
  Basis Set: (AUG-CC-PVTZ AUX)
    Blend: AUG-CC-PVTZ-JKFIT

    Orbital Energies [Eh]
    ---------------------

    Doubly Occupied:

       1A    -15.536243     2A    -11.241571     3A    -11.218721
       4A    -11.216465     5A    -11.215848     6A    -11.214561
       7A    -11.190242     8A     -1.176818     9A     -1.120468
      10A     -0.983919    11A     -0.971821    12A     -0.870273
      13A     -0.789554    14A     -0.762304    15A     -0.671540
      16A     -0.652727    17A     -0.640438    18A     -0.589392
      19A     -0.575939    20A     -0.558060    21A     -0.517699
      22A     -0.497450    23A     -0.478505    24A     -0.468422
      25A     -0.463321    26A     -0.453908    27A     -0.449296
      28A     -0.381865

  @DF-RHF Final Energy:  -289.28957019773219

   => Energetics <=

    Nuclear Repulsion Energy =            326.0431267923837595
    One-Electron Energy =               -1036.8506507362292268
    Two-Electron Energy =                 421.5179537461132782
    Total Energy =                       -289.2895701977321892
  Basis Set: (AUG-CC-PVTZ AUX)
    Blend: AUG-CC-PVTZ-RI
    Molecular point group: c1

    Geometry (in Angstrom), charge = 0, multiplicity = 1:

       Center              X                  Y                   Z               Mass
    ------------   -----------------  -----------------  -----------------  -----------------
         N            2.712779395972     0.320133874863    -0.123099052299    14.003074004430
         C            0.297097395972    -0.216109125137     0.468438947701    12.000000000000
         C           -0.269874604028     1.138379874863    -0.005283052299    12.000000000000
         C           -0.850975604028    -1.239654125137     0.245796947701    12.000000000000
         C           -1.787151604028     0.976878874863     0.100734947701    12.000000000000
         C           -2.001193604028    -0.450672125137    -0.403243052299    12.000000000000
         C            1.587335395972    -0.608597125137    -0.254034052299    12.000000000000
         H            0.521127395972    -0.148723125137     1.542532947701     1.007825032230
         H           -0.000004604028     1.304222874863    -1.058351052299     1.007825032230
         H            0.117520395972     1.987321874863     0.567627947701     1.007825032230
         H           -1.115472504028    -1.584123125137     1.028592047701     1.007825032230
         H           -0.526691604028    -2.082617125137    -0.375702052299     1.007825032230
         H           -2.344528604028     1.729093874863    -0.467337052299     1.007825032230
         H           -2.099312604028     1.053835874863     1.149799947701     1.007825032230
         H           -2.987649604028    -0.858737125137    -0.160597052299     1.007825032230
         H           -1.901321604028    -0.466521125137    -1.495293052299     1.007825032230
         H            1.372032395972    -0.720079125137    -1.324877052299     1.007825032230
         H            1.924663395972    -1.590255125137     0.099921947701     1.007825032230
         H            2.924816395972     0.452758874863     0.865572947701     1.007825032230
         H            2.437844395972     1.235807874863    -0.476237052299     1.007825032230

  Basis Set: AUG-CC-PVTZ
    Blend: AUG-CC-PVTZ
  Basis Set: (AUG-CC-PVTZ AUX)
    Blend: AUG-CC-PVTZ-JKFIT
	 Reference Energy          =    -289.2895701977321892 [Eh]
	 Singles Energy            =      -0.0000000000000000 [Eh]
	 Same-Spin Energy          =      -0.3126696547499639 [Eh]
	 Opposite-Spin Energy      =      -1.0965156448240592 [Eh]
	 Correlation Energy        =      -1.4091852995740231 [Eh]
	 Total Energy              =    -290.6987554973061947 [Eh]

	 ================> DF-SCS-MP2 Energies <==================
	-----------------------------------------------------------
	 SCS Same-Spin Scale       =       0.3333333333333333 [-]
	 SCS Opposite-Spin Scale   =       1.2000000000000000 [-]
	 SCS Same-Spin Energy      =      -0.1042232182499880 [Eh]
	 SCS Opposite-Spin Energy  =      -1.3158187737888709 [Eh]
	 SCS Correlation Energy    =      -1.4200419920388589 [Eh]
	 SCS Total Energy          =    -290.7096121897710645 [Eh]
	-----------------------------------------------------------

  Dipole Moment: [D]
     X:    -1.3395      Y:     0.4001      Z:     0.8420     Total:     1.6320

*** Psi4 exiting successfully. Buy a developer a beer!
