                               Psi4 1.4a3.dev225

  ==> Input File <==

--------------------------------------------------------------------------
#psi4
#
memory 32 gb

molecule  {
0 1
  N        2.7287650     0.3187530    -0.1253010
  C        0.3130830    -0.2174900     0.4662370
  C       -0.2480839     1.0945279     0.0243391
  C       -0.8349900    -1.2410350     0.2435950
  C       -1.7711660     0.9754980     0.0985330
  C       -1.9852080    -0.4520530    -0.4054450
  C        1.6033210    -0.6099780    -0.2562360
  H        0.5371130    -0.1501040     1.5403310
  H        0.0159810     1.3028420    -1.0605530
  H        0.1335060     1.9859410     0.5654260
  H       -1.1585790    -1.6624630     1.2012770
  H       -0.5107060    -2.0839980    -0.3779040
  H       -2.3285430     1.7277130    -0.4695390
  H       -2.0833270     1.0524550     1.1475980
  H       -2.9716640    -0.8601180    -0.1627990
  H       -1.8853360    -0.4679020    -1.4974950
  H        1.3880180    -0.7214600    -1.3270790
  H        1.9406490    -1.5916360     0.0977200
  H        2.9408020     0.4513780     0.8633710
  H        2.4538300     1.2344270    -0.4784390
units angstrom
no_reorient  #important for SAPT in psi4, default
symmetry c1  #important for SAPT in psi4, default
}

set PROPERTIES_ORIGIN ["COM"]
properties('MP2/aug-cc-pvtz', properties = ['dipole'])
--------------------------------------------------------------------------

    Molecular point group: c1
  Charge       = 0
  Multiplicity = 1
  Basis Set: AUG-CC-PVTZ
    Blend: AUG-CC-PVTZ
  Basis Set: (AUG-CC-PVTZ AUX)
    Blend: AUG-CC-PVTZ-JKFIT

    Orbital Energies [Eh]
    ---------------------

    Doubly Occupied:

       1A    -15.537210     2A    -11.242999     3A    -11.219486
       4A    -11.217941     5A    -11.216995     6A    -11.216354
       7A    -11.215769     8A     -1.178570     9A     -1.122018
      10A     -0.985555    11A     -0.960569    12A     -0.866281
      13A     -0.782022    14A     -0.754942    15A     -0.669068
      16A     -0.648729    17A     -0.644066    18A     -0.580639
      19A     -0.568459    20A     -0.559633    21A     -0.521159
      22A     -0.491044    23A     -0.477035    24A     -0.464698
      25A     -0.464094    26A     -0.456827    27A     -0.446076
      28A     -0.382388

  @DF-RHF Final Energy:  -289.31936958331022

   => Energetics <=

    Nuclear Repulsion Energy =            325.6121442886505406
    One-Electron Energy =               -1036.0817769056068300
    Two-Electron Energy =                 421.1502630336460129
    Total Energy =                       -289.3193695833102197
  Basis Set: (AUG-CC-PVTZ AUX)
    Blend: AUG-CC-PVTZ-RI
    Molecular point group: c1

    Geometry (in Angstrom), charge = 0, multiplicity = 1:

       Center              X                  Y                   Z               Mass
    ------------   -----------------  -----------------  -----------------  -----------------
         N            2.712677416023     0.326059061232    -0.128730914720    14.003074004430
         C            0.296995416023    -0.210183938768     0.462807085280    12.000000000000
         C           -0.264171483977     1.101833961232     0.020909185280    12.000000000000
         C           -0.851077583977    -1.233728938768     0.240165085280    12.000000000000
         C           -1.787253583977     0.982804061232     0.095103085280    12.000000000000
         C           -2.001295583977    -0.444746938768    -0.408874914720    12.000000000000
         C            1.587233416023    -0.602671938768    -0.259665914720    12.000000000000
         H            0.521025416023    -0.142797938768     1.536901085280     1.007825032230
         H           -0.000106583977     1.310148061232    -1.063982914720     1.007825032230
         H            0.117418416023     1.993247061232     0.561996085280     1.007825032230
         H           -1.174666583977    -1.655156938768     1.197847085280     1.007825032230
         H           -0.526793583977    -2.076691938768    -0.381333914720     1.007825032230
         H           -2.344630583977     1.735019061232    -0.472968914720     1.007825032230
         H           -2.099414583977     1.059761061232     1.144168085280     1.007825032230
         H           -2.987751583977    -0.852811938768    -0.166228914720     1.007825032230
         H           -1.901423583977    -0.460595938768    -1.500924914720     1.007825032230
         H            1.371930416023    -0.714153938768    -1.330508914720     1.007825032230
         H            1.924561416023    -1.584329938768     0.094290085280     1.007825032230
         H            2.924714416023     0.458684061232     0.859941085280     1.007825032230
         H            2.437742416023     1.241733061232    -0.481868914720     1.007825032230

  Basis Set: AUG-CC-PVTZ
    Blend: AUG-CC-PVTZ
  Basis Set: (AUG-CC-PVTZ AUX)
    Blend: AUG-CC-PVTZ-JKFIT
	 Reference Energy          =    -289.3193695833102197 [Eh]
	 Singles Energy            =      -0.0000000000000000 [Eh]
	 Same-Spin Energy          =      -0.3130310430265206 [Eh]
	 Opposite-Spin Energy      =      -1.0977404751112221 [Eh]
	 Correlation Energy        =      -1.4107715181377427 [Eh]
	 Total Energy              =    -290.7301411014479413 [Eh]

	 ================> DF-SCS-MP2 Energies <==================
	-----------------------------------------------------------
	 SCS Same-Spin Scale       =       0.3333333333333333 [-]
	 SCS Opposite-Spin Scale   =       1.2000000000000000 [-]
	 SCS Same-Spin Energy      =      -0.1043436810088402 [Eh]
	 SCS Opposite-Spin Energy  =      -1.3172885701334665 [Eh]
	 SCS Correlation Energy    =      -1.4216322511423067 [Eh]
	 SCS Total Energy          =    -290.7410018344525042 [Eh]
	-----------------------------------------------------------

  Dipole Moment: [D]
     X:    -1.3126      Y:     0.4618      Z:     0.7838     Total:     1.5971

*** Psi4 exiting successfully. Buy a developer a beer!
