                               Psi4 1.4a3.dev225

  ==> Input File <==

--------------------------------------------------------------------------
#psi4
#
memory 32 gb

molecule  {
0 1
  N        2.7287650     0.3187530    -0.1253010
  C        0.3130830    -0.2174900     0.4662370
  C       -0.2538890     1.1369990    -0.0074850
  C       -0.8349900    -1.2410350     0.2435950
  C       -1.7711660     0.9754980     0.0985330
  C       -1.9852080    -0.4520530    -0.4054450
  C        1.5611548    -0.5971511    -0.2326249
  H        0.5371130    -0.1501040     1.5403310
  H        0.0159810     1.3028420    -1.0605530
  H        0.1335060     1.9859410     0.5654260
  H       -1.1585790    -1.6624630     1.2012770
  H       -0.5107060    -2.0839980    -0.3779040
  H       -2.3285430     1.7277130    -0.4695390
  H       -2.0833270     1.0524550     1.1475980
  H       -2.9716640    -0.8601180    -0.1627990
  H       -1.8853360    -0.4679020    -1.4974950
  H        1.3880180    -0.7214600    -1.3270790
  H        1.9406490    -1.5916360     0.0977200
  H        2.9408020     0.4513780     0.8633710
  H        2.4538300     1.2344270    -0.4784390
units angstrom
no_reorient  #important for SAPT in psi4, default
symmetry c1  #important for SAPT in psi4, default
}

set PROPERTIES_ORIGIN ["COM"]
properties('MP2/aug-cc-pvtz', properties = ['dipole'])
--------------------------------------------------------------------------

    Molecular point group: c1
  Charge       = 0
  Multiplicity = 1
  Basis Set: AUG-CC-PVTZ
    Blend: AUG-CC-PVTZ
  Basis Set: (AUG-CC-PVTZ AUX)
    Blend: AUG-CC-PVTZ-JKFIT

    Orbital Energies [Eh]
    ---------------------

    Doubly Occupied:

       1A    -15.537432     2A    -11.243699     3A    -11.219302
       4A    -11.217831     5A    -11.217378     6A    -11.217046
       7A    -11.216545     8A     -1.174603     9A     -1.118655
      10A     -0.989825    11A     -0.962293    12A     -0.863198
      13A     -0.783628    14A     -0.757433    15A     -0.667217
      16A     -0.647011    17A     -0.643830    18A     -0.581433
      19A     -0.573710    20A     -0.553484    21A     -0.518095
      22A     -0.489234    23A     -0.478410    24A     -0.469694
      25A     -0.464831    26A     -0.454408    27A     -0.441522
      28A     -0.389534

  @DF-RHF Final Energy:  -289.31952670396254

   => Energetics <=

    Nuclear Repulsion Energy =            325.4963692759424703
    One-Electron Energy =               -1035.8492278334570074
    Two-Electron Energy =                 421.0333318535519993
    Total Energy =                       -289.3195267039625378
  Basis Set: (AUG-CC-PVTZ AUX)
    Blend: AUG-CC-PVTZ-RI
    Molecular point group: c1

    Geometry (in Angstrom), charge = 0, multiplicity = 1:

       Center              X                  Y                   Z               Mass
    ------------   -----------------  -----------------  -----------------  -----------------
         N            2.718485970234     0.319363361288    -0.127736452287    14.003074004430
         C            0.302803970234    -0.216879638712     0.463801547713    12.000000000000
         C           -0.264168029766     1.137609361288    -0.009920452287    12.000000000000
         C           -0.845269029766    -1.240424638712     0.241159547713    12.000000000000
         C           -1.781445029766     0.976108361288     0.096097547713    12.000000000000
         C           -1.995487029766    -0.451442638712    -0.407880452287    12.000000000000
         C            1.550875770234    -0.596540738712    -0.235060352287    12.000000000000
         H            0.526833970234    -0.149493638712     1.537895547713     1.007825032230
         H            0.005701970234     1.303452361288    -1.062988452287     1.007825032230
         H            0.123226970234     1.986551361288     0.562990547713     1.007825032230
         H           -1.168858029766    -1.661852638712     1.198841547713     1.007825032230
         H           -0.520985029766    -2.083387638712    -0.380339452287     1.007825032230
         H           -2.338822029766     1.728323361288    -0.471974452287     1.007825032230
         H           -2.093606029766     1.053065361288     1.145162547713     1.007825032230
         H           -2.981943029766    -0.859507638712    -0.165234452287     1.007825032230
         H           -1.895615029766    -0.467291638712    -1.499930452287     1.007825032230
         H            1.377738970234    -0.720849638712    -1.329514452287     1.007825032230
         H            1.930369970234    -1.591025638712     0.095284547713     1.007825032230
         H            2.930522970234     0.451988361288     0.860935547713     1.007825032230
         H            2.443550970234     1.235037361288    -0.480874452287     1.007825032230

  Basis Set: AUG-CC-PVTZ
    Blend: AUG-CC-PVTZ
  Basis Set: (AUG-CC-PVTZ AUX)
    Blend: AUG-CC-PVTZ-JKFIT
	 Reference Energy          =    -289.3195267039625378 [Eh]
	 Singles Energy            =      -0.0000000000000000 [Eh]
	 Same-Spin Energy          =      -0.3129953058193831 [Eh]
	 Opposite-Spin Energy      =      -1.0980154653253069 [Eh]
	 Correlation Energy        =      -1.4110107711446900 [Eh]
	 Total Energy              =    -290.7305374751072122 [Eh]

	 ================> DF-SCS-MP2 Energies <==================
	-----------------------------------------------------------
	 SCS Same-Spin Scale       =       0.3333333333333333 [-]
	 SCS Opposite-Spin Scale   =       1.2000000000000000 [-]
	 SCS Same-Spin Energy      =      -0.1043317686064610 [Eh]
	 SCS Opposite-Spin Energy  =      -1.3176185583903683 [Eh]
	 SCS Correlation Energy    =      -1.4219503269968294 [Eh]
	 SCS Total Energy          =    -290.7414770309593450 [Eh]
	-----------------------------------------------------------

  Dipole Moment: [D]
     X:    -1.3996      Y:     0.4762      Z:     0.7923     Total:     1.6774

*** Psi4 exiting successfully. Buy a developer a beer!
