                               Psi4 1.4a3.dev225

  ==> Input File <==

--------------------------------------------------------------------------
#psi4
#
memory 32 gb

molecule  {
0 1
  N        2.7287650     0.3187530    -0.1253010
  C        0.3130830    -0.2174900     0.4662370
  C       -0.2538890     1.1369990    -0.0074850
  C       -0.8349900    -1.2410350     0.2435950
  C       -1.7711660     0.9754980     0.0985330
  C       -1.9852080    -0.4520530    -0.4054450
  C        1.6033210    -0.6099780    -0.2562360
  H        0.5371130    -0.1501040     1.5403310
  H        0.0159810     1.3028420    -1.0605530
  H        0.1335060     1.9859410     0.5654260
  H       -1.1644882    -1.6701589     1.2187657
  H       -0.5107060    -2.0839980    -0.3779040
  H       -2.3285430     1.7277130    -0.4695390
  H       -2.0833270     1.0524550     1.1475980
  H       -2.9716640    -0.8601180    -0.1627990
  H       -1.8853360    -0.4679020    -1.4974950
  H        1.3880180    -0.7214600    -1.3270790
  H        1.9406490    -1.5916360     0.0977200
  H        2.9408020     0.4513780     0.8633710
  H        2.4538300     1.2344270    -0.4784390
units angstrom
no_reorient  #important for SAPT in psi4, default
symmetry c1  #important for SAPT in psi4, default
}

set PROPERTIES_ORIGIN ["COM"]
properties('MP2/aug-cc-pvtz', properties = ['dipole'])
--------------------------------------------------------------------------

    Molecular point group: c1
  Charge       = 0
  Multiplicity = 1
  Basis Set: AUG-CC-PVTZ
    Blend: AUG-CC-PVTZ
  Basis Set: (AUG-CC-PVTZ AUX)
    Blend: AUG-CC-PVTZ-JKFIT

    Orbital Energies [Eh]
    ---------------------

    Doubly Occupied:

       1A    -15.537106     2A    -11.242503     3A    -11.220190
       4A    -11.218367     5A    -11.217230     6A    -11.216695
       7A    -11.216162     8A     -1.177411     9A     -1.117645
      10A     -0.982841    11A     -0.960451    12A     -0.864453
      13A     -0.782168    14A     -0.755269    15A     -0.668271
      16A     -0.647615    17A     -0.641667    18A     -0.580334
      19A     -0.571480    20A     -0.558428    21A     -0.518217
      22A     -0.490754    23A     -0.477925    24A     -0.468766
      25A     -0.464219    26A     -0.455087    27A     -0.444073
      28A     -0.382176

  @DF-RHF Final Energy:  -289.32224298342010

   => Energetics <=

    Nuclear Repulsion Energy =            324.8378227604267181
    One-Electron Energy =               -1034.5651292450916117
    Two-Electron Energy =                 420.4050635012448538
    Total Energy =                       -289.3222429834200966
  Basis Set: (AUG-CC-PVTZ AUX)
    Blend: AUG-CC-PVTZ-RI
    Molecular point group: c1

    Geometry (in Angstrom), charge = 0, multiplicity = 1:

       Center              X                  Y                   Z               Mass
    ------------   -----------------  -----------------  -----------------  -----------------
         N            2.713440412771     0.320994754738    -0.125055374762    14.003074004430
         C            0.297758412771    -0.215248245262     0.466482625238    12.000000000000
         C           -0.269213587229     1.139240754738    -0.007239374762    12.000000000000
         C           -0.850314587229    -1.238793245262     0.243840625238    12.000000000000
         C           -1.786490587229     0.977739754738     0.098778625238    12.000000000000
         C           -2.000532587229    -0.449811245262    -0.405199374762    12.000000000000
         C            1.587996412771    -0.607736245262    -0.255990374762    12.000000000000
         H            0.521788412771    -0.147862245262     1.540576625238     1.007825032230
         H            0.000656412771     1.305083754738    -1.060307374762     1.007825032230
         H            0.118181412771     1.988182754738     0.565671625238     1.007825032230
         H           -1.179812787229    -1.667917145262     1.219011325238     1.007825032230
         H           -0.526030587229    -2.081756245262    -0.377658374762     1.007825032230
         H           -2.343867587229     1.729954754738    -0.469293374762     1.007825032230
         H           -2.098651587229     1.054696754738     1.147843625238     1.007825032230
         H           -2.986988587229    -0.857876245262    -0.162553374762     1.007825032230
         H           -1.900660587229    -0.465660245262    -1.497249374762     1.007825032230
         H            1.372693412771    -0.719218245262    -1.326833374762     1.007825032230
         H            1.925324412771    -1.589394245262     0.097965625238     1.007825032230
         H            2.925477412771     0.453619754738     0.863616625238     1.007825032230
         H            2.438505412771     1.236668754738    -0.478193374762     1.007825032230

  Basis Set: AUG-CC-PVTZ
    Blend: AUG-CC-PVTZ
  Basis Set: (AUG-CC-PVTZ AUX)
    Blend: AUG-CC-PVTZ-JKFIT
	 Reference Energy          =    -289.3222429834200966 [Eh]
	 Singles Energy            =      -0.0000000000000000 [Eh]
	 Same-Spin Energy          =      -0.3126013458158656 [Eh]
	 Opposite-Spin Energy      =      -1.0974582759314542 [Eh]
	 Correlation Energy        =      -1.4100596217473198 [Eh]
	 Total Energy              =    -290.7323026051674333 [Eh]

	 ================> DF-SCS-MP2 Energies <==================
	-----------------------------------------------------------
	 SCS Same-Spin Scale       =       0.3333333333333333 [-]
	 SCS Opposite-Spin Scale   =       1.2000000000000000 [-]
	 SCS Same-Spin Energy      =      -0.1042004486052885 [Eh]
	 SCS Opposite-Spin Energy  =      -1.3169499311177451 [Eh]
	 SCS Correlation Energy    =      -1.4211503797230336 [Eh]
	 SCS Total Energy          =    -290.7433933631431273 [Eh]
	-----------------------------------------------------------

  Dipole Moment: [D]
     X:    -1.3018      Y:     0.4791      Z:     0.7582     Total:     1.5809

*** Psi4 exiting successfully. Buy a developer a beer!
