                               Psi4 1.4a3.dev225

  ==> Input File <==

--------------------------------------------------------------------------
#psi4
#
memory 32 gb

molecule  {
0 1
  N        2.7287650     0.3187530    -0.1253010
  C        0.3130830    -0.2174900     0.4662370
  C       -0.2538890     1.1369990    -0.0074850
  C       -0.8349900    -1.2410350     0.2435950
  C       -1.7711660     0.9754980     0.0985330
  C       -1.9852080    -0.4520530    -0.4054450
  C        1.6033210    -0.6099780    -0.2562360
  H        0.5371130    -0.1501040     1.5403310
  H        0.0159810     1.3028420    -1.0605530
  H        0.1335060     1.9859410     0.5654260
  H       -1.1585790    -1.6624630     1.2012770
  H       -0.5107060    -2.0839980    -0.3779040
  H       -2.3285430     1.7277130    -0.4695390
  H       -2.0833270     1.0524550     1.1475980
  H       -2.9716640    -0.8601180    -0.1627990
  H       -1.8807828    -0.4686246    -1.5472820
  H        1.3880180    -0.7214600    -1.3270790
  H        1.9406490    -1.5916360     0.0977200
  H        2.9408020     0.4513780     0.8633710
  H        2.4538300     1.2344270    -0.4784390
units angstrom
no_reorient  #important for SAPT in psi4, default
symmetry c1  #important for SAPT in psi4, default
}

set PROPERTIES_ORIGIN ["COM"]
properties('MP2/aug-cc-pvtz', properties = ['dipole'])
--------------------------------------------------------------------------

    Molecular point group: c1
  Charge       = 0
  Multiplicity = 1
  Basis Set: AUG-CC-PVTZ
    Blend: AUG-CC-PVTZ
  Basis Set: (AUG-CC-PVTZ AUX)
    Blend: AUG-CC-PVTZ-JKFIT

    Orbital Energies [Eh]
    ---------------------

    Doubly Occupied:

       1A    -15.537069     2A    -11.242448     3A    -11.222499
       4A    -11.220198     5A    -11.217483     6A    -11.216794
       7A    -11.216410     8A     -1.177382     9A     -1.117408
      10A     -0.982245    11A     -0.960522    12A     -0.864575
      13A     -0.779335    14A     -0.755587    15A     -0.668594
      16A     -0.647958    17A     -0.640726    18A     -0.580303
      19A     -0.569532    20A     -0.558539    21A     -0.518117
      22A     -0.491288    23A     -0.478222    24A     -0.468960
      25A     -0.462379    26A     -0.454706    27A     -0.443677
      28A     -0.382249

  @DF-RHF Final Energy:  -289.32072247035728

   => Energetics <=

    Nuclear Repulsion Energy =            324.7135780882105109
    One-Electron Energy =               -1034.3181818825974005
    Two-Electron Energy =                 420.2838813240296076
    Total Energy =                       -289.3207224703572820
  Basis Set: (AUG-CC-PVTZ AUX)
    Blend: AUG-CC-PVTZ-RI
    Molecular point group: c1

    Geometry (in Angstrom), charge = 0, multiplicity = 1:

       Center              X                  Y                   Z               Mass
    ------------   -----------------  -----------------  -----------------  -----------------
         N            2.713334017635     0.320923841257    -0.124371228939    14.003074004430
         C            0.297652017635    -0.215319158743     0.467166771061    12.000000000000
         C           -0.269319982365     1.139169841257    -0.006555228939    12.000000000000
         C           -0.850420982365    -1.238864158743     0.244524771061    12.000000000000
         C           -1.786596982365     0.977668841257     0.099462771061    12.000000000000
         C           -2.000638982365    -0.449882158743    -0.404515228939    12.000000000000
         C            1.587890017635    -0.607807158743    -0.255306228939    12.000000000000
         H            0.521682017635    -0.147933158743     1.541260771061     1.007825032230
         H            0.000550017635     1.305012841257    -1.059623228939     1.007825032230
         H            0.118075017635     1.988111841257     0.566355771061     1.007825032230
         H           -1.174009982365    -1.660292158743     1.202206771061     1.007825032230
         H           -0.526136982365    -2.081827158743    -0.376974228939     1.007825032230
         H           -2.343973982365     1.729883841257    -0.468609228939     1.007825032230
         H           -2.098757982365     1.054625841257     1.148527771061     1.007825032230
         H           -2.987094982365    -0.857947158743    -0.161869228939     1.007825032230
         H           -1.896213782365    -0.466453758743    -1.546352228939     1.007825032230
         H            1.372587017635    -0.719289158743    -1.326149228939     1.007825032230
         H            1.925218017635    -1.589465158743     0.098649771061     1.007825032230
         H            2.925371017635     0.453548841257     0.864300771061     1.007825032230
         H            2.438399017635     1.236597841257    -0.477509228939     1.007825032230

  Basis Set: AUG-CC-PVTZ
    Blend: AUG-CC-PVTZ
  Basis Set: (AUG-CC-PVTZ AUX)
    Blend: AUG-CC-PVTZ-JKFIT
	 Reference Energy          =    -289.3207224703572820 [Eh]
	 Singles Energy            =      -0.0000000000000000 [Eh]
	 Same-Spin Energy          =      -0.3125993204394569 [Eh]
	 Opposite-Spin Energy      =      -1.0976489995605383 [Eh]
	 Correlation Energy        =      -1.4102483199999951 [Eh]
	 Total Energy              =    -290.7309707903572757 [Eh]

	 ================> DF-SCS-MP2 Energies <==================
	-----------------------------------------------------------
	 SCS Same-Spin Scale       =       0.3333333333333333 [-]
	 SCS Opposite-Spin Scale   =       1.2000000000000000 [-]
	 SCS Same-Spin Energy      =      -0.1041997734798190 [Eh]
	 SCS Opposite-Spin Energy  =      -1.3171787994726458 [Eh]
	 SCS Correlation Energy    =      -1.4213785729524648 [Eh]
	 SCS Total Energy          =    -290.7421010433097308 [Eh]
	-----------------------------------------------------------

  Dipole Moment: [D]
     X:    -1.3010      Y:     0.4726      Z:     0.8073     Total:     1.6024

*** Psi4 exiting successfully. Buy a developer a beer!
