                               Psi4 1.4a3.dev225

  ==> Input File <==

--------------------------------------------------------------------------
#psi4
#
memory 32 gb

molecule  {
0 1
  N        2.7287650     0.3187530    -0.1253010
  C        0.3130830    -0.2174900     0.4662370
  C       -0.2538890     1.1369990    -0.0074850
  C       -0.8349900    -1.2410350     0.2435950
  C       -1.7711660     0.9754980     0.0985330
  C       -1.9852080    -0.4520530    -0.4054450
  C        1.6033210    -0.6099780    -0.2562360
  H        0.5371130    -0.1501040     1.5403310
  H        0.0159810     1.3028420    -1.0605530
  H        0.0981272     1.9084114     0.5131049
  H       -1.1585790    -1.6624630     1.2012770
  H       -0.5107060    -2.0839980    -0.3779040
  H       -2.3285430     1.7277130    -0.4695390
  H       -2.0833270     1.0524550     1.1475980
  H       -2.9716640    -0.8601180    -0.1627990
  H       -1.8853360    -0.4679020    -1.4974950
  H        1.3880180    -0.7214600    -1.3270790
  H        1.9406490    -1.5916360     0.0977200
  H        2.9408020     0.4513780     0.8633710
  H        2.4538300     1.2344270    -0.4784390
units angstrom
no_reorient  #important for SAPT in psi4, default
symmetry c1  #important for SAPT in psi4, default
}

set PROPERTIES_ORIGIN ["COM"]
properties('MP2/aug-cc-pvtz', properties = ['dipole'])
--------------------------------------------------------------------------

    Molecular point group: c1
  Charge       = 0
  Multiplicity = 1
  Basis Set: AUG-CC-PVTZ
    Blend: AUG-CC-PVTZ
  Basis Set: (AUG-CC-PVTZ AUX)
    Blend: AUG-CC-PVTZ-JKFIT

    Orbital Energies [Eh]
    ---------------------

    Doubly Occupied:

       1A    -15.537285     2A    -11.242111     3A    -11.219130
       4A    -11.215954     5A    -11.215382     6A    -11.214843
       7A    -11.204062     8A     -1.177520     9A     -1.118176
      10A     -0.982170    11A     -0.966722    12A     -0.866176
      13A     -0.784773    14A     -0.758044    15A     -0.674573
      16A     -0.650678    17A     -0.640916    18A     -0.580808
      19A     -0.574658    20A     -0.558397    21A     -0.517764
      22A     -0.492659    23A     -0.481278    24A     -0.468916
      25A     -0.464587    26A     -0.455371    27A     -0.443936
      28A     -0.382244

  @DF-RHF Final Energy:  -289.31700107467577

   => Energetics <=

    Nuclear Repulsion Energy =            325.4529729964410194
    One-Electron Energy =               -1035.7616829816611244
    Two-Electron Energy =                 420.9917089105442756
    Total Energy =                       -289.3170010746757725
  Basis Set: (AUG-CC-PVTZ AUX)
    Blend: AUG-CC-PVTZ-RI
    Molecular point group: c1

    Geometry (in Angstrom), charge = 0, multiplicity = 1:

       Center              X                  Y                   Z               Mass
    ------------   -----------------  -----------------  -----------------  -----------------
         N            2.713740097557     0.321704913594    -0.124345458952    14.003074004430
         C            0.298058097557    -0.214538086406     0.467192541048    12.000000000000
         C           -0.268913902443     1.139950913594    -0.006529458952    12.000000000000
         C           -0.850014902443    -1.238083086406     0.244550541048    12.000000000000
         C           -1.786190902443     0.978449913594     0.099488541048    12.000000000000
         C           -2.000232902443    -0.449101086406    -0.404489458952    12.000000000000
         C            1.588296097557    -0.607026086406    -0.255280458952    12.000000000000
         H            0.522088097557    -0.147152086406     1.541286541048     1.007825032230
         H            0.000956097557     1.305793913594    -1.059597458952     1.007825032230
         H            0.083102297557     1.911363313594     0.514060441048     1.007825032230
         H           -1.173603902443    -1.659511086406     1.202232541048     1.007825032230
         H           -0.525730902443    -2.081046086406    -0.376948458952     1.007825032230
         H           -2.343567902443     1.730664913594    -0.468583458952     1.007825032230
         H           -2.098351902443     1.055406913594     1.148553541048     1.007825032230
         H           -2.986688902443    -0.857166086406    -0.161843458952     1.007825032230
         H           -1.900360902443    -0.464950086406    -1.496539458952     1.007825032230
         H            1.372993097557    -0.718508086406    -1.326123458952     1.007825032230
         H            1.925624097557    -1.588684086406     0.098675541048     1.007825032230
         H            2.925777097557     0.454329913594     0.864326541048     1.007825032230
         H            2.438805097557     1.237378913594    -0.477483458952     1.007825032230

  Basis Set: AUG-CC-PVTZ
    Blend: AUG-CC-PVTZ
  Basis Set: (AUG-CC-PVTZ AUX)
    Blend: AUG-CC-PVTZ-JKFIT
	 Reference Energy          =    -289.3170010746757725 [Eh]
	 Singles Energy            =      -0.0000000000000000 [Eh]
	 Same-Spin Energy          =      -0.3125917250970129 [Eh]
	 Opposite-Spin Energy      =      -1.0967990010343098 [Eh]
	 Correlation Energy        =      -1.4093907261313228 [Eh]
	 Total Energy              =    -290.7263918008071073 [Eh]

	 ================> DF-SCS-MP2 Energies <==================
	-----------------------------------------------------------
	 SCS Same-Spin Scale       =       0.3333333333333333 [-]
	 SCS Opposite-Spin Scale   =       1.2000000000000000 [-]
	 SCS Same-Spin Energy      =      -0.1041972416990043 [Eh]
	 SCS Opposite-Spin Energy  =      -1.3161588012411718 [Eh]
	 SCS Correlation Energy    =      -1.4203560429401760 [Eh]
	 SCS Total Energy          =    -290.7373571176159430 [Eh]
	-----------------------------------------------------------

  Dipole Moment: [D]
     X:    -1.2737      Y:     0.5246      Z:     0.7841     Total:     1.5851

*** Psi4 exiting successfully. Buy a developer a beer!
