                               Psi4 1.4a3.dev225

  ==> Input File <==

--------------------------------------------------------------------------
#psi4
#
memory 32 gb

molecule  {
0 1
  N        2.7287650     0.3187530    -0.1253010
  C        0.3130830    -0.2174900     0.4662370
  C       -0.2441345     1.0519119     0.0562535
  C       -0.8349900    -1.2410350     0.2435950
  C       -1.7711660     0.9754980     0.0985330
  C       -1.9852080    -0.4520530    -0.4054450
  C        1.6033210    -0.6099780    -0.2562360
  H        0.5371130    -0.1501040     1.5403310
  H        0.0159810     1.3028420    -1.0605530
  H        0.1335060     1.9859410     0.5654260
  H       -1.1585790    -1.6624630     1.2012770
  H       -0.5107060    -2.0839980    -0.3779040
  H       -2.3285430     1.7277130    -0.4695390
  H       -2.0833270     1.0524550     1.1475980
  H       -2.9716640    -0.8601180    -0.1627990
  H       -1.8853360    -0.4679020    -1.4974950
  H        1.3880180    -0.7214600    -1.3270790
  H        1.9406490    -1.5916360     0.0977200
  H        2.9408020     0.4513780     0.8633710
  H        2.4538300     1.2344270    -0.4784390
units angstrom
no_reorient  #important for SAPT in psi4, default
symmetry c1  #important for SAPT in psi4, default
}

set PROPERTIES_ORIGIN ["COM"]
properties('MP2/aug-cc-pvtz', properties = ['dipole'])
--------------------------------------------------------------------------

    Molecular point group: c1
  Charge       = 0
  Multiplicity = 1
  Basis Set: AUG-CC-PVTZ
    Blend: AUG-CC-PVTZ
  Basis Set: (AUG-CC-PVTZ AUX)
    Blend: AUG-CC-PVTZ-JKFIT

    Orbital Energies [Eh]
    ---------------------

    Doubly Occupied:

       1A    -15.537435     2A    -11.243773     3A    -11.222575
       4A    -11.217518     5A    -11.216928     6A    -11.215945
       7A    -11.215762     8A     -1.180156     9A     -1.126933
      10A     -0.989185    11A     -0.959910    12A     -0.868207
      13A     -0.782711    14A     -0.753019    15A     -0.669723
      16A     -0.650509    17A     -0.645895    18A     -0.581061
      19A     -0.566438    20A     -0.560276    21A     -0.525561
      22A     -0.492167    23A     -0.476735    24A     -0.470148
      25A     -0.460523    26A     -0.455406    27A     -0.439164
      28A     -0.382384

  @DF-RHF Final Energy:  -289.30992204481117

   => Energetics <=

    Nuclear Repulsion Energy =            326.3028068211150412
    One-Electron Energy =               -1037.4133627440091914
    Two-Electron Energy =                 421.8006338780829765
    Total Energy =                       -289.3099220448111737
  Basis Set: (AUG-CC-PVTZ AUX)
    Blend: AUG-CC-PVTZ-RI
    Molecular point group: c1

    Geometry (in Angstrom), charge = 0, multiplicity = 1:

       Center              X                  Y                   Z               Mass
    ------------   -----------------  -----------------  -----------------  -----------------
         N            2.712199207094     0.331219174597    -0.132595236148    14.003074004430
         C            0.296517207094    -0.205023825403     0.458942763852    12.000000000000
         C           -0.260700292906     1.064378074597     0.048959263852    12.000000000000
         C           -0.851555792906    -1.228568825403     0.236300763852    12.000000000000
         C           -1.787731792906     0.987964174597     0.091238763852    12.000000000000
         C           -2.001773792906    -0.439586825403    -0.412739236148    12.000000000000
         C            1.586755207094    -0.597511825403    -0.263530236148    12.000000000000
         H            0.520547207094    -0.137637825403     1.533036763852     1.007825032230
         H           -0.000584792906     1.315308174597    -1.067847236148     1.007825032230
         H            0.116940207094     1.998407174597     0.558131763852     1.007825032230
         H           -1.175144792906    -1.649996825403     1.193982763852     1.007825032230
         H           -0.527271792906    -2.071531825403    -0.385198236148     1.007825032230
         H           -2.345108792906     1.740179174597    -0.476833236148     1.007825032230
         H           -2.099892792906     1.064921174597     1.140303763852     1.007825032230
         H           -2.988229792906    -0.847651825403    -0.170093236148     1.007825032230
         H           -1.901901792906    -0.455435825403    -1.504789236148     1.007825032230
         H            1.371452207094    -0.708993825403    -1.334373236148     1.007825032230
         H            1.924083207094    -1.579169825403     0.090425763852     1.007825032230
         H            2.924236207094     0.463844174597     0.856076763852     1.007825032230
         H            2.437264207094     1.246893174597    -0.485733236148     1.007825032230

  Basis Set: AUG-CC-PVTZ
    Blend: AUG-CC-PVTZ
  Basis Set: (AUG-CC-PVTZ AUX)
    Blend: AUG-CC-PVTZ-JKFIT
	 Reference Energy          =    -289.3099220448111737 [Eh]
	 Singles Energy            =      -0.0000000000000000 [Eh]
	 Same-Spin Energy          =      -0.3136854620013467 [Eh]
	 Opposite-Spin Energy      =      -1.0985577372617872 [Eh]
	 Correlation Energy        =      -1.4122431992631339 [Eh]
	 Total Energy              =    -290.7221652440742901 [Eh]

	 ================> DF-SCS-MP2 Energies <==================
	-----------------------------------------------------------
	 SCS Same-Spin Scale       =       0.3333333333333333 [-]
	 SCS Opposite-Spin Scale   =       1.2000000000000000 [-]
	 SCS Same-Spin Energy      =      -0.1045618206671156 [Eh]
	 SCS Opposite-Spin Energy  =      -1.3182692847141446 [Eh]
	 SCS Correlation Energy    =      -1.4228311053812601 [Eh]
	 SCS Total Energy          =    -290.7327531501924227 [Eh]
	-----------------------------------------------------------

  Dipole Moment: [D]
     X:    -1.3204      Y:     0.4435      Z:     0.8039     Total:     1.6082

*** Psi4 exiting successfully. Buy a developer a beer!
