                               Psi4 1.4a3.dev225

  ==> Input File <==

--------------------------------------------------------------------------
#psi4
#
memory 32 gb

molecule  {
0 1
  N        2.7287650     0.3187530    -0.1253010
  C        0.3130830    -0.2174900     0.4662370
  C       -0.2538890     1.1369990    -0.0074850
  C       -0.9088767    -1.3057762     0.2869527
  C       -1.7711660     0.9754980     0.0985330
  C       -1.9852080    -0.4520530    -0.4054450
  C        1.6033210    -0.6099780    -0.2562360
  H        0.5371130    -0.1501040     1.5403310
  H        0.0159810     1.3028420    -1.0605530
  H        0.1335060     1.9859410     0.5654260
  H       -1.1585790    -1.6624630     1.2012770
  H       -0.5107060    -2.0839980    -0.3779040
  H       -2.3285430     1.7277130    -0.4695390
  H       -2.0833270     1.0524550     1.1475980
  H       -2.9716640    -0.8601180    -0.1627990
  H       -1.8853360    -0.4679020    -1.4974950
  H        1.3880180    -0.7214600    -1.3270790
  H        1.9406490    -1.5916360     0.0977200
  H        2.9408020     0.4513780     0.8633710
  H        2.4538300     1.2344270    -0.4784390
units angstrom
no_reorient  #important for SAPT in psi4, default
symmetry c1  #important for SAPT in psi4, default
}

set PROPERTIES_ORIGIN ["COM"]
properties('MP2/aug-cc-pvtz', properties = ['dipole'])
--------------------------------------------------------------------------

    Molecular point group: c1
  Charge       = 0
  Multiplicity = 1
  Basis Set: AUG-CC-PVTZ
    Blend: AUG-CC-PVTZ
  Basis Set: (AUG-CC-PVTZ AUX)
    Blend: AUG-CC-PVTZ-JKFIT

    Orbital Energies [Eh]
    ---------------------

    Doubly Occupied:

       1A    -15.537005     2A    -11.242059     3A    -11.222815
       4A    -11.217332     5A    -11.216787     6A    -11.216319
       7A    -11.213803     8A     -1.175988     9A     -1.111370
      10A     -0.977172    11A     -0.964357    12A     -0.865072
      13A     -0.783896    14A     -0.757452    15A     -0.666407
      16A     -0.648712    17A     -0.636992    18A     -0.586629
      19A     -0.577386    20A     -0.557236    21A     -0.517438
      22A     -0.493628    23A     -0.480657    24A     -0.470661
      25A     -0.464292    26A     -0.449725    27A     -0.434795
      28A     -0.380084

  @DF-RHF Final Energy:  -289.31235383207297

   => Energetics <=

    Nuclear Repulsion Energy =            323.5174541966182460
    One-Electron Energy =               -1031.9274768929337824
    Two-Electron Energy =                 419.0976688642425643
    Total Energy =                       -289.3123538320729722
  Basis Set: (AUG-CC-PVTZ AUX)
    Blend: AUG-CC-PVTZ-RI
    Molecular point group: c1

    Geometry (in Angstrom), charge = 0, multiplicity = 1:

       Center              X                  Y                   Z               Mass
    ------------   -----------------  -----------------  -----------------  -----------------
         N            2.722326813485     0.328755612777    -0.130127448499    14.003074004430
         C            0.306644813485    -0.207487387223     0.461410551501    12.000000000000
         C           -0.260327186515     1.147001612777    -0.012311448499    12.000000000000
         C           -0.915314886515    -1.295773587223     0.282126251501    12.000000000000
         C           -1.777604186515     0.985500612777     0.093706551501    12.000000000000
         C           -1.991646186515    -0.442050387223    -0.410271448499    12.000000000000
         C            1.596882813485    -0.599975387223    -0.261062448499    12.000000000000
         H            0.530674813485    -0.140101387223     1.535504551501     1.007825032230
         H            0.009542813485     1.312844612777    -1.065379448499     1.007825032230
         H            0.127067813485     1.995943612777     0.560599551501     1.007825032230
         H           -1.165017186515    -1.652460387223     1.196450551501     1.007825032230
         H           -0.517144186515    -2.073995387223    -0.382730448499     1.007825032230
         H           -2.334981186515     1.737715612777    -0.474365448499     1.007825032230
         H           -2.089765186515     1.062457612777     1.142771551501     1.007825032230
         H           -2.978102186515    -0.850115387223    -0.167625448499     1.007825032230
         H           -1.891774186515    -0.457899387223    -1.502321448499     1.007825032230
         H            1.381579813485    -0.711457387223    -1.331905448499     1.007825032230
         H            1.934210813485    -1.581633387223     0.092893551501     1.007825032230
         H            2.934363813485     0.461380612777     0.858544551501     1.007825032230
         H            2.447391813485     1.244429612777    -0.483265448499     1.007825032230

  Basis Set: AUG-CC-PVTZ
    Blend: AUG-CC-PVTZ
  Basis Set: (AUG-CC-PVTZ AUX)
    Blend: AUG-CC-PVTZ-JKFIT
	 Reference Energy          =    -289.3123538320729722 [Eh]
	 Singles Energy            =      -0.0000000000000000 [Eh]
	 Same-Spin Energy          =      -0.3124724292951895 [Eh]
	 Opposite-Spin Energy      =      -1.0975781615233688 [Eh]
	 Correlation Energy        =      -1.4100505908185583 [Eh]
	 Total Energy              =    -290.7224044228915432 [Eh]

	 ================> DF-SCS-MP2 Energies <==================
	-----------------------------------------------------------
	 SCS Same-Spin Scale       =       0.3333333333333333 [-]
	 SCS Opposite-Spin Scale   =       1.2000000000000000 [-]
	 SCS Same-Spin Energy      =      -0.1041574764317298 [Eh]
	 SCS Opposite-Spin Energy  =      -1.3170937938280425 [Eh]
	 SCS Correlation Energy    =      -1.4212512702597724 [Eh]
	 SCS Total Energy          =    -290.7336051023327173 [Eh]
	-----------------------------------------------------------

  Dipole Moment: [D]
     X:    -1.3026      Y:     0.4721      Z:     0.7924     Total:     1.5961

*** Psi4 exiting successfully. Buy a developer a beer!
