                               Psi4 1.4a3.dev225

  ==> Input File <==

--------------------------------------------------------------------------
#psi4
#
memory 32 gb

molecule  {
0 1
  N        2.7287650     0.3187530    -0.1253010
  C        0.3130830    -0.2174900     0.4662370
  C       -0.2538890     1.1369990    -0.0074850
  C       -0.8349900    -1.2410350     0.2435950
  C       -1.7711660     0.9754980     0.0985330
  C       -1.9852080    -0.4520530    -0.4054450
  C        1.6033210    -0.6099780    -0.2562360
  H        0.5371130    -0.1501040     1.5403310
  H       -0.0189620     1.2365471    -1.0771510
  H        0.1335060     1.9859410     0.5654260
  H       -1.1585790    -1.6624630     1.2012770
  H       -0.5107060    -2.0839980    -0.3779040
  H       -2.3285430     1.7277130    -0.4695390
  H       -2.0833270     1.0524550     1.1475980
  H       -2.9716640    -0.8601180    -0.1627990
  H       -1.8853360    -0.4679020    -1.4974950
  H        1.3880180    -0.7214600    -1.3270790
  H        1.9406490    -1.5916360     0.0977200
  H        2.9408020     0.4513780     0.8633710
  H        2.4538300     1.2344270    -0.4784390
units angstrom
no_reorient  #important for SAPT in psi4, default
symmetry c1  #important for SAPT in psi4, default
}

set PROPERTIES_ORIGIN ["COM"]
properties('MP2/aug-cc-pvtz', properties = ['dipole'])
--------------------------------------------------------------------------

    Molecular point group: c1
  Charge       = 0
  Multiplicity = 1
  Basis Set: AUG-CC-PVTZ
    Blend: AUG-CC-PVTZ
  Basis Set: (AUG-CC-PVTZ AUX)
    Blend: AUG-CC-PVTZ-JKFIT

    Orbital Energies [Eh]
    ---------------------

    Doubly Occupied:

       1A    -15.536914     2A    -11.242364     3A    -11.219611
       4A    -11.217180     5A    -11.216587     6A    -11.216069
       7A    -11.215636     8A     -1.177323     9A     -1.118203
      10A     -0.982761    11A     -0.961113    12A     -0.864638
      13A     -0.782223    14A     -0.755123    15A     -0.668534
      16A     -0.649193    17A     -0.640833    18A     -0.580860
      19A     -0.573965    20A     -0.558222    21A     -0.517932
      22A     -0.492293    23A     -0.478097    24A     -0.467461
      25A     -0.464122    26A     -0.455273    27A     -0.443857
      28A     -0.382059

  @DF-RHF Final Energy:  -289.32210487127657

   => Energetics <=

    Nuclear Repulsion Energy =            325.0353953929770796
    One-Electron Energy =               -1034.9581064498202068
    Two-Electron Energy =                 420.6006061855665621
    Total Energy =                       -289.3221048712765651
  Basis Set: (AUG-CC-PVTZ AUX)
    Blend: AUG-CC-PVTZ-RI
    Molecular point group: c1

    Geometry (in Angstrom), charge = 0, multiplicity = 1:

       Center              X                  Y                   Z               Mass
    ------------   -----------------  -----------------  -----------------  -----------------
         N            2.713735665782     0.321590664718    -0.124708737367    14.003074004430
         C            0.298053665782    -0.214652335282     0.466829262633    12.000000000000
         C           -0.268918334218     1.139836664718    -0.006892737367    12.000000000000
         C           -0.850019334218    -1.238197335282     0.244187262633    12.000000000000
         C           -1.786195334218     0.978335664718     0.099125262633    12.000000000000
         C           -2.000237334218    -0.449215335282    -0.404852737367    12.000000000000
         C            1.588291665782    -0.607140335282    -0.255643737367    12.000000000000
         H            0.522083665782    -0.147266335282     1.540923262633     1.007825032230
         H           -0.033991334218     1.239384764718    -1.076558737367     1.007825032230
         H            0.118476665782     1.988778664718     0.566018262633     1.007825032230
         H           -1.173608334218    -1.659625335282     1.201869262633     1.007825032230
         H           -0.525735334218    -2.081160335282    -0.377311737367     1.007825032230
         H           -2.343572334218     1.730550664718    -0.468946737367     1.007825032230
         H           -2.098356334218     1.055292664718     1.148190262633     1.007825032230
         H           -2.986693334218    -0.857280335282    -0.162206737367     1.007825032230
         H           -1.900365334218    -0.465064335282    -1.496902737367     1.007825032230
         H            1.372988665782    -0.718622335282    -1.326486737367     1.007825032230
         H            1.925619665782    -1.588798335282     0.098312262633     1.007825032230
         H            2.925772665782     0.454215664718     0.863963262633     1.007825032230
         H            2.438800665782     1.237264664718    -0.477846737367     1.007825032230

  Basis Set: AUG-CC-PVTZ
    Blend: AUG-CC-PVTZ
  Basis Set: (AUG-CC-PVTZ AUX)
    Blend: AUG-CC-PVTZ-JKFIT
	 Reference Energy          =    -289.3221048712765651 [Eh]
	 Singles Energy            =      -0.0000000000000000 [Eh]
	 Same-Spin Energy          =      -0.3127147755388273 [Eh]
	 Opposite-Spin Energy      =      -1.0974779307612377 [Eh]
	 Correlation Energy        =      -1.4101927063000650 [Eh]
	 Total Energy              =    -290.7322975775766167 [Eh]

	 ================> DF-SCS-MP2 Energies <==================
	-----------------------------------------------------------
	 SCS Same-Spin Scale       =       0.3333333333333333 [-]
	 SCS Opposite-Spin Scale   =       1.2000000000000000 [-]
	 SCS Same-Spin Energy      =      -0.1042382585129424 [Eh]
	 SCS Opposite-Spin Energy  =      -1.3169735169134851 [Eh]
	 SCS Correlation Energy    =      -1.4212117754264275 [Eh]
	 SCS Total Energy          =    -290.7433166467029650 [Eh]
	-----------------------------------------------------------

  Dipole Moment: [D]
     X:    -1.3140      Y:     0.4595      Z:     0.7753     Total:     1.5934

*** Psi4 exiting successfully. Buy a developer a beer!
