                               Psi4 1.4a3.dev225

  ==> Input File <==

--------------------------------------------------------------------------
#psi4
#
memory 32 gb

molecule  {
0 1
  N        2.7287650     0.3187530    -0.1253010
  C        0.3130830    -0.2174900     0.4662370
  C       -0.2538890     1.1369990    -0.0074850
  C       -0.8349900    -1.2410350     0.2435950
  C       -1.7711660     0.9754980     0.0985330
  C       -1.9852080    -0.4520530    -0.4054450
  C        1.7719858    -0.6612855    -0.3506804
  H        0.5371130    -0.1501040     1.5403310
  H        0.0159810     1.3028420    -1.0605530
  H        0.1335060     1.9859410     0.5654260
  H       -1.1585790    -1.6624630     1.2012770
  H       -0.5107060    -2.0839980    -0.3779040
  H       -2.3285430     1.7277130    -0.4695390
  H       -2.0833270     1.0524550     1.1475980
  H       -2.9716640    -0.8601180    -0.1627990
  H       -1.8853360    -0.4679020    -1.4974950
  H        1.3880180    -0.7214600    -1.3270790
  H        1.9406490    -1.5916360     0.0977200
  H        2.9408020     0.4513780     0.8633710
  H        2.4538300     1.2344270    -0.4784390
units angstrom
no_reorient  #important for SAPT in psi4, default
symmetry c1  #important for SAPT in psi4, default
}

set PROPERTIES_ORIGIN ["COM"]
properties('MP2/aug-cc-pvtz', properties = ['dipole'])
--------------------------------------------------------------------------

    Molecular point group: c1
  Charge       = 0
  Multiplicity = 1
  Basis Set: AUG-CC-PVTZ
    Blend: AUG-CC-PVTZ
  Basis Set: (AUG-CC-PVTZ AUX)
    Blend: AUG-CC-PVTZ-JKFIT

    Orbital Energies [Eh]
    ---------------------

    Doubly Occupied:

       1A    -15.538240     2A    -11.244551     3A    -11.217493
       4A    -11.214305     5A    -11.213656     6A    -11.212984
       7A    -11.211026     8A     -1.193868     9A     -1.112748
      10A     -0.962071    11A     -0.956202    12A     -0.872774
      13A     -0.778205    14A     -0.747952    15A     -0.680973
      16A     -0.647823    17A     -0.637474    18A     -0.603249
      19A     -0.567857    20A     -0.558680    21A     -0.526537
      22A     -0.493503    23A     -0.474776    24A     -0.465618
      25A     -0.460864    26A     -0.452928    27A     -0.446576
      28A     -0.340081

  @DF-RHF Final Energy:  -289.29606993650953

   => Energetics <=

    Nuclear Repulsion Energy =            322.8298477701777074
    One-Electron Energy =               -1030.5858035478852344
    Two-Electron Energy =                 418.4598858411980018
    Total Energy =                       -289.2960699365095252
  Basis Set: (AUG-CC-PVTZ AUX)
    Blend: AUG-CC-PVTZ-RI
    Molecular point group: c1

    Geometry (in Angstrom), charge = 0, multiplicity = 1:

       Center              X                  Y                   Z               Mass
    ------------   -----------------  -----------------  -----------------  -----------------
         N            2.692957721201     0.327129007396    -0.113441826716    14.003074004430
         C            0.277275721201    -0.209113992604     0.478096173284    12.000000000000
         C           -0.289696278799     1.145375007396     0.004374173284    12.000000000000
         C           -0.870797278799    -1.232658992604     0.255454173284    12.000000000000
         C           -1.806973278799     0.983874007396     0.110392173284    12.000000000000
         C           -2.021015278799    -0.443676992604    -0.393585826716    12.000000000000
         C            1.736178521201    -0.652909492604    -0.338821226716    12.000000000000
         H            0.501305721201    -0.141727992604     1.552190173284     1.007825032230
         H           -0.019826278799     1.311218007396    -1.048693826716     1.007825032230
         H            0.097698721201     1.994317007396     0.577285173284     1.007825032230
         H           -1.194386278799    -1.654086992604     1.213136173284     1.007825032230
         H           -0.546513278799    -2.075621992604    -0.366044826716     1.007825032230
         H           -2.364350278799     1.736089007396    -0.457679826716     1.007825032230
         H           -2.119134278799     1.060831007396     1.159457173284     1.007825032230
         H           -3.007471278799    -0.851741992604    -0.150939826716     1.007825032230
         H           -1.921143278799    -0.459525992604    -1.485635826716     1.007825032230
         H            1.352210721201    -0.713083992604    -1.315219826716     1.007825032230
         H            1.904841721201    -1.583259992604     0.109579173284     1.007825032230
         H            2.904994721201     0.459754007396     0.875230173284     1.007825032230
         H            2.418022721201     1.242803007396    -0.466579826716     1.007825032230

  Basis Set: AUG-CC-PVTZ
    Blend: AUG-CC-PVTZ
  Basis Set: (AUG-CC-PVTZ AUX)
    Blend: AUG-CC-PVTZ-JKFIT
	 Reference Energy          =    -289.2960699365095252 [Eh]
	 Singles Energy            =      -0.0000000000000000 [Eh]
	 Same-Spin Energy          =      -0.3132099931487827 [Eh]
	 Opposite-Spin Energy      =      -1.0982281027501135 [Eh]
	 Correlation Energy        =      -1.4114380958988963 [Eh]
	 Total Energy              =    -290.7075080324084411 [Eh]

	 ================> DF-SCS-MP2 Energies <==================
	-----------------------------------------------------------
	 SCS Same-Spin Scale       =       0.3333333333333333 [-]
	 SCS Opposite-Spin Scale   =       1.2000000000000000 [-]
	 SCS Same-Spin Energy      =      -0.1044033310495942 [Eh]
	 SCS Opposite-Spin Energy  =      -1.3178737233001361 [Eh]
	 SCS Correlation Energy    =      -1.4222770543497303 [Eh]
	 SCS Total Energy          =    -290.7183469908592315 [Eh]
	-----------------------------------------------------------

  Dipole Moment: [D]
     X:    -0.8873      Y:     0.4875      Z:     0.6854     Total:     1.2226

*** Psi4 exiting successfully. Buy a developer a beer!
