                               Psi4 1.4a3.dev225

  ==> Input File <==

--------------------------------------------------------------------------
#psi4
#
memory 32 gb

molecule  {
0 1
  N        2.7287650     0.3187530    -0.1253010
  C        0.2875380    -0.2188075     0.4193592
  C       -0.2538890     1.1369990    -0.0074850
  C       -0.8349900    -1.2410350     0.2435950
  C       -1.7711660     0.9754980     0.0985330
  C       -1.9852080    -0.4520530    -0.4054450
  C        1.6033210    -0.6099780    -0.2562360
  H        0.5371130    -0.1501040     1.5403310
  H        0.0159810     1.3028420    -1.0605530
  H        0.1335060     1.9859410     0.5654260
  H       -1.1585790    -1.6624630     1.2012770
  H       -0.5107060    -2.0839980    -0.3779040
  H       -2.3285430     1.7277130    -0.4695390
  H       -2.0833270     1.0524550     1.1475980
  H       -2.9716640    -0.8601180    -0.1627990
  H       -1.8853360    -0.4679020    -1.4974950
  H        1.3880180    -0.7214600    -1.3270790
  H        1.9406490    -1.5916360     0.0977200
  H        2.9408020     0.4513780     0.8633710
  H        2.4538300     1.2344270    -0.4784390
units angstrom
no_reorient  #important for SAPT in psi4, default
symmetry c1  #important for SAPT in psi4, default
}

set PROPERTIES_ORIGIN ["COM"]
properties('MP2/aug-cc-pvtz', properties = ['dipole'])
--------------------------------------------------------------------------

    Molecular point group: c1
  Charge       = 0
  Multiplicity = 1
  Basis Set: AUG-CC-PVTZ
    Blend: AUG-CC-PVTZ
  Basis Set: (AUG-CC-PVTZ AUX)
    Blend: AUG-CC-PVTZ-JKFIT

    Orbital Energies [Eh]
    ---------------------

    Doubly Occupied:

       1A    -15.538023     2A    -11.242770     3A    -11.222304
       4A    -11.217277     5A    -11.216529     6A    -11.216259
       7A    -11.215405     8A     -1.178055     9A     -1.122371
      10A     -0.983276    11A     -0.964123    12A     -0.866404
      13A     -0.784224    14A     -0.749531    15A     -0.669842
      16A     -0.649748    17A     -0.644184    18A     -0.578799
      19A     -0.572783    20A     -0.558490    21A     -0.516667
      22A     -0.494128    23A     -0.482712    24A     -0.469316
      25A     -0.464123    26A     -0.459251    27A     -0.433928
      28A     -0.383404

  @DF-RHF Final Energy:  -289.31902621523005

   => Energetics <=

    Nuclear Repulsion Energy =            325.4382817531347882
    One-Electron Energy =               -1035.7267619640533667
    Two-Electron Energy =                 420.9694539956885251
    Total Energy =                       -289.3190262152300534
  Basis Set: (AUG-CC-PVTZ AUX)
    Blend: AUG-CC-PVTZ-RI
    Molecular point group: c1

    Geometry (in Angstrom), charge = 0, multiplicity = 1:

       Center              X                  Y                   Z               Mass
    ------------   -----------------  -----------------  -----------------  -----------------
         N            2.716473409781     0.321076021028    -0.119201378255    14.003074004430
         C            0.275246409781    -0.216484478972     0.425458821745    12.000000000000
         C           -0.266180590219     1.139322021028    -0.001385378255    12.000000000000
         C           -0.847281590219    -1.238711978972     0.249694621745    12.000000000000
         C           -1.783457590219     0.977821021028     0.104632621745    12.000000000000
         C           -1.997499590219    -0.449729978972    -0.399345378255    12.000000000000
         C            1.591029409781    -0.607654978972    -0.250136378255    12.000000000000
         H            0.524821409781    -0.147780978972     1.546430621745     1.007825032230
         H            0.003689409781     1.305165021028    -1.054453378255     1.007825032230
         H            0.121214409781     1.988264021028     0.571525621745     1.007825032230
         H           -1.170870590219    -1.660139978972     1.207376621745     1.007825032230
         H           -0.522997590219    -2.081674978972    -0.371804378255     1.007825032230
         H           -2.340834590219     1.730036021028    -0.463439378255     1.007825032230
         H           -2.095618590219     1.054778021028     1.153697621745     1.007825032230
         H           -2.983955590219    -0.857794978972    -0.156699378255     1.007825032230
         H           -1.897627590219    -0.465578978972    -1.491395378255     1.007825032230
         H            1.375726409781    -0.719136978972    -1.320979378255     1.007825032230
         H            1.928357409781    -1.589312978972     0.103819621745     1.007825032230
         H            2.928510409781     0.453701021028     0.869470621745     1.007825032230
         H            2.441538409781     1.236750021028    -0.472339378255     1.007825032230

  Basis Set: AUG-CC-PVTZ
    Blend: AUG-CC-PVTZ
  Basis Set: (AUG-CC-PVTZ AUX)
    Blend: AUG-CC-PVTZ-JKFIT
	 Reference Energy          =    -289.3190262152300534 [Eh]
	 Singles Energy            =      -0.0000000000000000 [Eh]
	 Same-Spin Energy          =      -0.3130030641353092 [Eh]
	 Opposite-Spin Energy      =      -1.0978166256888651 [Eh]
	 Correlation Energy        =      -1.4108196898241743 [Eh]
	 Total Energy              =    -290.7298459050542192 [Eh]

	 ================> DF-SCS-MP2 Energies <==================
	-----------------------------------------------------------
	 SCS Same-Spin Scale       =       0.3333333333333333 [-]
	 SCS Opposite-Spin Scale   =       1.2000000000000000 [-]
	 SCS Same-Spin Energy      =      -0.1043343547117697 [Eh]
	 SCS Opposite-Spin Energy  =      -1.3173799508266379 [Eh]
	 SCS Correlation Energy    =      -1.4217143055384076 [Eh]
	 SCS Total Energy          =    -290.7407405207684405 [Eh]
	-----------------------------------------------------------

  Dipole Moment: [D]
     X:    -1.3178      Y:     0.4724      Z:     0.7387     Total:     1.5829

*** Psi4 exiting successfully. Buy a developer a beer!
