                               Psi4 1.4a3.dev225

  ==> Input File <==

--------------------------------------------------------------------------
#psi4
#
memory 32 gb

molecule  {
0 1
  N        2.7287650     0.3187530    -0.1253010
  C        0.3130830    -0.2174900     0.4662370
  C       -0.2538890     1.1369990    -0.0074850
  C       -0.8529499    -1.2575933     0.2547394
  C       -1.7711660     0.9754980     0.0985330
  C       -1.9852080    -0.4520530    -0.4054450
  C        1.6033210    -0.6099780    -0.2562360
  H        0.5371130    -0.1501040     1.5403310
  H        0.0159810     1.3028420    -1.0605530
  H        0.1335060     1.9859410     0.5654260
  H       -1.1585790    -1.6624630     1.2012770
  H       -0.5107060    -2.0839980    -0.3779040
  H       -2.3285430     1.7277130    -0.4695390
  H       -2.0833270     1.0524550     1.1475980
  H       -2.9716640    -0.8601180    -0.1627990
  H       -1.8853360    -0.4679020    -1.4974950
  H        1.3880180    -0.7214600    -1.3270790
  H        1.9406490    -1.5916360     0.0977200
  H        2.9408020     0.4513780     0.8633710
  H        2.4538300     1.2344270    -0.4784390
units angstrom
no_reorient  #important for SAPT in psi4, default
symmetry c1  #important for SAPT in psi4, default
}

set PROPERTIES_ORIGIN ["COM"]
properties('MP2/aug-cc-pvtz', properties = ['dipole'])
--------------------------------------------------------------------------

    Molecular point group: c1
  Charge       = 0
  Multiplicity = 1
  Basis Set: AUG-CC-PVTZ
    Blend: AUG-CC-PVTZ
  Basis Set: (AUG-CC-PVTZ AUX)
    Blend: AUG-CC-PVTZ-JKFIT

    Orbital Energies [Eh]
    ---------------------

    Doubly Occupied:

       1A    -15.536984     2A    -11.242269     3A    -11.220719
       4A    -11.217096     5A    -11.216555     6A    -11.216108
       7A    -11.214973     8A     -1.176912     9A     -1.115948
      10A     -0.981125    11A     -0.961942    12A     -0.864725
      13A     -0.782510    14A     -0.756408    15A     -0.667809
      16A     -0.648063    17A     -0.640423    18A     -0.581155
      19A     -0.574256    20A     -0.558059    21A     -0.517589
      22A     -0.491460    23A     -0.478064    24A     -0.469480
      25A     -0.464289    26A     -0.450696    27A     -0.446779
      28A     -0.381855

  @DF-RHF Final Energy:  -289.32231292129399

   => Energetics <=

    Nuclear Repulsion Energy =            324.5729446379049818
    One-Electron Energy =               -1034.0420125233324598
    Two-Electron Energy =                 420.1467549641334358
    Total Energy =                       -289.3223129212939853
  Basis Set: (AUG-CC-PVTZ AUX)
    Blend: AUG-CC-PVTZ-RI
    Molecular point group: c1

    Geometry (in Angstrom), charge = 0, multiplicity = 1:

       Center              X                  Y                   Z               Mass
    ------------   -----------------  -----------------  -----------------  -----------------
         N            2.715554975956     0.322921437204    -0.126226935080    14.003074004430
         C            0.299872975956    -0.213321562796     0.465311064920    12.000000000000
         C           -0.267099024044     1.141167437204    -0.008410935080    12.000000000000
         C           -0.866159924044    -1.253424862796     0.253813464920    12.000000000000
         C           -1.784376024044     0.979666437204     0.097607064920    12.000000000000
         C           -1.998418024044    -0.447884562796    -0.406370935080    12.000000000000
         C            1.590110975956    -0.605809562796    -0.257161935080    12.000000000000
         H            0.523902975956    -0.145935562796     1.539405064920     1.007825032230
         H            0.002770975956     1.307010437204    -1.061478935080     1.007825032230
         H            0.120295975956     1.990109437204     0.564500064920     1.007825032230
         H           -1.171789024044    -1.658294562796     1.200351064920     1.007825032230
         H           -0.523916024044    -2.079829562796    -0.378829935080     1.007825032230
         H           -2.341753024044     1.731881437204    -0.470464935080     1.007825032230
         H           -2.096537024044     1.056623437204     1.146672064920     1.007825032230
         H           -2.984874024044    -0.855949562796    -0.163724935080     1.007825032230
         H           -1.898546024044    -0.463733562796    -1.498420935080     1.007825032230
         H            1.374807975956    -0.717291562796    -1.328004935080     1.007825032230
         H            1.927438975956    -1.587467562796     0.096794064920     1.007825032230
         H            2.927591975956     0.455546437204     0.862445064920     1.007825032230
         H            2.440619975956     1.238595437204    -0.479364935080     1.007825032230

  Basis Set: AUG-CC-PVTZ
    Blend: AUG-CC-PVTZ
  Basis Set: (AUG-CC-PVTZ AUX)
    Blend: AUG-CC-PVTZ-JKFIT
	 Reference Energy          =    -289.3223129212939853 [Eh]
	 Singles Energy            =      -0.0000000000000000 [Eh]
	 Same-Spin Energy          =      -0.3124932862124118 [Eh]
	 Opposite-Spin Energy      =      -1.0972370061240404 [Eh]
	 Correlation Energy        =      -1.4097302923364521 [Eh]
	 Total Energy              =    -290.7320432136304476 [Eh]

	 ================> DF-SCS-MP2 Energies <==================
	-----------------------------------------------------------
	 SCS Same-Spin Scale       =       0.3333333333333333 [-]
	 SCS Opposite-Spin Scale   =       1.2000000000000000 [-]
	 SCS Same-Spin Energy      =      -0.1041644287374706 [Eh]
	 SCS Opposite-Spin Energy  =      -1.3166844073488484 [Eh]
	 SCS Correlation Energy    =      -1.4208488360863190 [Eh]
	 SCS Total Energy          =    -290.7431617573802782 [Eh]
	-----------------------------------------------------------

  Dipole Moment: [D]
     X:    -1.3072      Y:     0.4667      Z:     0.7767     Total:     1.5905

*** Psi4 exiting successfully. Buy a developer a beer!
