                               Psi4 1.4a2.dev612

  ==> Input File <==

--------------------------------------------------------------------------
#psi4
#
memory 32 gb

molecule  {
0 1
  O       -0.0649480    -2.0007500    -0.4572220
  N        2.4573690    -1.4749290     0.4038410
  C        0.8099710     0.2105070    -0.2160820
  C        2.1525410    -0.1743900     0.0797160
  C       -0.3341115    -0.8877503    -0.3704765
  C       -1.6915990    -0.3449750    -0.0589870
  C        0.5343510     1.5458860    -0.5628900
  C        3.1364470     0.8361460     0.1179860
  C        1.5277130     2.5174420    -0.5614560
  C        2.8303350     2.1515420    -0.2122750
  C       -2.0336590     0.6403590     0.8794580
  C       -2.7013800    -1.0161980    -0.7629970
  C       -3.3755740     0.9555500     1.0975090
  C       -4.0377320    -0.6802290    -0.5577760
  C        3.8275740    -1.9241930     0.5318010
  C       -4.3779170     0.3056950     0.3735650
  H       -0.4794410     1.8136050    -0.8470490
  H        4.1617050     0.5791300     0.3641360
  H        1.7801010    -2.1461120     0.0568400
  H        1.2958720     3.5406330    -0.8437660
  H        3.6204230     2.8995150    -0.1925990
  H       -1.2541740     1.1373190     1.4511930
  H       -2.4205700    -1.7983260    -1.4636490
  H       -3.6394530     1.7093650     1.8355280
  H       -4.8171580    -1.1915530    -1.1177270
  H        4.4331860    -1.7182640    -0.3623870
  H        3.8136890    -3.0019290     0.7024740
  H        4.3131750    -1.4541550     1.3926990
  H       -5.4217990     0.5615290     0.5392290
units angstrom
no_reorient  #important for SAPT in psi4, default
symmetry c1  #important for SAPT in psi4, default
}

set PROPERTIES_ORIGIN ["COM"]
properties('MP2/aug-cc-pvtz', properties = ['dipole'])
--------------------------------------------------------------------------

    Molecular point group: c1
  Charge       = 0
  Multiplicity = 1
  Basis Set: AUG-CC-PVTZ
    Blend: AUG-CC-PVTZ
  Basis Set: (AUG-CC-PVTZ AUX)
    Blend: AUG-CC-PVTZ-JKFIT

    Orbital Energies [Eh]
    ---------------------

    Doubly Occupied:

       1A    -20.556820     2A    -15.558557     3A    -11.340881
       4A    -11.288441     5A    -11.255076     6A    -11.254336
       7A    -11.251238     8A    -11.249440     9A    -11.247280
      10A    -11.247146    11A    -11.244439    12A    -11.243852
      13A    -11.243450    14A    -11.234923    15A    -11.223365
      16A    -11.220208    17A     -1.447542    18A     -1.240818
      19A     -1.165032    20A     -1.133546    21A     -1.049729
      22A     -1.027232    23A     -1.013305    24A     -1.003625
      25A     -0.923485    26A     -0.881378    27A     -0.844881
      28A     -0.829962    29A     -0.801497    30A     -0.770737
      31A     -0.717733    32A     -0.700446    33A     -0.687105
      34A     -0.666152    35A     -0.651214    36A     -0.634769
      37A     -0.619445    38A     -0.614368    39A     -0.612513
      40A     -0.602465    41A     -0.598255    42A     -0.575879
      43A     -0.570278    44A     -0.539202    45A     -0.533419
      46A     -0.520597    47A     -0.512216    48A     -0.504514
      49A     -0.501469    50A     -0.495628    51A     -0.425315
      52A     -0.403302    53A     -0.348281    54A     -0.347872
      55A     -0.340227    56A     -0.286221

  @DF-RHF Final Energy:  -667.24754588681469

   => Energetics <=

    Nuclear Repulsion Energy =           1002.1796635586503044
    One-Electron Energy =               -2895.2522099095017438
    Two-Electron Energy =                1225.8250004640367479
    Total Energy =                       -667.2475458868148053
  Basis Set: (AUG-CC-PVTZ AUX)
    Blend: AUG-CC-PVTZ-RI
    Molecular point group: c1

    Geometry (in Angstrom), charge = 0, multiplicity = 1:

       Center              X                  Y                   Z               Mass
    ------------   -----------------  -----------------  -----------------  -----------------
         O           -0.036540071408    -1.990837031764    -0.443928333818    15.994914619570
         N            2.485776928592    -1.465016031764     0.417134666182    14.003074004430
         C            0.838378928592     0.220419968236    -0.202788333818    12.000000000000
         C            2.180948928592    -0.164477031764     0.093009666182    12.000000000000
         C           -0.305703571408    -0.877837331764    -0.357182833818    12.000000000000
         C           -1.663191071408    -0.335062031764    -0.045693333818    12.000000000000
         C            0.562758928592     1.555798968236    -0.549596333818    12.000000000000
         C            3.164854928592     0.846058968236     0.131279666182    12.000000000000
         C            1.556120928592     2.527354968236    -0.548162333818    12.000000000000
         C            2.858742928592     2.161454968236    -0.198981333818    12.000000000000
         C           -2.005251071408     0.650271968236     0.892751666182    12.000000000000
         C           -2.672972071408    -1.006285031764    -0.749703333818    12.000000000000
         C           -3.347166071408     0.965462968236     1.110802666182    12.000000000000
         C           -4.009324071408    -0.670316031764    -0.544482333818    12.000000000000
         C            3.855981928592    -1.914280031764     0.545094666182    12.000000000000
         C           -4.349509071408     0.315607968236     0.386858666182    12.000000000000
         H           -0.451033071408     1.823517968236    -0.833755333818     1.007825032230
         H            4.190112928592     0.589042968236     0.377429666182     1.007825032230
         H            1.808508928592    -2.136199031764     0.070133666182     1.007825032230
         H            1.324279928592     3.550545968236    -0.830472333818     1.007825032230
         H            3.648830928592     2.909427968236    -0.179305333818     1.007825032230
         H           -1.225766071408     1.147231968236     1.464486666182     1.007825032230
         H           -2.392162071408    -1.788413031764    -1.450355333818     1.007825032230
         H           -3.611045071408     1.719277968236     1.848821666182     1.007825032230
         H           -4.788750071408    -1.181640031764    -1.104433333818     1.007825032230
         H            4.461593928592    -1.708351031764    -0.349093333818     1.007825032230
         H            3.842096928592    -2.992016031764     0.715767666182     1.007825032230
         H            4.341582928592    -1.444242031764     1.405992666182     1.007825032230
         H           -5.393391071408     0.571441968236     0.552522666182     1.007825032230

  Basis Set: AUG-CC-PVTZ
    Blend: AUG-CC-PVTZ
  Basis Set: (AUG-CC-PVTZ AUX)
    Blend: AUG-CC-PVTZ-JKFIT
	 Reference Energy          =    -667.2475458868146916 [Eh]
	 Singles Energy            =      -0.0000000000000000 [Eh]
	 Same-Spin Energy          =      -0.7323869922885571 [Eh]
	 Opposite-Spin Energy      =      -2.2611016013538516 [Eh]
	 Correlation Energy        =      -2.9934885936424087 [Eh]
	 Total Energy              =    -670.2410344804570741 [Eh]

	 ================> DF-SCS-MP2 Energies <==================
	-----------------------------------------------------------
	 SCS Same-Spin Scale       =       0.3333333333333333 [-]
	 SCS Opposite-Spin Scale   =       1.2000000000000000 [-]
	 SCS Same-Spin Energy      =      -0.2441289974295190 [Eh]
	 SCS Opposite-Spin Energy  =      -2.7133219216246220 [Eh]
	 SCS Correlation Energy    =      -2.9574509190541409 [Eh]
	 SCS Total Energy          =    -670.2049968058688592 [Eh]
	-----------------------------------------------------------

  Dipole Moment: [D]
     X:    -0.3037      Y:     0.5629      Z:     0.2110     Total:     0.6735

*** Psi4 exiting successfully. Buy a developer a beer!
