                               Psi4 1.3.2 release

  ==> Input File <==

--------------------------------------------------------------------------
#psi4
#
memory 32 gb

molecule  {
0 1
  O       -0.0649480    -2.0007500    -0.4572220
  N        2.4573690    -1.4749290     0.4038410
  C        0.8422003     0.3045262    -0.2232410
  C        2.1525410    -0.1743900     0.0797160
  C       -0.2789970    -0.7898520    -0.2615780
  C       -1.6915990    -0.3449750    -0.0589870
  C        0.5343510     1.5458860    -0.5628900
  C        3.1364470     0.8361460     0.1179860
  C        1.5277130     2.5174420    -0.5614560
  C        2.8303350     2.1515420    -0.2122750
  C       -2.0336590     0.6403590     0.8794580
  C       -2.7013800    -1.0161980    -0.7629970
  C       -3.3755740     0.9555500     1.0975090
  C       -4.0377320    -0.6802290    -0.5577760
  C        3.8275740    -1.9241930     0.5318010
  C       -4.3779170     0.3056950     0.3735650
  H       -0.4794410     1.8136050    -0.8470490
  H        4.1617050     0.5791300     0.3641360
  H        1.7801010    -2.1461120     0.0568400
  H        1.2958720     3.5406330    -0.8437660
  H        3.6204230     2.8995150    -0.1925990
  H       -1.2541740     1.1373190     1.4511930
  H       -2.4205700    -1.7983260    -1.4636490
  H       -3.6394530     1.7093650     1.8355280
  H       -4.8171580    -1.1915530    -1.1177270
  H        4.4331860    -1.7182640    -0.3623870
  H        3.8136890    -3.0019290     0.7024740
  H        4.3131750    -1.4541550     1.3926990
  H       -5.4217990     0.5615290     0.5392290
units angstrom
no_reorient  #important for SAPT in psi4, default
symmetry c1  #important for SAPT in psi4, default
}

set PROPERTIES_ORIGIN ["COM"]
properties('MP2/aug-cc-pvtz', properties = ['dipole'])
--------------------------------------------------------------------------

    Molecular point group: c1
  Charge       = 0
  Multiplicity = 1
  Basis Set: AUG-CC-PVTZ
    Blend: AUG-CC-PVTZ
  Basis Set: (AUG-CC-PVTZ AUX)
    Blend: AUG-CC-PVTZ-JKFIT

    Orbital Energies [Eh]
    ---------------------

    Doubly Occupied:

       1A    -20.547614     2A    -15.562444     3A    -11.347710
       4A    -11.293627     5A    -11.257410     6A    -11.252761
       7A    -11.251479     8A    -11.250369     9A    -11.248441
      10A    -11.246229    11A    -11.246118    12A    -11.244715
      13A    -11.241079    14A    -11.239304    15A    -11.225180
      16A    -11.222764    17A     -1.375833    18A     -1.243564
      19A     -1.165319    20A     -1.149702    21A     -1.053968
      22A     -1.027133    23A     -1.022593    24A     -1.009133
      25A     -0.927858    26A     -0.884557    27A     -0.842244
      28A     -0.832953    29A     -0.812363    30A     -0.771534
      31A     -0.716593    32A     -0.701597    33A     -0.686702
      34A     -0.651958    35A     -0.645620    36A     -0.633332
      37A     -0.619431    38A     -0.614633    39A     -0.608929
      40A     -0.600805    41A     -0.597385    42A     -0.581887
      43A     -0.544808    44A     -0.540106    45A     -0.530809
      46A     -0.521950    47A     -0.515533    48A     -0.505473
      49A     -0.502189    50A     -0.490126    51A     -0.430164
      52A     -0.411901    53A     -0.356332    54A     -0.346794
      55A     -0.345045    56A     -0.288241

  @DF-RHF Final Energy:  -667.25179581324176

   => Energetics <=

    Nuclear Repulsion Energy =           1002.4140204052395120
    One-Electron Energy =               -2895.7629461148294467
    Two-Electron Energy =                1226.0971298963479512
    Total Energy =                       -667.2517958132418698
  Basis Set: (AUG-CC-PVTZ AUX)
    Blend: AUG-CC-PVTZ-RI
    Molecular point group: c1

    Geometry (in Angstrom), charge = 0, multiplicity = 1:

       Center              X                  Y                   Z               Mass
    ------------   -----------------  -----------------  -----------------  -----------------
         O           -0.041505144927    -2.001746615467    -0.449711733409    15.994914619570
         N            2.480811855073    -1.475925615467     0.411351266591    14.003074004430
         C            0.865643155073     0.303529584533    -0.215730733409    12.000000000000
         C            2.175983855073    -0.175386615467     0.087226266591    12.000000000000
         C           -0.255554144927    -0.790848615467    -0.254067733409    12.000000000000
         C           -1.668156144927    -0.345971615467    -0.051476733409    12.000000000000
         C            0.557793855073     1.544889384533    -0.555379733409    12.000000000000
         C            3.159889855073     0.835149384533     0.125496266591    12.000000000000
         C            1.551155855073     2.516445384533    -0.553945733409    12.000000000000
         C            2.853777855073     2.150545384533    -0.204764733409    12.000000000000
         C           -2.010216144927     0.639362384533     0.886968266591    12.000000000000
         C           -2.677937144927    -1.017194615467    -0.755486733409    12.000000000000
         C           -3.352131144927     0.954553384533     1.105019266591    12.000000000000
         C           -4.014289144927    -0.681225615467    -0.550265733409    12.000000000000
         C            3.851016855073    -1.925189615467     0.539311266591    12.000000000000
         C           -4.354474144927     0.304698384533     0.381075266591    12.000000000000
         H           -0.455998144927     1.812608384533    -0.839538733409     1.007825032230
         H            4.185147855073     0.578133384533     0.371646266591     1.007825032230
         H            1.803543855073    -2.147108615467     0.064350266591     1.007825032230
         H            1.319314855073     3.539636384533    -0.836255733409     1.007825032230
         H            3.643865855073     2.898518384533    -0.185088733409     1.007825032230
         H           -1.230731144927     1.136322384533     1.458703266591     1.007825032230
         H           -2.397127144927    -1.799322615467    -1.456138733409     1.007825032230
         H           -3.616010144927     1.708368384533     1.843038266591     1.007825032230
         H           -4.793715144927    -1.192549615467    -1.110216733409     1.007825032230
         H            4.456628855073    -1.719260615467    -0.354876733409     1.007825032230
         H            3.837131855073    -3.002925615467     0.709984266591     1.007825032230
         H            4.336617855073    -1.455151615467     1.400209266591     1.007825032230
         H           -5.398356144927     0.560532384533     0.546739266591     1.007825032230

  Basis Set: AUG-CC-PVTZ
    Blend: AUG-CC-PVTZ
  Basis Set: (AUG-CC-PVTZ AUX)
    Blend: AUG-CC-PVTZ-JKFIT
	 Reference Energy          =    -667.2517958132417562 [Eh]
	 Singles Energy            =      -0.0000000000000000 [Eh]
	 Same-Spin Energy          =      -0.7344722204031809 [Eh]
	 Opposite-Spin Energy      =      -2.2651814861823105 [Eh]
	 Correlation Energy        =      -2.9996537065854914 [Eh]
	 Total Energy              =    -670.2514495198272471 [Eh]

	 ================> DF-SCS-MP2 Energies <==================
	-----------------------------------------------------------
	 SCS Same-Spin Scale       =       0.3333333333333333 [-]
	 SCS Opposite-Spin Scale   =       1.2000000000000000 [-]
	 SCS Same-Spin Energy      =      -0.2448240734677270 [Eh]
	 SCS Opposite-Spin Energy  =      -2.7182177834187726 [Eh]
	 SCS Correlation Energy    =      -2.9630418568864996 [Eh]
	 SCS Total Energy          =    -670.2148376701283041 [Eh]
	-----------------------------------------------------------

  Dipole Moment: [D]
     X:    -0.0203      Y:     0.9732      Z:     0.3223     Total:     1.0254

*** Psi4 exiting successfully. Buy a developer a beer!
