                               Psi4 1.3.2 release

  ==> Input File <==

--------------------------------------------------------------------------
#psi4
#
memory 32 gb

molecule  {
0 1
  O        0.0197328    -1.9818508    -0.4622440
  N        2.4573690    -1.4749290     0.4038410
  C        0.8099710     0.2105070    -0.2160820
  C        2.1525410    -0.1743900     0.0797160
  C       -0.2789970    -0.7898520    -0.2615780
  C       -1.6915990    -0.3449750    -0.0589870
  C        0.5343510     1.5458860    -0.5628900
  C        3.1364470     0.8361460     0.1179860
  C        1.5277130     2.5174420    -0.5614560
  C        2.8303350     2.1515420    -0.2122750
  C       -2.0336590     0.6403590     0.8794580
  C       -2.7013800    -1.0161980    -0.7629970
  C       -3.3755740     0.9555500     1.0975090
  C       -4.0377320    -0.6802290    -0.5577760
  C        3.8275740    -1.9241930     0.5318010
  C       -4.3779170     0.3056950     0.3735650
  H       -0.4794410     1.8136050    -0.8470490
  H        4.1617050     0.5791300     0.3641360
  H        1.7801010    -2.1461120     0.0568400
  H        1.2958720     3.5406330    -0.8437660
  H        3.6204230     2.8995150    -0.1925990
  H       -1.2541740     1.1373190     1.4511930
  H       -2.4205700    -1.7983260    -1.4636490
  H       -3.6394530     1.7093650     1.8355280
  H       -4.8171580    -1.1915530    -1.1177270
  H        4.4331860    -1.7182640    -0.3623870
  H        3.8136890    -3.0019290     0.7024740
  H        4.3131750    -1.4541550     1.3926990
  H       -5.4217990     0.5615290     0.5392290
units angstrom
no_reorient  #important for SAPT in psi4, default
symmetry c1  #important for SAPT in psi4, default
}

set PROPERTIES_ORIGIN ["COM"]
properties('MP2/aug-cc-pvtz', properties = ['dipole'])
--------------------------------------------------------------------------

    Molecular point group: c1
  Charge       = 0
  Multiplicity = 1
  Basis Set: AUG-CC-PVTZ
    Blend: AUG-CC-PVTZ
  Basis Set: (AUG-CC-PVTZ AUX)
    Blend: AUG-CC-PVTZ-JKFIT

    Orbital Energies [Eh]
    ---------------------

    Doubly Occupied:

       1A    -20.539823     2A    -15.557873     3A    -11.340946
       4A    -11.294666     5A    -11.254746     6A    -11.254494
       7A    -11.252917     8A    -11.252818     9A    -11.250460
      10A    -11.250185    11A    -11.250096    12A    -11.247258
      13A    -11.245874    14A    -11.235503    15A    -11.226955
      16A    -11.223936    17A     -1.373884    18A     -1.240994
      19A     -1.166243    20A     -1.140048    21A     -1.056594
      22A     -1.027820    23A     -1.020902    24A     -1.007810
      25A     -0.927945    26A     -0.888070    27A     -0.846074
      28A     -0.836039    29A     -0.805927    30A     -0.773000
      31A     -0.718515    32A     -0.699078    33A     -0.684485
      34A     -0.654138    35A     -0.648503    36A     -0.633916
      37A     -0.618445    38A     -0.613172    39A     -0.609518
      40A     -0.600954    41A     -0.597630    42A     -0.574243
      43A     -0.545676    44A     -0.539745    45A     -0.531051
      46A     -0.521189    47A     -0.513875    48A     -0.504140
      49A     -0.501391    50A     -0.486486    51A     -0.426966
      52A     -0.417770    53A     -0.350296    54A     -0.348052
      55A     -0.343983    56A     -0.289500

  @DF-RHF Final Energy:  -667.26115109252385

   => Energetics <=

    Nuclear Repulsion Energy =           1003.0565991819822784
    One-Electron Energy =               -2897.1102675139518396
    Two-Electron Energy =                1226.7925172394457149
    Total Energy =                       -667.2611510925239600
  Basis Set: (AUG-CC-PVTZ AUX)
    Blend: AUG-CC-PVTZ-RI
    Molecular point group: c1

    Geometry (in Angstrom), charge = 0, multiplicity = 1:

       Center              X                  Y                   Z               Mass
    ------------   -----------------  -----------------  -----------------  -----------------
         O            0.038591515439    -1.978934860145    -0.454760173705    15.994914619570
         N            2.476227715439    -1.472013060145     0.411324826295    14.003074004430
         C            0.828829715439     0.213422939855    -0.208598173705    12.000000000000
         C            2.171399715439    -0.171474060145     0.087199826295    12.000000000000
         C           -0.260138284561    -0.786936060145    -0.254094173705    12.000000000000
         C           -1.672740284561    -0.342059060145    -0.051503173705    12.000000000000
         C            0.553209715439     1.548801939855    -0.555406173705    12.000000000000
         C            3.155305715439     0.839061939855     0.125469826295    12.000000000000
         C            1.546571715439     2.520357939855    -0.553972173705    12.000000000000
         C            2.849193715439     2.154457939855    -0.204791173705    12.000000000000
         C           -2.014800284561     0.643274939855     0.886941826295    12.000000000000
         C           -2.682521284561    -1.013282060145    -0.755513173705    12.000000000000
         C           -3.356715284561     0.958465939855     1.104992826295    12.000000000000
         C           -4.018873284561    -0.677313060145    -0.550292173705    12.000000000000
         C            3.846432715439    -1.921277060145     0.539284826295    12.000000000000
         C           -4.359058284561     0.308610939855     0.381048826295    12.000000000000
         H           -0.460582284561     1.816520939855    -0.839565173705     1.007825032230
         H            4.180563715439     0.582045939855     0.371619826295     1.007825032230
         H            1.798959715439    -2.143196060145     0.064323826295     1.007825032230
         H            1.314730715439     3.543548939855    -0.836282173705     1.007825032230
         H            3.639281715439     2.902430939855    -0.185115173705     1.007825032230
         H           -1.235315284561     1.140234939855     1.458676826295     1.007825032230
         H           -2.401711284561    -1.795410060145    -1.456165173705     1.007825032230
         H           -3.620594284561     1.712280939855     1.843011826295     1.007825032230
         H           -4.798299284561    -1.188637060145    -1.110243173705     1.007825032230
         H            4.452044715439    -1.715348060145    -0.354903173705     1.007825032230
         H            3.832547715439    -2.999013060145     0.709957826295     1.007825032230
         H            4.332033715439    -1.451239060145     1.400182826295     1.007825032230
         H           -5.402940284561     0.564444939855     0.546712826295     1.007825032230

  Basis Set: AUG-CC-PVTZ
    Blend: AUG-CC-PVTZ
  Basis Set: (AUG-CC-PVTZ AUX)
    Blend: AUG-CC-PVTZ-JKFIT
	 Reference Energy          =    -667.2611510925238463 [Eh]
	 Singles Energy            =      -0.0000000000000000 [Eh]
	 Same-Spin Energy          =      -0.7349206538559679 [Eh]
	 Opposite-Spin Energy      =      -2.2655637404722806 [Eh]
	 Correlation Energy        =      -3.0004843943282484 [Eh]
	 Total Energy              =    -670.2616354868521285 [Eh]

	 ================> DF-SCS-MP2 Energies <==================
	-----------------------------------------------------------
	 SCS Same-Spin Scale       =       0.3333333333333333 [-]
	 SCS Opposite-Spin Scale   =       1.2000000000000000 [-]
	 SCS Same-Spin Energy      =      -0.2449735512853226 [Eh]
	 SCS Opposite-Spin Energy  =      -2.7186764885667367 [Eh]
	 SCS Correlation Energy    =      -2.9636500398520593 [Eh]
	 SCS Total Energy          =    -670.2248011323758874 [Eh]
	-----------------------------------------------------------

  Dipole Moment: [D]
     X:    -0.0610      Y:     1.1430      Z:     0.3667     Total:     1.2020

*** Psi4 exiting successfully. Buy a developer a beer!
