                               Psi4 1.4a3.dev225

  ==> Input File <==

--------------------------------------------------------------------------
#psi4
#
memory 32 gb

molecule  {
0 1
  O       -0.0649480    -2.0007500    -0.4572220
  N        2.4573690    -1.4749290     0.4038410
  C        0.8099710     0.2105070    -0.2160820
  C        2.1525410    -0.1743900     0.0797160
  C       -0.2937187    -0.8033758    -0.2621931
  C       -1.6915990    -0.3449750    -0.0589870
  C        0.5343510     1.5458860    -0.5628900
  C        3.1364470     0.8361460     0.1179860
  C        1.5277130     2.5174420    -0.5614560
  C        2.8303350     2.1515420    -0.2122750
  C       -2.0336590     0.6403590     0.8794580
  C       -2.7013800    -1.0161980    -0.7629970
  C       -3.3755740     0.9555500     1.0975090
  C       -4.0377320    -0.6802290    -0.5577760
  C        3.8275740    -1.9241930     0.5318010
  C       -4.3779170     0.3056950     0.3735650
  H       -0.4794410     1.8136050    -0.8470490
  H        4.1617050     0.5791300     0.3641360
  H        1.7801010    -2.1461120     0.0568400
  H        1.2958720     3.5406330    -0.8437660
  H        3.6204230     2.8995150    -0.1925990
  H       -1.2541740     1.1373190     1.4511930
  H       -2.4205700    -1.7983260    -1.4636490
  H       -3.6394530     1.7093650     1.8355280
  H       -4.8171580    -1.1915530    -1.1177270
  H        4.4331860    -1.7182640    -0.3623870
  H        3.8136890    -3.0019290     0.7024740
  H        4.3131750    -1.4541550     1.3926990
  H       -5.4217990     0.5615290     0.5392290
units angstrom
no_reorient  #important for SAPT in psi4, default
symmetry c1  #important for SAPT in psi4, default
}

set PROPERTIES_ORIGIN ["COM"]
properties('MP2/aug-cc-pvtz', properties = ['dipole'])
--------------------------------------------------------------------------

    Molecular point group: c1
  Charge       = 0
  Multiplicity = 1
  Basis Set: AUG-CC-PVTZ
    Blend: AUG-CC-PVTZ
  Basis Set: (AUG-CC-PVTZ AUX)
    Blend: AUG-CC-PVTZ-JKFIT

    Orbital Energies [Eh]
    ---------------------

    Doubly Occupied:

       1A    -20.541701     2A    -15.560846     3A    -11.340300
       4A    -11.295521     5A    -11.256455     6A    -11.252568
       7A    -11.251273     8A    -11.250893     9A    -11.250866
      10A    -11.249347    11A    -11.247859    12A    -11.245772
      13A    -11.244252    14A    -11.238623    15A    -11.227801
      16A    -11.224801    17A     -1.380136    18A     -1.243415
      19A     -1.164602    20A     -1.140438    21A     -1.055465
      22A     -1.026404    23A     -1.020029    24A     -1.008719
      25A     -0.928207    26A     -0.888093    27A     -0.845475
      28A     -0.834673    29A     -0.806374    30A     -0.771398
      31A     -0.717960    32A     -0.700842    33A     -0.683665
      34A     -0.655434    35A     -0.647180    36A     -0.633666
      37A     -0.618682    38A     -0.614452    39A     -0.609692
      40A     -0.601354    41A     -0.596809    42A     -0.577146
      43A     -0.546741    44A     -0.541403    45A     -0.530915
      46A     -0.520779    47A     -0.513107    48A     -0.503316
      49A     -0.502076    50A     -0.488400    51A     -0.428408
      52A     -0.418401    53A     -0.349870    54A     -0.346146
      55A     -0.343569    56A     -0.290823

  @DF-RHF Final Energy:  -667.26361833749115

   => Energetics <=

    Nuclear Repulsion Energy =           1002.4676372690879589
    One-Electron Energy =               -2895.9162243898895213
    Two-Electron Energy =                1226.1849687833105236
    Total Energy =                       -667.2636183374911525
  Basis Set: (AUG-CC-PVTZ AUX)
    Blend: AUG-CC-PVTZ-RI
    Molecular point group: c1

    Geometry (in Angstrom), charge = 0, multiplicity = 1:

       Center              X                  Y                   Z               Mass
    ------------   -----------------  -----------------  -----------------  -----------------
         O           -0.038836207157    -1.995633314908    -0.450083722544    15.994914619570
         N            2.483480792843    -1.469812314908     0.410979277456    14.003074004430
         C            0.836082792843     0.215623685092    -0.208943722544    12.000000000000
         C            2.178652792843    -0.169273314908     0.086854277456    12.000000000000
         C           -0.267606907157    -0.798259114908    -0.255054822544    12.000000000000
         C           -1.665487207157    -0.339858314908    -0.051848722544    12.000000000000
         C            0.560462792843     1.551002685092    -0.555751722544    12.000000000000
         C            3.162558792843     0.841262685092     0.125124277456    12.000000000000
         C            1.553824792843     2.522558685092    -0.554317722544    12.000000000000
         C            2.856446792843     2.156658685092    -0.205136722544    12.000000000000
         C           -2.007547207157     0.645475685092     0.886596277456    12.000000000000
         C           -2.675268207157    -1.011081314908    -0.755858722544    12.000000000000
         C           -3.349462207157     0.960666685092     1.104647277456    12.000000000000
         C           -4.011620207157    -0.675112314908    -0.550637722544    12.000000000000
         C            3.853685792843    -1.919076314908     0.538939277456    12.000000000000
         C           -4.351805207157     0.310811685092     0.380703277456    12.000000000000
         H           -0.453329207157     1.818721685092    -0.839910722544     1.007825032230
         H            4.187816792843     0.584246685092     0.371274277456     1.007825032230
         H            1.806212792843    -2.140995314908     0.063978277456     1.007825032230
         H            1.321983792843     3.545749685092    -0.836627722544     1.007825032230
         H            3.646534792843     2.904631685092    -0.185460722544     1.007825032230
         H           -1.228062207157     1.142435685092     1.458331277456     1.007825032230
         H           -2.394458207157    -1.793209314908    -1.456510722544     1.007825032230
         H           -3.613341207157     1.714481685092     1.842666277456     1.007825032230
         H           -4.791046207157    -1.186436314908    -1.110588722544     1.007825032230
         H            4.459297792843    -1.713147314908    -0.355248722544     1.007825032230
         H            3.839800792843    -2.996812314908     0.709612277456     1.007825032230
         H            4.339286792843    -1.449038314908     1.399837277456     1.007825032230
         H           -5.395687207157     0.566645685092     0.546367277456     1.007825032230

  Basis Set: AUG-CC-PVTZ
    Blend: AUG-CC-PVTZ
  Basis Set: (AUG-CC-PVTZ AUX)
    Blend: AUG-CC-PVTZ-JKFIT
	 Reference Energy          =    -667.2636183374911525 [Eh]
	 Singles Energy            =      -0.0000000000000000 [Eh]
	 Same-Spin Energy          =      -0.7342852178034969 [Eh]
	 Opposite-Spin Energy      =      -2.2646598037956913 [Eh]
	 Correlation Energy        =      -2.9989450215991882 [Eh]
	 Total Energy              =    -670.2625633590903362 [Eh]

	 ================> DF-SCS-MP2 Energies <==================
	-----------------------------------------------------------
	 SCS Same-Spin Scale       =       0.3333333333333333 [-]
	 SCS Opposite-Spin Scale   =       1.2000000000000000 [-]
	 SCS Same-Spin Energy      =      -0.2447617392678323 [Eh]
	 SCS Opposite-Spin Energy  =      -2.7175917645548293 [Eh]
	 SCS Correlation Energy    =      -2.9623535038226616 [Eh]
	 SCS Total Energy          =    -670.2259718413138216 [Eh]
	-----------------------------------------------------------

  Dipole Moment: [D]
     X:     0.1372      Y:     1.1228      Z:     0.3486     Total:     1.1836

*** Psi4 exiting successfully. Buy a developer a beer!
