                               Psi4 1.3.2 release

  ==> Input File <==

--------------------------------------------------------------------------
#psi4
#
memory 32 gb

molecule  {
0 1
  O       -0.0649480    -2.0007500    -0.4572220
  N        2.4573690    -1.4749290     0.4038410
  C        0.8099710     0.2105070    -0.2160820
  C        2.1132333    -0.1901141     0.0571422
  C       -0.2789970    -0.7898520    -0.2615780
  C       -1.6915990    -0.3449750    -0.0589870
  C        0.5343510     1.5458860    -0.5628900
  C        3.1364470     0.8361460     0.1179860
  C        1.5277130     2.5174420    -0.5614560
  C        2.8303350     2.1515420    -0.2122750
  C       -2.0336590     0.6403590     0.8794580
  C       -2.7013800    -1.0161980    -0.7629970
  C       -3.3755740     0.9555500     1.0975090
  C       -4.0377320    -0.6802290    -0.5577760
  C        3.8275740    -1.9241930     0.5318010
  C       -4.3779170     0.3056950     0.3735650
  H       -0.4794410     1.8136050    -0.8470490
  H        4.1617050     0.5791300     0.3641360
  H        1.7801010    -2.1461120     0.0568400
  H        1.2958720     3.5406330    -0.8437660
  H        3.6204230     2.8995150    -0.1925990
  H       -1.2541740     1.1373190     1.4511930
  H       -2.4205700    -1.7983260    -1.4636490
  H       -3.6394530     1.7093650     1.8355280
  H       -4.8171580    -1.1915530    -1.1177270
  H        4.4331860    -1.7182640    -0.3623870
  H        3.8136890    -3.0019290     0.7024740
  H        4.3131750    -1.4541550     1.3926990
  H       -5.4217990     0.5615290     0.5392290
units angstrom
no_reorient  #important for SAPT in psi4, default
symmetry c1  #important for SAPT in psi4, default
}

set PROPERTIES_ORIGIN ["COM"]
properties('MP2/aug-cc-pvtz', properties = ['dipole'])
--------------------------------------------------------------------------

    Molecular point group: c1
  Charge       = 0
  Multiplicity = 1
  Basis Set: AUG-CC-PVTZ
    Blend: AUG-CC-PVTZ
  Basis Set: (AUG-CC-PVTZ AUX)
    Blend: AUG-CC-PVTZ-JKFIT

    Orbital Energies [Eh]
    ---------------------

    Doubly Occupied:

       1A    -20.540040     2A    -15.562394     3A    -11.339856
       4A    -11.297840     5A    -11.258630     6A    -11.251803
       7A    -11.251463     8A    -11.250788     9A    -11.250243
      10A    -11.249196    11A    -11.247019    12A    -11.245006
      13A    -11.243557    14A    -11.235023    15A    -11.233059
      16A    -11.225841    17A     -1.372981    18A     -1.244596
      19A     -1.163595    20A     -1.142263    21A     -1.056369
      22A     -1.026334    23A     -1.022504    24A     -1.006565
      25A     -0.930345    26A     -0.887266    27A     -0.844548
      28A     -0.835533    29A     -0.809510    30A     -0.771506
      31A     -0.717855    32A     -0.699049    33A     -0.684658
      34A     -0.655186    35A     -0.645110    36A     -0.633253
      37A     -0.618909    38A     -0.615413    39A     -0.608121
      40A     -0.601545    41A     -0.596080    42A     -0.578332
      43A     -0.545920    44A     -0.542430    45A     -0.528722
      46A     -0.519340    47A     -0.512965    48A     -0.506818
      49A     -0.501270    50A     -0.486147    51A     -0.429732
      52A     -0.418122    53A     -0.350388    54A     -0.345387
      55A     -0.343210    56A     -0.291795

  @DF-RHF Final Energy:  -667.26016167527280

   => Energetics <=

    Nuclear Repulsion Energy =           1002.8456513613115249
    One-Electron Energy =               -2896.6687685630108717
    Two-Electron Energy =                1226.5629555264267765
    Total Energy =                       -667.2601616752726841
  Basis Set: (AUG-CC-PVTZ AUX)
    Blend: AUG-CC-PVTZ-RI
    Molecular point group: c1

    Geometry (in Angstrom), charge = 0, multiplicity = 1:

       Center              X                  Y                   Z               Mass
    ------------   -----------------  -----------------  -----------------  -----------------
         O           -0.037438611707    -1.995508238471    -0.448835476419    15.994914619570
         N            2.484878388293    -1.469687238471     0.412227523581    14.003074004430
         C            0.837480388293     0.215748761529    -0.207695476419    12.000000000000
         C            2.140742688293    -0.184872338471     0.065528723581    12.000000000000
         C           -0.251487611707    -0.784610238471    -0.253191476419    12.000000000000
         C           -1.664089611707    -0.339733238471    -0.050600476419    12.000000000000
         C            0.561860388293     1.551127761529    -0.554503476419    12.000000000000
         C            3.163956388293     0.841387761529     0.126372523581    12.000000000000
         C            1.555222388293     2.522683761529    -0.553069476419    12.000000000000
         C            2.857844388293     2.156783761529    -0.203888476419    12.000000000000
         C           -2.006149611707     0.645600761529     0.887844523581    12.000000000000
         C           -2.673870611707    -1.010956238471    -0.754610476419    12.000000000000
         C           -3.348064611707     0.960791761529     1.105895523581    12.000000000000
         C           -4.010222611707    -0.674987238471    -0.549389476419    12.000000000000
         C            3.855083388293    -1.918951238471     0.540187523581    12.000000000000
         C           -4.350407611707     0.310936761529     0.381951523581    12.000000000000
         H           -0.451931611707     1.818846761529    -0.838662476419     1.007825032230
         H            4.189214388293     0.584371761529     0.372522523581     1.007825032230
         H            1.807610388293    -2.140870238471     0.065226523581     1.007825032230
         H            1.323381388293     3.545874761529    -0.835379476419     1.007825032230
         H            3.647932388293     2.904756761529    -0.184212476419     1.007825032230
         H           -1.226664611707     1.142560761529     1.459579523581     1.007825032230
         H           -2.393060611707    -1.793084238471    -1.455262476419     1.007825032230
         H           -3.611943611707     1.714606761529     1.843914523581     1.007825032230
         H           -4.789648611707    -1.186311238471    -1.109340476419     1.007825032230
         H            4.460695388293    -1.713022238471    -0.354000476419     1.007825032230
         H            3.841198388293    -2.996687238471     0.710860523581     1.007825032230
         H            4.340684388293    -1.448913238471     1.401085523581     1.007825032230
         H           -5.394289611707     0.566770761529     0.547615523581     1.007825032230

  Basis Set: AUG-CC-PVTZ
    Blend: AUG-CC-PVTZ
  Basis Set: (AUG-CC-PVTZ AUX)
    Blend: AUG-CC-PVTZ-JKFIT
	 Reference Energy          =    -667.2601616752727978 [Eh]
	 Singles Energy            =      -0.0000000000000000 [Eh]
	 Same-Spin Energy          =      -0.7345282623977066 [Eh]
	 Opposite-Spin Energy      =      -2.2654964161355755 [Eh]
	 Correlation Energy        =      -3.0000246785332823 [Eh]
	 Total Energy              =    -670.2601863538060343 [Eh]

	 ================> DF-SCS-MP2 Energies <==================
	-----------------------------------------------------------
	 SCS Same-Spin Scale       =       0.3333333333333333 [-]
	 SCS Opposite-Spin Scale   =       1.2000000000000000 [-]
	 SCS Same-Spin Energy      =      -0.2448427541325689 [Eh]
	 SCS Opposite-Spin Energy  =      -2.7185956993626905 [Eh]
	 SCS Correlation Energy    =      -2.9634384534952596 [Eh]
	 SCS Total Energy          =    -670.2236001287681120 [Eh]
	-----------------------------------------------------------

  Dipole Moment: [D]
     X:     0.3550      Y:     1.1653      Z:     0.3502     Total:     1.2675

*** Psi4 exiting successfully. Buy a developer a beer!
