                               Psi4 1.3.2 release

  ==> Input File <==

--------------------------------------------------------------------------
#psi4
#
memory 32 gb

molecule  {
0 1
  O       -0.0649480    -2.0007500    -0.4572220
  N        2.4573690    -1.4749290     0.4038410
  C        0.8029302     0.1866911    -0.2140656
  C        2.1525410    -0.1743900     0.0797160
  C       -0.2789970    -0.7898520    -0.2615780
  C       -1.6915990    -0.3449750    -0.0589870
  C        0.5343510     1.5458860    -0.5628900
  C        3.1364470     0.8361460     0.1179860
  C        1.5277130     2.5174420    -0.5614560
  C        2.8303350     2.1515420    -0.2122750
  C       -2.0336590     0.6403590     0.8794580
  C       -2.7013800    -1.0161980    -0.7629970
  C       -3.3755740     0.9555500     1.0975090
  C       -4.0377320    -0.6802290    -0.5577760
  C        3.8275740    -1.9241930     0.5318010
  C       -4.3779170     0.3056950     0.3735650
  H       -0.4794410     1.8136050    -0.8470490
  H        4.1617050     0.5791300     0.3641360
  H        1.7801010    -2.1461120     0.0568400
  H        1.2958720     3.5406330    -0.8437660
  H        3.6204230     2.8995150    -0.1925990
  H       -1.2541740     1.1373190     1.4511930
  H       -2.4205700    -1.7983260    -1.4636490
  H       -3.6394530     1.7093650     1.8355280
  H       -4.8171580    -1.1915530    -1.1177270
  H        4.4331860    -1.7182640    -0.3623870
  H        3.8136890    -3.0019290     0.7024740
  H        4.3131750    -1.4541550     1.3926990
  H       -5.4217990     0.5615290     0.5392290
units angstrom
no_reorient  #important for SAPT in psi4, default
symmetry c1  #important for SAPT in psi4, default
}

set PROPERTIES_ORIGIN ["COM"]
properties('MP2/aug-cc-pvtz', properties = ['dipole'])
--------------------------------------------------------------------------

    Molecular point group: c1
  Charge       = 0
  Multiplicity = 1
  Basis Set: AUG-CC-PVTZ
    Blend: AUG-CC-PVTZ
  Basis Set: (AUG-CC-PVTZ AUX)
    Blend: AUG-CC-PVTZ-JKFIT

    Orbital Energies [Eh]
    ---------------------

    Doubly Occupied:

       1A    -20.537332     2A    -15.561943     3A    -11.337636
       4A    -11.298451     5A    -11.257092     6A    -11.255558
       7A    -11.254443     8A    -11.250968     9A    -11.249824
      10A    -11.248969    11A    -11.246555    12A    -11.244600
      13A    -11.243170    14A    -11.238200    15A    -11.229978
      16A    -11.226838    17A     -1.371465    18A     -1.244780
      19A     -1.163037    20A     -1.140659    21A     -1.056770
      22A     -1.025159    23A     -1.020470    24A     -1.010025
      25A     -0.930098    26A     -0.889908    27A     -0.845956
      28A     -0.834522    29A     -0.806584    30A     -0.771532
      31A     -0.718422    32A     -0.701763    33A     -0.682834
      34A     -0.656793    35A     -0.644746    36A     -0.633355
      37A     -0.619498    38A     -0.615486    39A     -0.607802
      40A     -0.601255    41A     -0.595624    42A     -0.576416
      43A     -0.545418    44A     -0.542838    45A     -0.530700
      46A     -0.520096    47A     -0.512216    48A     -0.503186
      49A     -0.500658    50A     -0.485458    51A     -0.429404
      52A     -0.419856    53A     -0.349288    54A     -0.344585
      55A     -0.342587    56A     -0.293171

  @DF-RHF Final Energy:  -667.26182930427797

   => Energetics <=

    Nuclear Repulsion Energy =           1002.5602361707484533
    One-Electron Energy =               -2896.1121671613759645
    Two-Electron Energy =                1226.2901016863495443
    Total Energy =                       -667.2618293042780806
  Basis Set: (AUG-CC-PVTZ AUX)
    Blend: AUG-CC-PVTZ-RI
    Molecular point group: c1

    Geometry (in Angstrom), charge = 0, multiplicity = 1:

       Center              X                  Y                   Z               Mass
    ------------   -----------------  -----------------  -----------------  -----------------
         O           -0.039272829255    -1.995048258691    -0.450233310620    15.994914619570
         N            2.483044170745    -1.469227258691     0.410829689380    14.003074004430
         C            0.828605370745     0.192392841309    -0.207076910620    12.000000000000
         C            2.178216170745    -0.168688258691     0.086704689380    12.000000000000
         C           -0.253321829255    -0.784150258691    -0.254589310620    12.000000000000
         C           -1.665923829255    -0.339273258691    -0.051998310620    12.000000000000
         C            0.560026170745     1.551587741309    -0.555901310620    12.000000000000
         C            3.162122170745     0.841847741309     0.124974689380    12.000000000000
         C            1.553388170745     2.523143741309    -0.554467310620    12.000000000000
         C            2.856010170745     2.157243741309    -0.205286310620    12.000000000000
         C           -2.007983829255     0.646060741309     0.886446689380    12.000000000000
         C           -2.675704829255    -1.010496258691    -0.756008310620    12.000000000000
         C           -3.349898829255     0.961251741309     1.104497689380    12.000000000000
         C           -4.012056829255    -0.674527258691    -0.550787310620    12.000000000000
         C            3.853249170745    -1.918491258691     0.538789689380    12.000000000000
         C           -4.352241829255     0.311396741309     0.380553689380    12.000000000000
         H           -0.453765829255     1.819306741309    -0.840060310620     1.007825032230
         H            4.187380170745     0.584831741309     0.371124689380     1.007825032230
         H            1.805776170745    -2.140410258691     0.063828689380     1.007825032230
         H            1.321547170745     3.546334741309    -0.836777310620     1.007825032230
         H            3.646098170745     2.905216741309    -0.185610310620     1.007825032230
         H           -1.228498829255     1.143020741309     1.458181689380     1.007825032230
         H           -2.394894829255    -1.792624258691    -1.456660310620     1.007825032230
         H           -3.613777829255     1.715066741309     1.842516689380     1.007825032230
         H           -4.791482829255    -1.185851258691    -1.110738310620     1.007825032230
         H            4.458861170745    -1.712562258691    -0.355398310620     1.007825032230
         H            3.839364170745    -2.996227258691     0.709462689380     1.007825032230
         H            4.338850170745    -1.448453258691     1.399687689380     1.007825032230
         H           -5.396123829255     0.567230741309     0.546217689380     1.007825032230

  Basis Set: AUG-CC-PVTZ
    Blend: AUG-CC-PVTZ
  Basis Set: (AUG-CC-PVTZ AUX)
    Blend: AUG-CC-PVTZ-JKFIT
	 Reference Energy          =    -667.2618293042779669 [Eh]
	 Singles Energy            =      -0.0000000000000000 [Eh]
	 Same-Spin Energy          =      -0.7347240080804508 [Eh]
	 Opposite-Spin Energy      =      -2.2655404470879463 [Eh]
	 Correlation Energy        =      -3.0002644551683972 [Eh]
	 Total Energy              =    -670.2620937594463157 [Eh]

	 ================> DF-SCS-MP2 Energies <==================
	-----------------------------------------------------------
	 SCS Same-Spin Scale       =       0.3333333333333333 [-]
	 SCS Opposite-Spin Scale   =       1.2000000000000000 [-]
	 SCS Same-Spin Energy      =      -0.2449080026934836 [Eh]
	 SCS Opposite-Spin Energy  =      -2.7186485365055355 [Eh]
	 SCS Correlation Energy    =      -2.9635565391990193 [Eh]
	 SCS Total Energy          =    -670.2253858434769427 [Eh]
	-----------------------------------------------------------

  Dipole Moment: [D]
     X:     0.4155      Y:     1.2630      Z:     0.3520     Total:     1.3754

*** Psi4 exiting successfully. Buy a developer a beer!
