                               Psi4 1.3.2 release

  ==> Input File <==

--------------------------------------------------------------------------
#psi4
#
memory 32 gb

molecule  {
0 1
  O       -0.0649480    -2.0007500    -0.4572220
  N        2.4573690    -1.4749290     0.4038410
  C        0.8099710     0.2105070    -0.2160820
  C        2.2465827    -0.2013505     0.1004355
  C       -0.2789970    -0.7898520    -0.2615780
  C       -1.6915990    -0.3449750    -0.0589870
  C        0.5343510     1.5458860    -0.5628900
  C        3.1364470     0.8361460     0.1179860
  C        1.5277130     2.5174420    -0.5614560
  C        2.8303350     2.1515420    -0.2122750
  C       -2.0336590     0.6403590     0.8794580
  C       -2.7013800    -1.0161980    -0.7629970
  C       -3.3755740     0.9555500     1.0975090
  C       -4.0377320    -0.6802290    -0.5577760
  C        3.8275740    -1.9241930     0.5318010
  C       -4.3779170     0.3056950     0.3735650
  H       -0.4794410     1.8136050    -0.8470490
  H        4.1617050     0.5791300     0.3641360
  H        1.7801010    -2.1461120     0.0568400
  H        1.2958720     3.5406330    -0.8437660
  H        3.6204230     2.8995150    -0.1925990
  H       -1.2541740     1.1373190     1.4511930
  H       -2.4205700    -1.7983260    -1.4636490
  H       -3.6394530     1.7093650     1.8355280
  H       -4.8171580    -1.1915530    -1.1177270
  H        4.4331860    -1.7182640    -0.3623870
  H        3.8136890    -3.0019290     0.7024740
  H        4.3131750    -1.4541550     1.3926990
  H       -5.4217990     0.5615290     0.5392290
units angstrom
no_reorient  #important for SAPT in psi4, default
symmetry c1  #important for SAPT in psi4, default
}

set PROPERTIES_ORIGIN ["COM"]
properties('MP2/aug-cc-pvtz', properties = ['dipole'])
--------------------------------------------------------------------------

    Molecular point group: c1
  Charge       = 0
  Multiplicity = 1
  Basis Set: AUG-CC-PVTZ
    Blend: AUG-CC-PVTZ
  Basis Set: (AUG-CC-PVTZ AUX)
    Blend: AUG-CC-PVTZ-JKFIT

    Orbital Energies [Eh]
    ---------------------

    Doubly Occupied:

       1A    -20.537328     2A    -15.568736     3A    -11.338279
       4A    -11.299045     5A    -11.259176     6A    -11.254939
       7A    -11.252844     8A    -11.250077     9A    -11.249202
      10A    -11.248148    11A    -11.245890    12A    -11.243905
      13A    -11.243257    14A    -11.242587    15A    -11.223347
      16A    -11.221069    17A     -1.370566    18A     -1.263692
      19A     -1.162190    20A     -1.138863    21A     -1.054048
      22A     -1.024227    23A     -1.018433    24A     -1.009189
      25A     -0.935977    26A     -0.890303    27A     -0.845445
      28A     -0.832055    29A     -0.802326    30A     -0.768489
      31A     -0.720346    32A     -0.710217    33A     -0.682564
      34A     -0.658881    35A     -0.644645    36A     -0.635275
      37A     -0.621176    38A     -0.619559    39A     -0.607837
      40A     -0.596883    41A     -0.594808    42A     -0.575580
      43A     -0.545828    44A     -0.542731    45A     -0.535887
      46A     -0.519765    47A     -0.511905    48A     -0.500279
      49A     -0.492154    50A     -0.483756    51A     -0.437765
      52A     -0.416710    53A     -0.349898    54A     -0.343901
      55A     -0.342305    56A     -0.287658

  @DF-RHF Final Energy:  -667.25133847578309

   => Energetics <=

    Nuclear Repulsion Energy =           1001.7856759367576842
    One-Electron Energy =               -2894.5301387164831795
    Two-Electron Energy =                1225.4931243039422952
    Total Energy =                       -667.2513384757830863
  Basis Set: (AUG-CC-PVTZ AUX)
    Blend: AUG-CC-PVTZ-RI
    Molecular point group: c1

    Geometry (in Angstrom), charge = 0, multiplicity = 1:

       Center              X                  Y                   Z               Mass
    ------------   -----------------  -----------------  -----------------  -----------------
         O           -0.045018881567    -1.994869503357    -0.451296491596    15.994914619570
         N            2.477298118433    -1.469048503357     0.409766508404    14.003074004430
         C            0.829900118433     0.216387496643    -0.210156491596    12.000000000000
         C            2.266511818433    -0.195470003357     0.106361008404    12.000000000000
         C           -0.259067881567    -0.783971503357    -0.255652491596    12.000000000000
         C           -1.671669881567    -0.339094503357    -0.053061491596    12.000000000000
         C            0.554280118433     1.551766496643    -0.556964491596    12.000000000000
         C            3.156376118433     0.842026496643     0.123911508404    12.000000000000
         C            1.547642118433     2.523322496643    -0.555530491596    12.000000000000
         C            2.850264118433     2.157422496643    -0.206349491596    12.000000000000
         C           -2.013729881567     0.646239496643     0.885383508404    12.000000000000
         C           -2.681450881567    -1.010317503357    -0.757071491596    12.000000000000
         C           -3.355644881567     0.961430496643     1.103434508404    12.000000000000
         C           -4.017802881567    -0.674348503357    -0.551850491596    12.000000000000
         C            3.847503118433    -1.918312503357     0.537726508404    12.000000000000
         C           -4.357987881567     0.311575496643     0.379490508404    12.000000000000
         H           -0.459511881567     1.819485496643    -0.841123491596     1.007825032230
         H            4.181634118433     0.585010496643     0.370061508404     1.007825032230
         H            1.800030118433    -2.140231503357     0.062765508404     1.007825032230
         H            1.315801118433     3.546513496643    -0.837840491596     1.007825032230
         H            3.640352118433     2.905395496643    -0.186673491596     1.007825032230
         H           -1.234244881567     1.143199496643     1.457118508404     1.007825032230
         H           -2.400640881567    -1.792445503357    -1.457723491596     1.007825032230
         H           -3.619523881567     1.715245496643     1.841453508404     1.007825032230
         H           -4.797228881567    -1.185672503357    -1.111801491596     1.007825032230
         H            4.453115118433    -1.712383503357    -0.356461491596     1.007825032230
         H            3.833618118433    -2.996048503357     0.708399508404     1.007825032230
         H            4.333104118433    -1.448274503357     1.398624508404     1.007825032230
         H           -5.401869881567     0.567409496643     0.545154508404     1.007825032230

  Basis Set: AUG-CC-PVTZ
    Blend: AUG-CC-PVTZ
  Basis Set: (AUG-CC-PVTZ AUX)
    Blend: AUG-CC-PVTZ-JKFIT
	 Reference Energy          =    -667.2513384757830863 [Eh]
	 Singles Energy            =      -0.0000000000000000 [Eh]
	 Same-Spin Energy          =      -0.7349807921625591 [Eh]
	 Opposite-Spin Energy      =      -2.2657890856742973 [Eh]
	 Correlation Energy        =      -3.0007698778368566 [Eh]
	 Total Energy              =    -670.2521083536199740 [Eh]

	 ================> DF-SCS-MP2 Energies <==================
	-----------------------------------------------------------
	 SCS Same-Spin Scale       =       0.3333333333333333 [-]
	 SCS Opposite-Spin Scale   =       1.2000000000000000 [-]
	 SCS Same-Spin Energy      =      -0.2449935973875197 [Eh]
	 SCS Opposite-Spin Energy  =      -2.7189469028091566 [Eh]
	 SCS Correlation Energy    =      -2.9639405001966761 [Eh]
	 SCS Total Energy          =    -670.2152789759797997 [Eh]
	-----------------------------------------------------------

  Dipole Moment: [D]
     X:     0.4696      Y:     0.9756      Z:     0.4164     Total:     1.1601

*** Psi4 exiting successfully. Buy a developer a beer!
