                               Psi4 1.4a2.dev612

  ==> Input File <==

--------------------------------------------------------------------------
#psi4
#
memory 32 gb

molecule  {
0 1
  O       -0.0649480    -2.0007500    -0.4572220
  N        2.4573690    -1.4749290     0.4038410
  C        0.8099710     0.2105070    -0.2160820
  C        2.1525410    -0.1743900     0.0797160
  C       -0.3140542    -0.8557266    -0.3344979
  C       -1.6915990    -0.3449750    -0.0589870
  C        0.5343510     1.5458860    -0.5628900
  C        3.1364470     0.8361460     0.1179860
  C        1.5277130     2.5174420    -0.5614560
  C        2.8303350     2.1515420    -0.2122750
  C       -2.0336590     0.6403590     0.8794580
  C       -2.7013800    -1.0161980    -0.7629970
  C       -3.3755740     0.9555500     1.0975090
  C       -4.0377320    -0.6802290    -0.5577760
  C        3.8275740    -1.9241930     0.5318010
  C       -4.3779170     0.3056950     0.3735650
  H       -0.4794410     1.8136050    -0.8470490
  H        4.1617050     0.5791300     0.3641360
  H        1.7801010    -2.1461120     0.0568400
  H        1.2958720     3.5406330    -0.8437660
  H        3.6204230     2.8995150    -0.1925990
  H       -1.2541740     1.1373190     1.4511930
  H       -2.4205700    -1.7983260    -1.4636490
  H       -3.6394530     1.7093650     1.8355280
  H       -4.8171580    -1.1915530    -1.1177270
  H        4.4331860    -1.7182640    -0.3623870
  H        3.8136890    -3.0019290     0.7024740
  H        4.3131750    -1.4541550     1.3926990
  H       -5.4217990     0.5615290     0.5392290
units angstrom
no_reorient  #important for SAPT in psi4, default
symmetry c1  #important for SAPT in psi4, default
}

set PROPERTIES_ORIGIN ["COM"]
properties('MP2/aug-cc-pvtz', properties = ['dipole'])
--------------------------------------------------------------------------

    Molecular point group: c1
  Charge       = 0
  Multiplicity = 1
  Basis Set: AUG-CC-PVTZ
    Blend: AUG-CC-PVTZ
  Basis Set: (AUG-CC-PVTZ AUX)
    Blend: AUG-CC-PVTZ-JKFIT

    Orbital Energies [Eh]
    ---------------------

    Doubly Occupied:

       1A    -20.551258     2A    -15.559654     3A    -11.340334
       4A    -11.291375     5A    -11.255770     6A    -11.253222
       7A    -11.250815     8A    -11.249039     9A    -11.247040
      10A    -11.246763    11A    -11.246636    12A    -11.246332
      13A    -11.244046    14A    -11.236822    15A    -11.225259
      16A    -11.222177    17A     -1.422808    18A     -1.242130
      19A     -1.164370    20A     -1.136433    21A     -1.051067
      22A     -1.026600    23A     -1.016142    24A     -1.005817
      25A     -0.925420    26A     -0.883330    27A     -0.844840
      28A     -0.831918    29A     -0.803564    30A     -0.770688
      31A     -0.717257    32A     -0.700446    33A     -0.685455
      34A     -0.660394    35A     -0.651151    36A     -0.634094
      37A     -0.618472    38A     -0.613776    39A     -0.613196
      40A     -0.602271    41A     -0.597271    42A     -0.576777
      43A     -0.560703    44A     -0.540132    45A     -0.532671
      46A     -0.520701    47A     -0.512514    48A     -0.503648
      49A     -0.501847    50A     -0.494952    51A     -0.426717
      52A     -0.410598    53A     -0.348469    54A     -0.346857
      55A     -0.342090    56A     -0.288284

  @DF-RHF Final Energy:  -667.25870512288839

   => Energetics <=

    Nuclear Repulsion Energy =           1002.3012196734160852
    One-Electron Energy =               -2895.5350232256919298
    Two-Electron Energy =                1225.9750984293873444
    Total Energy =                       -667.2587051228883865
  Basis Set: (AUG-CC-PVTZ AUX)
    Blend: AUG-CC-PVTZ-RI
    Molecular point group: c1

    Geometry (in Angstrom), charge = 0, multiplicity = 1:

       Center              X                  Y                   Z               Mass
    ------------   -----------------  -----------------  -----------------  -----------------
         O           -0.037680232119    -1.992657424567    -0.445973543599    15.994914619570
         N            2.484636767881    -1.466836424567     0.415089456401    14.003074004430
         C            0.837238767881     0.218599575433    -0.204833543599    12.000000000000
         C            2.179808767881    -0.166297424567     0.090964456401    12.000000000000
         C           -0.286786432119    -0.847634024567    -0.323249443599    12.000000000000
         C           -1.664331232119    -0.336882424567    -0.047738543599    12.000000000000
         C            0.561618767881     1.553978575433    -0.551641543599    12.000000000000
         C            3.163714767881     0.844238575433     0.129234456401    12.000000000000
         C            1.554980767881     2.525534575433    -0.550207543599    12.000000000000
         C            2.857602767881     2.159634575433    -0.201026543599    12.000000000000
         C           -2.006391232119     0.648451575433     0.890706456401    12.000000000000
         C           -2.674112232119    -1.008105424567    -0.751748543599    12.000000000000
         C           -3.348306232119     0.963642575433     1.108757456401    12.000000000000
         C           -4.010464232119    -0.672136424567    -0.546527543599    12.000000000000
         C            3.854841767881    -1.916100424567     0.543049456401    12.000000000000
         C           -4.350649232119     0.313787575433     0.384813456401    12.000000000000
         H           -0.452173232119     1.821697575433    -0.835800543599     1.007825032230
         H            4.188972767881     0.587222575433     0.375384456401     1.007825032230
         H            1.807368767881    -2.138019424567     0.068088456401     1.007825032230
         H            1.323139767881     3.548725575433    -0.832517543599     1.007825032230
         H            3.647690767881     2.907607575433    -0.181350543599     1.007825032230
         H           -1.226906232119     1.145411575433     1.462441456401     1.007825032230
         H           -2.393302232119    -1.790233424567    -1.452400543599     1.007825032230
         H           -3.612185232119     1.717457575433     1.846776456401     1.007825032230
         H           -4.789890232119    -1.183460424567    -1.106478543599     1.007825032230
         H            4.460453767881    -1.710171424567    -0.351138543599     1.007825032230
         H            3.840956767881    -2.993836424567     0.713722456401     1.007825032230
         H            4.340442767881    -1.446062424567     1.403947456401     1.007825032230
         H           -5.394531232119     0.569621575433     0.550477456401     1.007825032230

  Basis Set: AUG-CC-PVTZ
    Blend: AUG-CC-PVTZ
  Basis Set: (AUG-CC-PVTZ AUX)
    Blend: AUG-CC-PVTZ-JKFIT
	 Reference Energy          =    -667.2587051228883865 [Eh]
	 Singles Energy            =      -0.0000000000000000 [Eh]
	 Same-Spin Energy          =      -0.7328547574352229 [Eh]
	 Opposite-Spin Energy      =      -2.2619586527829845 [Eh]
	 Correlation Energy        =      -2.9948134102182076 [Eh]
	 Total Energy              =    -670.2535185331065577 [Eh]

	 ================> DF-SCS-MP2 Energies <==================
	-----------------------------------------------------------
	 SCS Same-Spin Scale       =       0.3333333333333333 [-]
	 SCS Opposite-Spin Scale   =       1.2000000000000000 [-]
	 SCS Same-Spin Energy      =      -0.2442849191450743 [Eh]
	 SCS Opposite-Spin Energy  =      -2.7143503833395815 [Eh]
	 SCS Correlation Energy    =      -2.9586353024846557 [Eh]
	 SCS Total Energy          =    -670.2173404253730951 [Eh]
	-----------------------------------------------------------

  Dipole Moment: [D]
     X:    -0.0838      Y:     0.7880      Z:     0.2585     Total:     0.8336

*** Psi4 exiting successfully. Buy a developer a beer!
