                               Psi4 1.3.2 release

  ==> Input File <==

--------------------------------------------------------------------------
#psi4
#
memory 32 gb

molecule  {
0 1
  O       -0.0649480    -2.0007500    -0.4572220
  N        2.4573690    -1.4749290     0.4038410
  C        0.8099710     0.2105070    -0.2160820
  C        2.2943014    -0.1501620     0.0755420
  C       -0.2789970    -0.7898520    -0.2615780
  C       -1.6915990    -0.3449750    -0.0589870
  C        0.5343510     1.5458860    -0.5628900
  C        3.1364470     0.8361460     0.1179860
  C        1.5277130     2.5174420    -0.5614560
  C        2.8303350     2.1515420    -0.2122750
  C       -2.0336590     0.6403590     0.8794580
  C       -2.7013800    -1.0161980    -0.7629970
  C       -3.3755740     0.9555500     1.0975090
  C       -4.0377320    -0.6802290    -0.5577760
  C        3.8275740    -1.9241930     0.5318010
  C       -4.3779170     0.3056950     0.3735650
  H       -0.4794410     1.8136050    -0.8470490
  H        4.1617050     0.5791300     0.3641360
  H        1.7801010    -2.1461120     0.0568400
  H        1.2958720     3.5406330    -0.8437660
  H        3.6204230     2.8995150    -0.1925990
  H       -1.2541740     1.1373190     1.4511930
  H       -2.4205700    -1.7983260    -1.4636490
  H       -3.6394530     1.7093650     1.8355280
  H       -4.8171580    -1.1915530    -1.1177270
  H        4.4331860    -1.7182640    -0.3623870
  H        3.8136890    -3.0019290     0.7024740
  H        4.3131750    -1.4541550     1.3926990
  H       -5.4217990     0.5615290     0.5392290
units angstrom
no_reorient  #important for SAPT in psi4, default
symmetry c1  #important for SAPT in psi4, default
}

set PROPERTIES_ORIGIN ["COM"]
properties('MP2/aug-cc-pvtz', properties = ['dipole'])
--------------------------------------------------------------------------

    Molecular point group: c1
  Charge       = 0
  Multiplicity = 1
  Basis Set: AUG-CC-PVTZ
    Blend: AUG-CC-PVTZ
  Basis Set: (AUG-CC-PVTZ AUX)
    Blend: AUG-CC-PVTZ-JKFIT

    Orbital Energies [Eh]
    ---------------------

    Doubly Occupied:

       1A    -20.538435     2A    -15.560016     3A    -11.340508
       4A    -11.292506     5A    -11.258149     6A    -11.255037
       7A    -11.251955     8A    -11.251088     9A    -11.250034
      10A    -11.249483    11A    -11.248119    12A    -11.246862
      13A    -11.244710    14A    -11.243393    15A    -11.228404
      16A    -11.215415    17A     -1.370950    18A     -1.244512
      19A     -1.163221    20A     -1.143561    21A     -1.057755
      22A     -1.028288    23A     -1.023361    24A     -1.008453
      25A     -0.926344    26A     -0.894751    27A     -0.847043
      28A     -0.833059    29A     -0.799902    30A     -0.768159
      31A     -0.719272    32A     -0.709781    33A     -0.681371
      34A     -0.657523    35A     -0.643725    36A     -0.635975
      37A     -0.624492    38A     -0.612031    39A     -0.607881
      40A     -0.597430    41A     -0.595777    42A     -0.574916
      43A     -0.544393    44A     -0.542050    45A     -0.534946
      46A     -0.521010    47A     -0.513070    48A     -0.501210
      49A     -0.492456    50A     -0.478247    51A     -0.430191
      52A     -0.418987    53A     -0.352941    54A     -0.344760
      55A     -0.343504    56A     -0.294105

  @DF-RHF Final Energy:  -667.23781211400569

   => Energetics <=

    Nuclear Repulsion Energy =           1001.4866903281744044
    One-Electron Energy =               -2893.9379748563837893
    Two-Electron Energy =                1225.2134724142035793
    Total Energy =                       -667.2378121140056919
  Basis Set: (AUG-CC-PVTZ AUX)
    Blend: AUG-CC-PVTZ-RI
    Molecular point group: c1

    Geometry (in Angstrom), charge = 0, multiplicity = 1:

       Center              X                  Y                   Z               Mass
    ------------   -----------------  -----------------  -----------------  -----------------
         O           -0.047731459377    -1.997779322552    -0.449881416254    15.994914619570
         N            2.474585540623    -1.471958322552     0.411181583746    14.003074004430
         C            0.827187540623     0.213477677448    -0.208741416254    12.000000000000
         C            2.311517940623    -0.147191322552     0.082882583746    12.000000000000
         C           -0.261780459377    -0.786881322552    -0.254237416254    12.000000000000
         C           -1.674382459377    -0.342004322552    -0.051646416254    12.000000000000
         C            0.551567540623     1.548856677448    -0.555549416254    12.000000000000
         C            3.153663540623     0.839116677448     0.125326583746    12.000000000000
         C            1.544929540623     2.520412677448    -0.554115416254    12.000000000000
         C            2.847551540623     2.154512677448    -0.204934416254    12.000000000000
         C           -2.016442459377     0.643329677448     0.886798583746    12.000000000000
         C           -2.684163459377    -1.013227322552    -0.755656416254    12.000000000000
         C           -3.358357459377     0.958520677448     1.104849583746    12.000000000000
         C           -4.020515459377    -0.677258322552    -0.550435416254    12.000000000000
         C            3.844790540623    -1.921222322552     0.539141583746    12.000000000000
         C           -4.360700459377     0.308665677448     0.380905583746    12.000000000000
         H           -0.462224459377     1.816575677448    -0.839708416254     1.007825032230
         H            4.178921540623     0.582100677448     0.371476583746     1.007825032230
         H            1.797317540623    -2.143141322552     0.064180583746     1.007825032230
         H            1.313088540623     3.543603677448    -0.836425416254     1.007825032230
         H            3.637639540623     2.902485677448    -0.185258416254     1.007825032230
         H           -1.236957459377     1.140289677448     1.458533583746     1.007825032230
         H           -2.403353459377    -1.795355322552    -1.456308416254     1.007825032230
         H           -3.622236459377     1.712335677448     1.842868583746     1.007825032230
         H           -4.799941459377    -1.188582322552    -1.110386416254     1.007825032230
         H            4.450402540623    -1.715293322552    -0.355046416254     1.007825032230
         H            3.830905540623    -2.998958322552     0.709814583746     1.007825032230
         H            4.330391540623    -1.451184322552     1.400039583746     1.007825032230
         H           -5.404582459377     0.564499677448     0.546569583746     1.007825032230

  Basis Set: AUG-CC-PVTZ
    Blend: AUG-CC-PVTZ
  Basis Set: (AUG-CC-PVTZ AUX)
    Blend: AUG-CC-PVTZ-JKFIT
	 Reference Energy          =    -667.2378121140056919 [Eh]
	 Singles Energy            =      -0.0000000000000000 [Eh]
	 Same-Spin Energy          =      -0.7346998122840138 [Eh]
	 Opposite-Spin Energy      =      -2.2664200201877516 [Eh]
	 Correlation Energy        =      -3.0011198324717654 [Eh]
	 Total Energy              =    -670.2389319464774644 [Eh]

	 ================> DF-SCS-MP2 Energies <==================
	-----------------------------------------------------------
	 SCS Same-Spin Scale       =       0.3333333333333333 [-]
	 SCS Opposite-Spin Scale   =       1.2000000000000000 [-]
	 SCS Same-Spin Energy      =      -0.2448999374280046 [Eh]
	 SCS Opposite-Spin Energy  =      -2.7197040242253019 [Eh]
	 SCS Correlation Energy    =      -2.9646039616533066 [Eh]
	 SCS Total Energy          =    -670.2024160756590163 [Eh]
	-----------------------------------------------------------

  Dipole Moment: [D]
     X:     0.2205      Y:     1.3660      Z:     0.2958     Total:     1.4150

*** Psi4 exiting successfully. Buy a developer a beer!
