                               Psi4 1.3.2 release

  ==> Input File <==

--------------------------------------------------------------------------
#psi4
#
memory 32 gb

molecule  {
0 1
  O       -0.0649480    -2.0007500    -0.4572220
  N        2.4573690    -1.4749290     0.4038410
  C        0.8099710     0.2105070    -0.2160820
  C        2.1525410    -0.1743900     0.0797160
  C       -0.2789970    -0.7898520    -0.2615780
  C       -1.6915990    -0.3449750    -0.0589870
  C        0.5343510     1.5458860    -0.5628900
  C        3.1364470     0.8361460     0.1179860
  C        1.5277130     2.5174420    -0.5614560
  C        2.8303350     2.1515420    -0.2122750
  C       -2.0336590     0.6403590     0.8794580
  C       -2.7013800    -1.0161980    -0.7629970
  C       -3.3755740     0.9555500     1.0975090
  C       -4.0377320    -0.6802290    -0.5577760
  C        4.0168754    -1.9862613     0.5494794
  C       -4.3779170     0.3056950     0.3735650
  H       -0.4794410     1.8136050    -0.8470490
  H        4.1617050     0.5791300     0.3641360
  H        1.7801010    -2.1461120     0.0568400
  H        1.2958720     3.5406330    -0.8437660
  H        3.6204230     2.8995150    -0.1925990
  H       -1.2541740     1.1373190     1.4511930
  H       -2.4205700    -1.7983260    -1.4636490
  H       -3.6394530     1.7093650     1.8355280
  H       -4.8171580    -1.1915530    -1.1177270
  H        4.4331860    -1.7182640    -0.3623870
  H        3.8136890    -3.0019290     0.7024740
  H        4.3131750    -1.4541550     1.3926990
  H       -5.4217990     0.5615290     0.5392290
units angstrom
no_reorient  #important for SAPT in psi4, default
symmetry c1  #important for SAPT in psi4, default
}

set PROPERTIES_ORIGIN ["COM"]
properties('MP2/aug-cc-pvtz', properties = ['dipole'])
--------------------------------------------------------------------------

    Molecular point group: c1
  Charge       = 0
  Multiplicity = 1
  Basis Set: AUG-CC-PVTZ
    Blend: AUG-CC-PVTZ
  Basis Set: (AUG-CC-PVTZ AUX)
    Blend: AUG-CC-PVTZ-JKFIT

    Orbital Energies [Eh]
    ---------------------

    Doubly Occupied:

       1A    -20.535835     2A    -15.557277     3A    -11.336318
       4A    -11.293379     5A    -11.264996     6A    -11.249970
       7A    -11.249523     8A    -11.249131     9A    -11.248251
      10A    -11.246964    11A    -11.244837    12A    -11.243027
      13A    -11.241642    14A    -11.233434    15A    -11.225275
      16A    -11.221477    17A     -1.368540    18A     -1.216311
      19A     -1.161010    20A     -1.131564    21A     -1.053086
      22A     -1.023213    23A     -1.017458    24A     -1.001948
      25A     -0.943966    26A     -0.886282    27A     -0.842175
      28A     -0.832570    29A     -0.804339    30A     -0.767042
      31A     -0.714092    32A     -0.694153    33A     -0.676127
      34A     -0.648234    35A     -0.638325    36A     -0.632521
      37A     -0.629043    38A     -0.622581    39A     -0.604200
      40A     -0.595452    41A     -0.594241    42A     -0.574747
      43A     -0.545869    44A     -0.542852    45A     -0.527078
      46A     -0.520071    47A     -0.512415    48A     -0.499351
      49A     -0.492350    50A     -0.484972    51A     -0.431933
      52A     -0.414133    53A     -0.347999    54A     -0.342821
      55A     -0.341147    56A     -0.285985

  @DF-RHF Final Energy:  -667.23432996410679

   => Energetics <=

    Nuclear Repulsion Energy =            998.5803402135961733
    One-Electron Energy =               -2888.4222713994731748
    Two-Electron Energy =                1222.6076012217702100
    Total Energy =                       -667.2343299641067915
  Basis Set: (AUG-CC-PVTZ AUX)
    Blend: AUG-CC-PVTZ-RI
    Molecular point group: c1

    Geometry (in Angstrom), charge = 0, multiplicity = 1:

       Center              X                  Y                   Z               Mass
    ------------   -----------------  -----------------  -----------------  -----------------
         O           -0.050433935800    -1.992873794353    -0.451123619737    15.994914619570
         N            2.471883064200    -1.467052794353     0.409939380263    14.003074004430
         C            0.824485064200     0.218383205647    -0.209983619737    12.000000000000
         C            2.167055064200    -0.166513794353     0.085814380263    12.000000000000
         C           -0.264482935800    -0.781975794353    -0.255479619737    12.000000000000
         C           -1.677084935800    -0.337098794353    -0.052888619737    12.000000000000
         C            0.548865064200     1.553762205647    -0.556791619737    12.000000000000
         C            3.150961064200     0.844022205647     0.124084380263    12.000000000000
         C            1.542227064200     2.525318205647    -0.555357619737    12.000000000000
         C            2.844849064200     2.159418205647    -0.206176619737    12.000000000000
         C           -2.019144935800     0.648235205647     0.885556380263    12.000000000000
         C           -2.686865935800    -1.008321794353    -0.756898619737    12.000000000000
         C           -3.361059935800     0.963426205647     1.103607380263    12.000000000000
         C           -4.023217935800    -0.672352794353    -0.551677619737    12.000000000000
         C            4.031389464200    -1.978385094353     0.555577780263    12.000000000000
         C           -4.363402935800     0.313571205647     0.379663380263    12.000000000000
         H           -0.464926935800     1.821481205647    -0.840950619737     1.007825032230
         H            4.176219064200     0.587006205647     0.370234380263     1.007825032230
         H            1.794615064200    -2.138235794353     0.062938380263     1.007825032230
         H            1.310386064200     3.548509205647    -0.837667619737     1.007825032230
         H            3.634937064200     2.907391205647    -0.186500619737     1.007825032230
         H           -1.239659935800     1.145195205647     1.457291380263     1.007825032230
         H           -2.406055935800    -1.790449794353    -1.457550619737     1.007825032230
         H           -3.624938935800     1.717241205647     1.841626380263     1.007825032230
         H           -4.802643935800    -1.183676794353    -1.111628619737     1.007825032230
         H            4.447700064200    -1.710387794353    -0.356288619737     1.007825032230
         H            3.828203064200    -2.994052794353     0.708572380263     1.007825032230
         H            4.327689064200    -1.446278794353     1.398797380263     1.007825032230
         H           -5.407284935800     0.569405205647     0.545327380263     1.007825032230

  Basis Set: AUG-CC-PVTZ
    Blend: AUG-CC-PVTZ
  Basis Set: (AUG-CC-PVTZ AUX)
    Blend: AUG-CC-PVTZ-JKFIT
	 Reference Energy          =    -667.2343299641067915 [Eh]
	 Singles Energy            =      -0.0000000000000000 [Eh]
	 Same-Spin Energy          =      -0.7346632881106647 [Eh]
	 Opposite-Spin Energy      =      -2.2676718027377074 [Eh]
	 Correlation Energy        =      -3.0023350908483719 [Eh]
	 Total Energy              =    -670.2366650549552105 [Eh]

	 ================> DF-SCS-MP2 Energies <==================
	-----------------------------------------------------------
	 SCS Same-Spin Scale       =       0.3333333333333333 [-]
	 SCS Opposite-Spin Scale   =       1.2000000000000000 [-]
	 SCS Same-Spin Energy      =      -0.2448877627035549 [Eh]
	 SCS Opposite-Spin Energy  =      -2.7212061632852489 [Eh]
	 SCS Correlation Energy    =      -2.9660939259888037 [Eh]
	 SCS Total Energy          =    -670.2004238900956352 [Eh]
	-----------------------------------------------------------

  Dipole Moment: [D]
     X:     0.9102      Y:     0.8854      Z:     0.4069     Total:     1.3334

*** Psi4 exiting successfully. Buy a developer a beer!
