                               Psi4 1.4a2.dev612

  ==> Input File <==

--------------------------------------------------------------------------
#psi4
#
memory 32 gb

molecule  {
0 1
  O       -0.0649480    -2.0007500    -0.4572220
  N        2.4573690    -1.4749290     0.4038410
  C        0.8099710     0.2105070    -0.2160820
  C        2.1525410    -0.1743900     0.0797160
  C       -0.2789970    -0.7898520    -0.2615780
  C       -1.6915990    -0.3449750    -0.0589870
  C        0.5343510     1.5458860    -0.5628900
  C        3.1364470     0.8361460     0.1179860
  C        1.5277130     2.5174420    -0.5614560
  C        2.8303350     2.1515420    -0.2122750
  C       -2.0580386     0.7105867     0.9463438
  C       -2.7013800    -1.0161980    -0.7629970
  C       -3.3755740     0.9555500     1.0975090
  C       -4.0377320    -0.6802290    -0.5577760
  C        3.8275740    -1.9241930     0.5318010
  C       -4.3779170     0.3056950     0.3735650
  H       -0.4794410     1.8136050    -0.8470490
  H        4.1617050     0.5791300     0.3641360
  H        1.7801010    -2.1461120     0.0568400
  H        1.2958720     3.5406330    -0.8437660
  H        3.6204230     2.8995150    -0.1925990
  H       -1.2541740     1.1373190     1.4511930
  H       -2.4205700    -1.7983260    -1.4636490
  H       -3.6394530     1.7093650     1.8355280
  H       -4.8171580    -1.1915530    -1.1177270
  H        4.4331860    -1.7182640    -0.3623870
  H        3.8136890    -3.0019290     0.7024740
  H        4.3131750    -1.4541550     1.3926990
  H       -5.4217990     0.5615290     0.5392290
units angstrom
no_reorient  #important for SAPT in psi4, default
symmetry c1  #important for SAPT in psi4, default
}

set PROPERTIES_ORIGIN ["COM"]
properties('MP2/aug-cc-pvtz', properties = ['dipole'])
--------------------------------------------------------------------------

    Molecular point group: c1
  Charge       = 0
  Multiplicity = 1
  Basis Set: AUG-CC-PVTZ
    Blend: AUG-CC-PVTZ
  Basis Set: (AUG-CC-PVTZ AUX)
    Blend: AUG-CC-PVTZ-JKFIT

    Orbital Energies [Eh]
    ---------------------

    Doubly Occupied:

       1A    -20.538630     2A    -15.561723     3A    -11.339540
       4A    -11.297096     5A    -11.256984     6A    -11.256937
       7A    -11.252576     8A    -11.252510     9A    -11.251955
      10A    -11.251460    11A    -11.248075    12A    -11.245289
      13A    -11.241027    14A    -11.238532    15A    -11.228895
      16A    -11.225935    17A     -1.371449    18A     -1.244243
      19A     -1.159122    20A     -1.142011    21A     -1.052461
      22A     -1.033742    23A     -1.015881    24A     -1.009818
      25A     -0.929415    26A     -0.890448    27A     -0.849125
      28A     -0.830797    29A     -0.806393    30A     -0.768011
      31A     -0.718529    32A     -0.702923    33A     -0.687285
      34A     -0.656673    35A     -0.645752    36A     -0.633309
      37A     -0.619902    38A     -0.614949    39A     -0.603959
      40A     -0.603037    41A     -0.597490    42A     -0.577332
      43A     -0.547416    44A     -0.542157    45A     -0.532096
      46A     -0.524754    47A     -0.511008    48A     -0.503968
      49A     -0.491169    50A     -0.484772    51A     -0.429401
      52A     -0.418103    53A     -0.355053    54A     -0.347812
      55A     -0.335143    56A     -0.291865

  @DF-RHF Final Energy:  -667.25094320889912

   => Energetics <=

    Nuclear Repulsion Energy =           1001.0221423466996384
    One-Electron Energy =               -2893.0142949017017600
    Two-Electron Energy =                1224.7412093461030054
    Total Energy =                       -667.2509432088991161
  Basis Set: (AUG-CC-PVTZ AUX)
    Blend: AUG-CC-PVTZ-RI
    Molecular point group: c1

    Geometry (in Angstrom), charge = 0, multiplicity = 1:

       Center              X                  Y                   Z               Mass
    ------------   -----------------  -----------------  -----------------  -----------------
         O           -0.038287202150    -2.000394183507    -0.453920822957    15.994914619570
         N            2.484029797850    -1.474573183507     0.407142177043    14.003074004430
         C            0.836631797850     0.210862816493    -0.212780822957    12.000000000000
         C            2.179201797850    -0.174034183507     0.083017177043    12.000000000000
         C           -0.252336202150    -0.789496183507    -0.258276822957    12.000000000000
         C           -1.664938202150    -0.344619183507    -0.055685822957    12.000000000000
         C            0.561011797850     1.546241816493    -0.559588822957    12.000000000000
         C            3.163107797850     0.836501816493     0.121287177043    12.000000000000
         C            1.554373797850     2.517797816493    -0.558154822957    12.000000000000
         C            2.856995797850     2.151897816493    -0.208973822957    12.000000000000
         C           -2.031377802150     0.710942516493     0.949644977043    12.000000000000
         C           -2.674719202150    -1.015842183507    -0.759695822957    12.000000000000
         C           -3.348913202150     0.955905816493     1.100810177043    12.000000000000
         C           -4.011071202150    -0.679873183507    -0.554474822957    12.000000000000
         C            3.854234797850    -1.923837183507     0.535102177043    12.000000000000
         C           -4.351256202150     0.306050816493     0.376866177043    12.000000000000
         H           -0.452780202150     1.813960816493    -0.843747822957     1.007825032230
         H            4.188365797850     0.579485816493     0.367437177043     1.007825032230
         H            1.806761797850    -2.145756183507     0.060141177043     1.007825032230
         H            1.322532797850     3.540988816493    -0.840464822957     1.007825032230
         H            3.647083797850     2.899870816493    -0.189297822957     1.007825032230
         H           -1.227513202150     1.137674816493     1.454494177043     1.007825032230
         H           -2.393909202150    -1.797970183507    -1.460347822957     1.007825032230
         H           -3.612792202150     1.709720816493     1.838829177043     1.007825032230
         H           -4.790497202150    -1.191197183507    -1.114425822957     1.007825032230
         H            4.459846797850    -1.717908183507    -0.359085822957     1.007825032230
         H            3.840349797850    -3.001573183507     0.705775177043     1.007825032230
         H            4.339835797850    -1.453799183507     1.396000177043     1.007825032230
         H           -5.395138202150     0.561884816493     0.542530177043     1.007825032230

  Basis Set: AUG-CC-PVTZ
    Blend: AUG-CC-PVTZ
  Basis Set: (AUG-CC-PVTZ AUX)
    Blend: AUG-CC-PVTZ-JKFIT
	 Reference Energy          =    -667.2509432088991161 [Eh]
	 Singles Energy            =      -0.0000000000000000 [Eh]
	 Same-Spin Energy          =      -0.7346128046075290 [Eh]
	 Opposite-Spin Energy      =      -2.2661906424292177 [Eh]
	 Correlation Energy        =      -3.0008034470367466 [Eh]
	 Total Energy              =    -670.2517466559359036 [Eh]

	 ================> DF-SCS-MP2 Energies <==================
	-----------------------------------------------------------
	 SCS Same-Spin Scale       =       0.3333333333333333 [-]
	 SCS Opposite-Spin Scale   =       1.2000000000000000 [-]
	 SCS Same-Spin Energy      =      -0.2448709348691763 [Eh]
	 SCS Opposite-Spin Energy  =      -2.7194287709150613 [Eh]
	 SCS Correlation Energy    =      -2.9642997057842377 [Eh]
	 SCS Total Energy          =    -670.2152429146833583 [Eh]
	-----------------------------------------------------------

  Dipole Moment: [D]
     X:     0.2910      Y:     1.1874      Z:     0.3297     Total:     1.2662

*** Psi4 exiting successfully. Buy a developer a beer!
