                               Psi4 1.3.2 release

  ==> Input File <==

--------------------------------------------------------------------------
#psi4
#
memory 32 gb

molecule  {
0 1
  O       -0.0862974    -2.0045560    -0.4558165
  N        2.4573690    -1.4749290     0.4038410
  C        0.8099710     0.2105070    -0.2160820
  C        2.1525410    -0.1743900     0.0797160
  C       -0.2789970    -0.7898520    -0.2615780
  C       -1.6915990    -0.3449750    -0.0589870
  C        0.5343510     1.5458860    -0.5628900
  C        3.1364470     0.8361460     0.1179860
  C        1.5277130     2.5174420    -0.5614560
  C        2.8303350     2.1515420    -0.2122750
  C       -2.0336590     0.6403590     0.8794580
  C       -2.7013800    -1.0161980    -0.7629970
  C       -3.3755740     0.9555500     1.0975090
  C       -4.0377320    -0.6802290    -0.5577760
  C        3.8275740    -1.9241930     0.5318010
  C       -4.3779170     0.3056950     0.3735650
  H       -0.4794410     1.8136050    -0.8470490
  H        4.1617050     0.5791300     0.3641360
  H        1.7801010    -2.1461120     0.0568400
  H        1.2958720     3.5406330    -0.8437660
  H        3.6204230     2.8995150    -0.1925990
  H       -1.2541740     1.1373190     1.4511930
  H       -2.4205700    -1.7983260    -1.4636490
  H       -3.6394530     1.7093650     1.8355280
  H       -4.8171580    -1.1915530    -1.1177270
  H        4.4331860    -1.7182640    -0.3623870
  H        3.8136890    -3.0019290     0.7024740
  H        4.3131750    -1.4541550     1.3926990
  H       -5.4217990     0.5615290     0.5392290
units angstrom
no_reorient  #important for SAPT in psi4, default
symmetry c1  #important for SAPT in psi4, default
}

set PROPERTIES_ORIGIN ["COM"]
properties('MP2/aug-cc-pvtz', properties = ['dipole'])
--------------------------------------------------------------------------

    Molecular point group: c1
  Charge       = 0
  Multiplicity = 1
  Basis Set: AUG-CC-PVTZ
    Blend: AUG-CC-PVTZ
  Basis Set: (AUG-CC-PVTZ AUX)
    Blend: AUG-CC-PVTZ-JKFIT

    Orbital Energies [Eh]
    ---------------------

    Doubly Occupied:

       1A    -20.539679     2A    -15.562911     3A    -11.339972
       4A    -11.297883     5A    -11.257681     6A    -11.253245
       7A    -11.253211     8A    -11.250610     9A    -11.249539
      10A    -11.248454    11A    -11.246213    12A    -11.244372
      13A    -11.242945    14A    -11.239389    15A    -11.229384
      16A    -11.226386    17A     -1.372272    18A     -1.245256
      19A     -1.162832    20A     -1.142558    21A     -1.056038
      22A     -1.024975    23A     -1.020467    24A     -1.010537
      25A     -0.929863    26A     -0.888937    27A     -0.844957
      28A     -0.834157    29A     -0.807946    30A     -0.771221
      31A     -0.717874    32A     -0.702136    33A     -0.683276
      34A     -0.656290    35A     -0.644137    36A     -0.633246
      37A     -0.619459    38A     -0.615778    39A     -0.607697
      40A     -0.601706    41A     -0.595561    42A     -0.578465
      43A     -0.545033    44A     -0.542831    45A     -0.530848
      46A     -0.520017    47A     -0.512576    48A     -0.504414
      49A     -0.500625    50A     -0.486465    51A     -0.429972
      52A     -0.419229    53A     -0.350817    54A     -0.344513
      55A     -0.342627    56A     -0.292741

  @DF-RHF Final Energy:  -667.26283571556689

   => Energetics <=

    Nuclear Repulsion Energy =           1002.4034832588889685
    One-Electron Energy =               -2895.7881845435053947
    Two-Electron Energy =                1226.1218655690495325
    Total Energy =                       -667.2628357155667800
  Basis Set: (AUG-CC-PVTZ AUX)
    Blend: AUG-CC-PVTZ-RI
    Molecular point group: c1

    Geometry (in Angstrom), charge = 0, multiplicity = 1:

       Center              X                  Y                   Z               Mass
    ------------   -----------------  -----------------  -----------------  -----------------
         O           -0.059404831916    -1.999919699049    -0.448819682009    15.994914619570
         N            2.484261568084    -1.470292699049     0.410837817991    14.003074004430
         C            0.836863568084     0.215143300951    -0.209085182009    12.000000000000
         C            2.179433568084    -0.169753699049     0.086712817991    12.000000000000
         C           -0.252104431916    -0.785215699049    -0.254581182009    12.000000000000
         C           -1.664706431916    -0.340338699049    -0.051990182009    12.000000000000
         C            0.561243568084     1.550522300951    -0.555893182009    12.000000000000
         C            3.163339568084     0.840782300951     0.124982817991    12.000000000000
         C            1.554605568084     2.522078300951    -0.554459182009    12.000000000000
         C            2.857227568084     2.156178300951    -0.205278182009    12.000000000000
         C           -2.006766431916     0.644995300951     0.886454817991    12.000000000000
         C           -2.674487431916    -1.011561699049    -0.756000182009    12.000000000000
         C           -3.348681431916     0.960186300951     1.104505817991    12.000000000000
         C           -4.010839431916    -0.675592699049    -0.550779182009    12.000000000000
         C            3.854466568084    -1.919556699049     0.538797817991    12.000000000000
         C           -4.351024431916     0.310331300951     0.380561817991    12.000000000000
         H           -0.452548431916     1.818241300951    -0.840052182009     1.007825032230
         H            4.188597568084     0.583766300951     0.371132817991     1.007825032230
         H            1.806993568084    -2.141475699049     0.063836817991     1.007825032230
         H            1.322764568084     3.545269300951    -0.836769182009     1.007825032230
         H            3.647315568084     2.904151300951    -0.185602182009     1.007825032230
         H           -1.227281431916     1.141955300951     1.458189817991     1.007825032230
         H           -2.393677431916    -1.793689699049    -1.456652182009     1.007825032230
         H           -3.612560431916     1.714001300951     1.842524817991     1.007825032230
         H           -4.790265431916    -1.186916699049    -1.110730182009     1.007825032230
         H            4.460078568084    -1.713627699049    -0.355390182009     1.007825032230
         H            3.840581568084    -2.997292699049     0.709470817991     1.007825032230
         H            4.340067568084    -1.449518699049     1.399695817991     1.007825032230
         H           -5.394906431916     0.566165300951     0.546225817991     1.007825032230

  Basis Set: AUG-CC-PVTZ
    Blend: AUG-CC-PVTZ
  Basis Set: (AUG-CC-PVTZ AUX)
    Blend: AUG-CC-PVTZ-JKFIT
	 Reference Energy          =    -667.2628357155668937 [Eh]
	 Singles Energy            =      -0.0000000000000000 [Eh]
	 Same-Spin Energy          =      -0.7345488805713375 [Eh]
	 Opposite-Spin Energy      =      -2.2652431369394828 [Eh]
	 Correlation Energy        =      -2.9997920175108201 [Eh]
	 Total Energy              =    -670.2626277330776929 [Eh]

	 ================> DF-SCS-MP2 Energies <==================
	-----------------------------------------------------------
	 SCS Same-Spin Scale       =       0.3333333333333333 [-]
	 SCS Opposite-Spin Scale   =       1.2000000000000000 [-]
	 SCS Same-Spin Energy      =      -0.2448496268571125 [Eh]
	 SCS Opposite-Spin Energy  =      -2.7182917643273794 [Eh]
	 SCS Correlation Energy    =      -2.9631413911844917 [Eh]
	 SCS Total Energy          =    -670.2259771067514293 [Eh]
	-----------------------------------------------------------

  Dipole Moment: [D]
     X:     0.4176      Y:     1.2156      Z:     0.3395     Total:     1.3294

*** Psi4 exiting successfully. Buy a developer a beer!
