                               Psi4 1.3.2 release

  ==> Input File <==

--------------------------------------------------------------------------
#psi4
#
memory 32 gb

molecule  {
0 1
  O       -0.0649480    -2.0007500    -0.4572220
  N        2.3173619    -1.5038295     0.3876178
  C        0.8099710     0.2105070    -0.2160820
  C        2.1525410    -0.1743900     0.0797160
  C       -0.2789970    -0.7898520    -0.2615780
  C       -1.6915990    -0.3449750    -0.0589870
  C        0.5343510     1.5458860    -0.5628900
  C        3.1364470     0.8361460     0.1179860
  C        1.5277130     2.5174420    -0.5614560
  C        2.8303350     2.1515420    -0.2122750
  C       -2.0336590     0.6403590     0.8794580
  C       -2.7013800    -1.0161980    -0.7629970
  C       -3.3755740     0.9555500     1.0975090
  C       -4.0377320    -0.6802290    -0.5577760
  C        3.8275740    -1.9241930     0.5318010
  C       -4.3779170     0.3056950     0.3735650
  H       -0.4794410     1.8136050    -0.8470490
  H        4.1617050     0.5791300     0.3641360
  H        1.7801010    -2.1461120     0.0568400
  H        1.2958720     3.5406330    -0.8437660
  H        3.6204230     2.8995150    -0.1925990
  H       -1.2541740     1.1373190     1.4511930
  H       -2.4205700    -1.7983260    -1.4636490
  H       -3.6394530     1.7093650     1.8355280
  H       -4.8171580    -1.1915530    -1.1177270
  H        4.4331860    -1.7182640    -0.3623870
  H        3.8136890    -3.0019290     0.7024740
  H        4.3131750    -1.4541550     1.3926990
  H       -5.4217990     0.5615290     0.5392290
units angstrom
no_reorient  #important for SAPT in psi4, default
symmetry c1  #important for SAPT in psi4, default
}

set PROPERTIES_ORIGIN ["COM"]
properties('MP2/aug-cc-pvtz', properties = ['dipole'])
--------------------------------------------------------------------------

    Molecular point group: c1
  Charge       = 0
  Multiplicity = 1
  Basis Set: AUG-CC-PVTZ
    Blend: AUG-CC-PVTZ
  Basis Set: (AUG-CC-PVTZ AUX)
    Blend: AUG-CC-PVTZ-JKFIT

    Orbital Energies [Eh]
    ---------------------

    Doubly Occupied:

       1A    -20.537007     2A    -15.558014     3A    -11.337723
       4A    -11.297662     5A    -11.265386     6A    -11.253807
       7A    -11.251178     8A    -11.250228     9A    -11.249168
      10A    -11.248177    11A    -11.245840    12A    -11.243980
      13A    -11.242549    14A    -11.235553    15A    -11.232148
      16A    -11.226171    17A     -1.370721    18A     -1.238758
      19A     -1.162377    20A     -1.140063    21A     -1.055390
      22A     -1.024411    23A     -1.019263    24A     -1.005205
      25A     -0.933081    26A     -0.891388    27A     -0.844028
      28A     -0.833249    29A     -0.819101    30A     -0.771502
      31A     -0.721237    32A     -0.710658    33A     -0.681196
      34A     -0.653141    35A     -0.641062    36A     -0.634476
      37A     -0.618691    38A     -0.607394    39A     -0.601614
      40A     -0.598580    41A     -0.595066    42A     -0.569570
      43A     -0.545227    44A     -0.542123    45A     -0.532229
      46A     -0.520648    47A     -0.513306    48A     -0.500420
      49A     -0.495339    50A     -0.485295    51A     -0.436689
      52A     -0.418441    53A     -0.350020    54A     -0.343814
      55A     -0.342262    56A     -0.294904

  @DF-RHF Final Energy:  -667.23603513819353

   => Energetics <=

    Nuclear Repulsion Energy =           1003.0618035847526244
    One-Electron Energy =               -2897.1226172238634717
    Two-Electron Energy =                1226.8247785009173185
    Total Energy =                       -667.2360351381935288
  Basis Set: (AUG-CC-PVTZ AUX)
    Blend: AUG-CC-PVTZ-RI
    Molecular point group: c1

    Geometry (in Angstrom), charge = 0, multiplicity = 1:

       Center              X                  Y                   Z               Mass
    ------------   -----------------  -----------------  -----------------  -----------------
         O           -0.030385843354    -1.994484993881    -0.449042539371    15.994914619570
         N            2.351924056646    -1.497564493881     0.395797260629    14.003074004430
         C            0.844533156646     0.216772006119    -0.207902539371    12.000000000000
         C            2.187103156646    -0.168124993881     0.087895460629    12.000000000000
         C           -0.244434843354    -0.783586993881    -0.253398539371    12.000000000000
         C           -1.657036843354    -0.338709993881    -0.050807539371    12.000000000000
         C            0.568913156646     1.552151006119    -0.554710539371    12.000000000000
         C            3.171009156646     0.842411006119     0.126165460629    12.000000000000
         C            1.562275156646     2.523707006119    -0.553276539371    12.000000000000
         C            2.864897156646     2.157807006119    -0.204095539371    12.000000000000
         C           -1.999096843354     0.646624006119     0.887637460629    12.000000000000
         C           -2.666817843354    -1.009932993881    -0.754817539371    12.000000000000
         C           -3.341011843354     0.961815006119     1.105688460629    12.000000000000
         C           -4.003169843354    -0.673963993881    -0.549596539371    12.000000000000
         C            3.862136156646    -1.917927993881     0.539980460629    12.000000000000
         C           -4.343354843354     0.311960006119     0.381744460629    12.000000000000
         H           -0.444878843354     1.819870006119    -0.838869539371     1.007825032230
         H            4.196267156646     0.585395006119     0.372315460629     1.007825032230
         H            1.814663156646    -2.139846993881     0.065019460629     1.007825032230
         H            1.330434156646     3.546898006119    -0.835586539371     1.007825032230
         H            3.654985156646     2.905780006119    -0.184419539371     1.007825032230
         H           -1.219611843354     1.143584006119     1.459372460629     1.007825032230
         H           -2.386007843354    -1.792060993881    -1.455469539371     1.007825032230
         H           -3.604890843354     1.715630006119     1.843707460629     1.007825032230
         H           -4.782595843354    -1.185287993881    -1.109547539371     1.007825032230
         H            4.467748156646    -1.711998993881    -0.354207539371     1.007825032230
         H            3.848251156646    -2.995663993881     0.710653460629     1.007825032230
         H            4.347737156646    -1.447889993881     1.400878460629     1.007825032230
         H           -5.387236843354     0.567794006119     0.547408460629     1.007825032230

  Basis Set: AUG-CC-PVTZ
    Blend: AUG-CC-PVTZ
  Basis Set: (AUG-CC-PVTZ AUX)
    Blend: AUG-CC-PVTZ-JKFIT
	 Reference Energy          =    -667.2360351381935288 [Eh]
	 Singles Energy            =      -0.0000000000000000 [Eh]
	 Same-Spin Energy          =      -0.7340733686450316 [Eh]
	 Opposite-Spin Energy      =      -2.2660763491450058 [Eh]
	 Correlation Energy        =      -3.0001497177900376 [Eh]
	 Total Energy              =    -670.2361848559835380 [Eh]

	 ================> DF-SCS-MP2 Energies <==================
	-----------------------------------------------------------
	 SCS Same-Spin Scale       =       0.3333333333333333 [-]
	 SCS Opposite-Spin Scale   =       1.2000000000000000 [-]
	 SCS Same-Spin Energy      =      -0.2446911228816772 [Eh]
	 SCS Opposite-Spin Energy  =      -2.7192916189740068 [Eh]
	 SCS Correlation Energy    =      -2.9639827418556841 [Eh]
	 SCS Total Energy          =    -670.2000178800492449 [Eh]
	-----------------------------------------------------------

  Dipole Moment: [D]
     X:     0.6206      Y:     1.2712      Z:     0.3140     Total:     1.4491

*** Psi4 exiting successfully. Buy a developer a beer!
