                               Psi4 1.3.2 release

  ==> Input File <==

--------------------------------------------------------------------------
#psi4
#
memory 32 gb

molecule  {
0 1
  O       -0.0649480    -2.0007500    -0.4572220
  N        2.4573690    -1.4749290     0.4038410
  C        0.8271102     0.1917197    -0.2205502
  C        2.1525410    -0.1743900     0.0797160
  C       -0.2789970    -0.7898520    -0.2615780
  C       -1.6915990    -0.3449750    -0.0589870
  C        0.5343510     1.5458860    -0.5628900
  C        3.1364470     0.8361460     0.1179860
  C        1.5277130     2.5174420    -0.5614560
  C        2.8303350     2.1515420    -0.2122750
  C       -2.0336590     0.6403590     0.8794580
  C       -2.7013800    -1.0161980    -0.7629970
  C       -3.3755740     0.9555500     1.0975090
  C       -4.0377320    -0.6802290    -0.5577760
  C        3.8275740    -1.9241930     0.5318010
  C       -4.3779170     0.3056950     0.3735650
  H       -0.4794410     1.8136050    -0.8470490
  H        4.1617050     0.5791300     0.3641360
  H        1.7801010    -2.1461120     0.0568400
  H        1.2958720     3.5406330    -0.8437660
  H        3.6204230     2.8995150    -0.1925990
  H       -1.2541740     1.1373190     1.4511930
  H       -2.4205700    -1.7983260    -1.4636490
  H       -3.6394530     1.7093650     1.8355280
  H       -4.8171580    -1.1915530    -1.1177270
  H        4.4331860    -1.7182640    -0.3623870
  H        3.8136890    -3.0019290     0.7024740
  H        4.3131750    -1.4541550     1.3926990
  H       -5.4217990     0.5615290     0.5392290
units angstrom
no_reorient  #important for SAPT in psi4, default
symmetry c1  #important for SAPT in psi4, default
}

set PROPERTIES_ORIGIN ["COM"]
properties('MP2/aug-cc-pvtz', properties = ['dipole'])
--------------------------------------------------------------------------

    Molecular point group: c1
  Charge       = 0
  Multiplicity = 1
  Basis Set: AUG-CC-PVTZ
    Blend: AUG-CC-PVTZ
  Basis Set: (AUG-CC-PVTZ AUX)
    Blend: AUG-CC-PVTZ-JKFIT

    Orbital Energies [Eh]
    ---------------------

    Doubly Occupied:

       1A    -20.538888     2A    -15.560464     3A    -11.339795
       4A    -11.294975     5A    -11.256514     6A    -11.254077
       7A    -11.252694     8A    -11.251689     9A    -11.250431
      10A    -11.249956    11A    -11.247349    12A    -11.245143
      13A    -11.243746    14A    -11.237997    15A    -11.229834
      16A    -11.226632    17A     -1.372224    18A     -1.244507
      19A     -1.163544    20A     -1.141148    21A     -1.055280
      22A     -1.025732    23A     -1.021100    24A     -1.010321
      25A     -0.928739    26A     -0.888365    27A     -0.845869
      28A     -0.835311    29A     -0.807493    30A     -0.771598
      31A     -0.718422    32A     -0.700440    33A     -0.683151
      34A     -0.656579    35A     -0.645250    36A     -0.633385
      37A     -0.619763    38A     -0.615074    39A     -0.608070
      40A     -0.600904    41A     -0.596032    42A     -0.576443
      43A     -0.545242    44A     -0.542167    45A     -0.530092
      46A     -0.520199    47A     -0.512993    48A     -0.505003
      49A     -0.501287    50A     -0.486316    51A     -0.428798
      52A     -0.419089    53A     -0.349087    54A     -0.344949
      55A     -0.342823    56A     -0.293701

  @DF-RHF Final Energy:  -667.26228156799687

   => Energetics <=

    Nuclear Repulsion Energy =           1002.5384842377897030
    One-Electron Energy =               -2896.0681812751604411
    Two-Electron Energy =                1226.2674154693738728
    Total Energy =                       -667.2622815679967516
  Basis Set: (AUG-CC-PVTZ AUX)
    Blend: AUG-CC-PVTZ-RI
    Molecular point group: c1

    Geometry (in Angstrom), charge = 0, multiplicity = 1:

       Center              X                  Y                   Z               Mass
    ------------   -----------------  -----------------  -----------------  -----------------
         O           -0.040647345565    -1.995334110334    -0.449864692404    15.994914619570
         N            2.481669654435    -1.469513110334     0.411198307596    14.003074004430
         C            0.851410854435     0.197135589666    -0.213192892404    12.000000000000
         C            2.176841654435    -0.168974110334     0.087073307596    12.000000000000
         C           -0.254696345565    -0.784436110334    -0.254220692404    12.000000000000
         C           -1.667298345565    -0.339559110334    -0.051629692404    12.000000000000
         C            0.558651654435     1.551301889666    -0.555532692404    12.000000000000
         C            3.160747654435     0.841561889666     0.125343307596    12.000000000000
         C            1.552013654435     2.522857889666    -0.554098692404    12.000000000000
         C            2.854635654435     2.156957889666    -0.204917692404    12.000000000000
         C           -2.009358345565     0.645774889666     0.886815307596    12.000000000000
         C           -2.677079345565    -1.010782110334    -0.755639692404    12.000000000000
         C           -3.351273345565     0.960965889666     1.104866307596    12.000000000000
         C           -4.013431345565    -0.674813110334    -0.550418692404    12.000000000000
         C            3.851874654435    -1.918777110334     0.539158307596    12.000000000000
         C           -4.353616345565     0.311110889666     0.380922307596    12.000000000000
         H           -0.455140345565     1.819020889666    -0.839691692404     1.007825032230
         H            4.186005654435     0.584545889666     0.371493307596     1.007825032230
         H            1.804401654435    -2.140696110334     0.064197307596     1.007825032230
         H            1.320172654435     3.546048889666    -0.836408692404     1.007825032230
         H            3.644723654435     2.904930889666    -0.185241692404     1.007825032230
         H           -1.229873345565     1.142734889666     1.458550307596     1.007825032230
         H           -2.396269345565    -1.792910110334    -1.456291692404     1.007825032230
         H           -3.615152345565     1.714780889666     1.842885307596     1.007825032230
         H           -4.792857345565    -1.186137110334    -1.110369692404     1.007825032230
         H            4.457486654435    -1.712848110334    -0.355029692404     1.007825032230
         H            3.837989654435    -2.996513110334     0.709831307596     1.007825032230
         H            4.337475654435    -1.448739110334     1.400056307596     1.007825032230
         H           -5.397498345565     0.566944889666     0.546586307596     1.007825032230

  Basis Set: AUG-CC-PVTZ
    Blend: AUG-CC-PVTZ
  Basis Set: (AUG-CC-PVTZ AUX)
    Blend: AUG-CC-PVTZ-JKFIT
	 Reference Energy          =    -667.2622815679968653 [Eh]
	 Singles Energy            =      -0.0000000000000000 [Eh]
	 Same-Spin Energy          =      -0.7345598773876629 [Eh]
	 Opposite-Spin Energy      =      -2.2653678927117604 [Eh]
	 Correlation Energy        =      -2.9999277700994234 [Eh]
	 Total Energy              =    -670.2622093380963406 [Eh]

	 ================> DF-SCS-MP2 Energies <==================
	-----------------------------------------------------------
	 SCS Same-Spin Scale       =       0.3333333333333333 [-]
	 SCS Opposite-Spin Scale   =       1.2000000000000000 [-]
	 SCS Same-Spin Energy      =      -0.2448532924625543 [Eh]
	 SCS Opposite-Spin Energy  =      -2.7184414712541125 [Eh]
	 SCS Correlation Energy    =      -2.9632947637166667 [Eh]
	 SCS Total Energy          =    -670.2255763317135688 [Eh]
	-----------------------------------------------------------

  Dipole Moment: [D]
     X:     0.3006      Y:     1.2444      Z:     0.3427     Total:     1.3252

*** Psi4 exiting successfully. Buy a developer a beer!
