                               Psi4 1.3.2 release

  ==> Input File <==

--------------------------------------------------------------------------
#psi4
#
memory 32 gb

molecule  {
0 1
  O       -0.0649480    -2.0007500    -0.4572220
  N        2.4573690    -1.4749290     0.4038410
  C        0.8099710     0.2105070    -0.2160820
  C        2.1525410    -0.1743900     0.0797160
  C       -0.1317800    -0.6546140    -0.2554274
  C       -1.6915990    -0.3449750    -0.0589870
  C        0.5343510     1.5458860    -0.5628900
  C        3.1364470     0.8361460     0.1179860
  C        1.5277130     2.5174420    -0.5614560
  C        2.8303350     2.1515420    -0.2122750
  C       -2.0336590     0.6403590     0.8794580
  C       -2.7013800    -1.0161980    -0.7629970
  C       -3.3755740     0.9555500     1.0975090
  C       -4.0377320    -0.6802290    -0.5577760
  C        3.8275740    -1.9241930     0.5318010
  C       -4.3779170     0.3056950     0.3735650
  H       -0.4794410     1.8136050    -0.8470490
  H        4.1617050     0.5791300     0.3641360
  H        1.7801010    -2.1461120     0.0568400
  H        1.2958720     3.5406330    -0.8437660
  H        3.6204230     2.8995150    -0.1925990
  H       -1.2541740     1.1373190     1.4511930
  H       -2.4205700    -1.7983260    -1.4636490
  H       -3.6394530     1.7093650     1.8355280
  H       -4.8171580    -1.1915530    -1.1177270
  H        4.4331860    -1.7182640    -0.3623870
  H        3.8136890    -3.0019290     0.7024740
  H        4.3131750    -1.4541550     1.3926990
  H       -5.4217990     0.5615290     0.5392290
units angstrom
no_reorient  #important for SAPT in psi4, default
symmetry c1  #important for SAPT in psi4, default
}

set PROPERTIES_ORIGIN ["COM"]
properties('MP2/aug-cc-pvtz', properties = ['dipole'])
--------------------------------------------------------------------------

    Molecular point group: c1
  Charge       = 0
  Multiplicity = 1
  Basis Set: AUG-CC-PVTZ
    Blend: AUG-CC-PVTZ
  Basis Set: (AUG-CC-PVTZ AUX)
    Blend: AUG-CC-PVTZ-JKFIT

    Orbital Energies [Eh]
    ---------------------

    Doubly Occupied:

       1A    -20.511079     2A    -15.575628     3A    -11.329552
       4A    -11.317661     5A    -11.274209     6A    -11.271754
       7A    -11.264880     8A    -11.251280     9A    -11.241592
      10A    -11.239062    11A    -11.238602    12A    -11.238423
      13A    -11.236697    14A    -11.236191    15A    -11.235362
      16A    -11.231018    17A     -1.298770    18A     -1.251196
      19A     -1.166207    20A     -1.148237    21A     -1.083617
      22A     -1.026001    23A     -1.015043    24A     -1.012896
      25A     -0.945421    26A     -0.908776    27A     -0.839432
      28A     -0.825978    29A     -0.817336    30A     -0.778344
      31A     -0.713954    32A     -0.713063    33A     -0.685185
      34A     -0.656363    35A     -0.640194    36A     -0.627085
      37A     -0.625251    38A     -0.622591    39A     -0.603004
      40A     -0.600497    41A     -0.586679    42A     -0.567223
      43A     -0.553661    44A     -0.543576    45A     -0.531246
      46A     -0.521194    47A     -0.505731    48A     -0.497582
      49A     -0.487933    50A     -0.461226    51A     -0.439944
      52A     -0.403685    53A     -0.360496    54A     -0.336842
      55A     -0.329843    56A     -0.306281

  @DF-RHF Final Energy:  -667.19778844998780

   => Energetics <=

    Nuclear Repulsion Energy =           1003.3287903776397343
    One-Electron Energy =               -2897.5920130687336496
    Two-Electron Energy =                1227.0654342411060043
    Total Energy =                       -667.1977884499879110
  Basis Set: (AUG-CC-PVTZ AUX)
    Blend: AUG-CC-PVTZ-RI
    Molecular point group: c1

    Geometry (in Angstrom), charge = 0, multiplicity = 1:

       Center              X                  Y                   Z               Mass
    ------------   -----------------  -----------------  -----------------  -----------------
         O           -0.048041640754    -2.004089705330    -0.450468319939    15.994914619570
         N            2.474275359246    -1.478268705330     0.410594680061    14.003074004430
         C            0.826877359246     0.207167294670    -0.209328319939    12.000000000000
         C            2.169447359246    -0.177729705330     0.086469680061    12.000000000000
         C           -0.114873640754    -0.657953705330    -0.248673719939    12.000000000000
         C           -1.674692640754    -0.348314705330    -0.052233319939    12.000000000000
         C            0.551257359246     1.542546294670    -0.556136319939    12.000000000000
         C            3.153353359246     0.832806294670     0.124739680061    12.000000000000
         C            1.544619359246     2.514102294670    -0.554702319939    12.000000000000
         C            2.847241359246     2.148202294670    -0.205521319939    12.000000000000
         C           -2.016752640754     0.637019294670     0.886211680061    12.000000000000
         C           -2.684473640754    -1.019537705330    -0.756243319939    12.000000000000
         C           -3.358667640754     0.952210294670     1.104262680061    12.000000000000
         C           -4.020825640754    -0.683568705330    -0.551022319939    12.000000000000
         C            3.844480359246    -1.927532705330     0.538554680061    12.000000000000
         C           -4.361010640754     0.302355294670     0.380318680061    12.000000000000
         H           -0.462534640754     1.810265294670    -0.840295319939     1.007825032230
         H            4.178611359246     0.575790294670     0.370889680061     1.007825032230
         H            1.797007359246    -2.149451705330     0.063593680061     1.007825032230
         H            1.312778359246     3.537293294670    -0.837012319939     1.007825032230
         H            3.637329359246     2.896175294670    -0.185845319939     1.007825032230
         H           -1.237267640754     1.133979294670     1.457946680061     1.007825032230
         H           -2.403663640754    -1.801665705330    -1.456895319939     1.007825032230
         H           -3.622546640754     1.706025294670     1.842281680061     1.007825032230
         H           -4.800251640754    -1.194892705330    -1.110973319939     1.007825032230
         H            4.450092359246    -1.721603705330    -0.355633319939     1.007825032230
         H            3.830595359246    -3.005268705330     0.709227680061     1.007825032230
         H            4.330081359246    -1.457494705330     1.399452680061     1.007825032230
         H           -5.404892640754     0.558189294670     0.545982680061     1.007825032230

  Basis Set: AUG-CC-PVTZ
    Blend: AUG-CC-PVTZ
  Basis Set: (AUG-CC-PVTZ AUX)
    Blend: AUG-CC-PVTZ-JKFIT
	 Reference Energy          =    -667.1977884499877973 [Eh]
	 Singles Energy            =      -0.0000000000000000 [Eh]
	 Same-Spin Energy          =      -0.7391210209742791 [Eh]
	 Opposite-Spin Energy      =      -2.2743302703144770 [Eh]
	 Correlation Energy        =      -3.0134512912887561 [Eh]
	 Total Energy              =    -670.2112397412765858 [Eh]

	 ================> DF-SCS-MP2 Energies <==================
	-----------------------------------------------------------
	 SCS Same-Spin Scale       =       0.3333333333333333 [-]
	 SCS Opposite-Spin Scale   =       1.2000000000000000 [-]
	 SCS Same-Spin Energy      =      -0.2463736736580930 [Eh]
	 SCS Opposite-Spin Energy  =      -2.7291963243773725 [Eh]
	 SCS Correlation Energy    =      -2.9755699980354655 [Eh]
	 SCS Total Energy          =    -670.1733584480232366 [Eh]
	-----------------------------------------------------------

  Dipole Moment: [D]
     X:     2.2148      Y:     1.9951      Z:     0.3498     Total:     3.0014

*** Psi4 exiting successfully. Buy a developer a beer!
