                               Psi4 1.3.2 release

  ==> Input File <==

--------------------------------------------------------------------------
#psi4
#
memory 32 gb

molecule  {
0 1
  O       -0.0649480    -2.0007500    -0.4572220
  N        2.4573690    -1.4749290     0.4038410
  C        0.7151515     0.1904383    -0.2319037
  C        2.1525410    -0.1743900     0.0797160
  C       -0.2789970    -0.7898520    -0.2615780
  C       -1.6915990    -0.3449750    -0.0589870
  C        0.5343510     1.5458860    -0.5628900
  C        3.1364470     0.8361460     0.1179860
  C        1.5277130     2.5174420    -0.5614560
  C        2.8303350     2.1515420    -0.2122750
  C       -2.0336590     0.6403590     0.8794580
  C       -2.7013800    -1.0161980    -0.7629970
  C       -3.3755740     0.9555500     1.0975090
  C       -4.0377320    -0.6802290    -0.5577760
  C        3.8275740    -1.9241930     0.5318010
  C       -4.3779170     0.3056950     0.3735650
  H       -0.4794410     1.8136050    -0.8470490
  H        4.1617050     0.5791300     0.3641360
  H        1.7801010    -2.1461120     0.0568400
  H        1.2958720     3.5406330    -0.8437660
  H        3.6204230     2.8995150    -0.1925990
  H       -1.2541740     1.1373190     1.4511930
  H       -2.4205700    -1.7983260    -1.4636490
  H       -3.6394530     1.7093650     1.8355280
  H       -4.8171580    -1.1915530    -1.1177270
  H        4.4331860    -1.7182640    -0.3623870
  H        3.8136890    -3.0019290     0.7024740
  H        4.3131750    -1.4541550     1.3926990
  H       -5.4217990     0.5615290     0.5392290
units angstrom
no_reorient  #important for SAPT in psi4, default
symmetry c1  #important for SAPT in psi4, default
}

set PROPERTIES_ORIGIN ["COM"]
properties('MP2/aug-cc-pvtz', properties = ['dipole'])
--------------------------------------------------------------------------

    Molecular point group: c1
  Charge       = 0
  Multiplicity = 1
  Basis Set: AUG-CC-PVTZ
    Blend: AUG-CC-PVTZ
  Basis Set: (AUG-CC-PVTZ AUX)
    Blend: AUG-CC-PVTZ-JKFIT

    Orbital Energies [Eh]
    ---------------------

    Doubly Occupied:

       1A    -20.532908     2A    -15.568000     3A    -11.330578
       4A    -11.310185     5A    -11.259810     6A    -11.259520
       7A    -11.258317     8A    -11.248688     9A    -11.247793
      10A    -11.245437    11A    -11.243853    12A    -11.242848
      13A    -11.241276    14A    -11.239182    15A    -11.229538
      16A    -11.226948    17A     -1.369030    18A     -1.245785
      19A     -1.161778    20A     -1.140914    21A     -1.063561
      22A     -1.023429    23A     -1.019115    24A     -1.008244
      25A     -0.935278    26A     -0.895792    27A     -0.844892
      28A     -0.831713    29A     -0.805539    30A     -0.769982
      31A     -0.718045    32A     -0.708150    33A     -0.681832
      34A     -0.656471    35A     -0.643373    36A     -0.633497
      37A     -0.618841    38A     -0.615937    39A     -0.607081
      40A     -0.603823    41A     -0.594075    42A     -0.577316
      43A     -0.545594    44A     -0.545214    45A     -0.533643
      46A     -0.519255    47A     -0.509881    48A     -0.499267
      49A     -0.494941    50A     -0.481962    51A     -0.432111
      52A     -0.419879    53A     -0.353689    54A     -0.343438
      55A     -0.341177    56A     -0.290244

  @DF-RHF Final Energy:  -667.25073956833000

   => Energetics <=

    Nuclear Repulsion Energy =           1002.6173154573591546
    One-Electron Energy =               -2896.1987777184885999
    Two-Electron Energy =                1226.3307226927995544
    Total Energy =                       -667.2507395683298910
  Basis Set: (AUG-CC-PVTZ AUX)
    Blend: AUG-CC-PVTZ-RI
    Molecular point group: c1

    Geometry (in Angstrom), charge = 0, multiplicity = 1:

       Center              X                  Y                   Z               Mass
    ------------   -----------------  -----------------  -----------------  -----------------
         O           -0.034283033770    -1.995261268928    -0.449219300719    15.994914619570
         N            2.488033966230    -1.469440268928     0.411843699281    14.003074004430
         C            0.745816466230     0.195927031072    -0.223901000719    12.000000000000
         C            2.183205966230    -0.168901268928     0.087718699281    12.000000000000
         C           -0.248332033770    -0.784363268928    -0.253575300719    12.000000000000
         C           -1.660934033770    -0.339486268928    -0.050984300719    12.000000000000
         C            0.565015966230     1.551374731072    -0.554887300719    12.000000000000
         C            3.167111966230     0.841634731072     0.125988699281    12.000000000000
         C            1.558377966230     2.522930731072    -0.553453300719    12.000000000000
         C            2.860999966230     2.157030731072    -0.204272300719    12.000000000000
         C           -2.002994033770     0.645847731072     0.887460699281    12.000000000000
         C           -2.670715033770    -1.010709268928    -0.754994300719    12.000000000000
         C           -3.344909033770     0.961038731072     1.105511699281    12.000000000000
         C           -4.007067033770    -0.674740268928    -0.549773300719    12.000000000000
         C            3.858238966230    -1.918704268928     0.539803699281    12.000000000000
         C           -4.347252033770     0.311183731072     0.381567699281    12.000000000000
         H           -0.448776033770     1.819093731072    -0.839046300719     1.007825032230
         H            4.192369966230     0.584618731072     0.372138699281     1.007825032230
         H            1.810765966230    -2.140623268928     0.064842699281     1.007825032230
         H            1.326536966230     3.546121731072    -0.835763300719     1.007825032230
         H            3.651087966230     2.905003731072    -0.184596300719     1.007825032230
         H           -1.223509033770     1.142807731072     1.459195699281     1.007825032230
         H           -2.389905033770    -1.792837268928    -1.455646300719     1.007825032230
         H           -3.608788033770     1.714853731072     1.843530699281     1.007825032230
         H           -4.786493033770    -1.186064268928    -1.109724300719     1.007825032230
         H            4.463850966230    -1.712775268928    -0.354384300719     1.007825032230
         H            3.844353966230    -2.996440268928     0.710476699281     1.007825032230
         H            4.343839966230    -1.448666268928     1.400701699281     1.007825032230
         H           -5.391134033770     0.567017731072     0.547231699281     1.007825032230

  Basis Set: AUG-CC-PVTZ
    Blend: AUG-CC-PVTZ
  Basis Set: (AUG-CC-PVTZ AUX)
    Blend: AUG-CC-PVTZ-JKFIT
	 Reference Energy          =    -667.2507395683300047 [Eh]
	 Singles Energy            =      -0.0000000000000000 [Eh]
	 Same-Spin Energy          =      -0.7353779420922487 [Eh]
	 Opposite-Spin Energy      =      -2.2664904143193834 [Eh]
	 Correlation Energy        =      -3.0018683564116322 [Eh]
	 Total Energy              =    -670.2526079247415964 [Eh]

	 ================> DF-SCS-MP2 Energies <==================
	-----------------------------------------------------------
	 SCS Same-Spin Scale       =       0.3333333333333333 [-]
	 SCS Opposite-Spin Scale   =       1.2000000000000000 [-]
	 SCS Same-Spin Energy      =      -0.2451259806974162 [Eh]
	 SCS Opposite-Spin Energy  =      -2.7197884971832598 [Eh]
	 SCS Correlation Energy    =      -2.9649144778806762 [Eh]
	 SCS Total Energy          =    -670.2156540462107159 [Eh]
	-----------------------------------------------------------

  Dipole Moment: [D]
     X:     0.7757      Y:     1.2787      Z:     0.3913     Total:     1.5459

*** Psi4 exiting successfully. Buy a developer a beer!
