                               Psi4 1.3.2 release

  ==> Input File <==

--------------------------------------------------------------------------
#psi4
#
memory 32 gb

molecule  {
0 1
  O       -0.0649480    -2.0007500    -0.4572220
  N        2.4573690    -1.4749290     0.4038410
  C        0.8099710     0.2105070    -0.2160820
  C        2.1365066    -0.2208709     0.0878140
  C       -0.2789970    -0.7898520    -0.2615780
  C       -1.6915990    -0.3449750    -0.0589870
  C        0.5343510     1.5458860    -0.5628900
  C        3.1364470     0.8361460     0.1179860
  C        1.5277130     2.5174420    -0.5614560
  C        2.8303350     2.1515420    -0.2122750
  C       -2.0336590     0.6403590     0.8794580
  C       -2.7013800    -1.0161980    -0.7629970
  C       -3.3755740     0.9555500     1.0975090
  C       -4.0377320    -0.6802290    -0.5577760
  C        3.8275740    -1.9241930     0.5318010
  C       -4.3779170     0.3056950     0.3735650
  H       -0.4794410     1.8136050    -0.8470490
  H        4.1617050     0.5791300     0.3641360
  H        1.7801010    -2.1461120     0.0568400
  H        1.2958720     3.5406330    -0.8437660
  H        3.6204230     2.8995150    -0.1925990
  H       -1.2541740     1.1373190     1.4511930
  H       -2.4205700    -1.7983260    -1.4636490
  H       -3.6394530     1.7093650     1.8355280
  H       -4.8171580    -1.1915530    -1.1177270
  H        4.4331860    -1.7182640    -0.3623870
  H        3.8136890    -3.0019290     0.7024740
  H        4.3131750    -1.4541550     1.3926990
  H       -5.4217990     0.5615290     0.5392290
units angstrom
no_reorient  #important for SAPT in psi4, default
symmetry c1  #important for SAPT in psi4, default
}

set PROPERTIES_ORIGIN ["COM"]
properties('MP2/aug-cc-pvtz', properties = ['dipole'])
--------------------------------------------------------------------------

    Molecular point group: c1
  Charge       = 0
  Multiplicity = 1
  Basis Set: AUG-CC-PVTZ
    Blend: AUG-CC-PVTZ
  Basis Set: (AUG-CC-PVTZ AUX)
    Blend: AUG-CC-PVTZ-JKFIT

    Orbital Energies [Eh]
    ---------------------

    Doubly Occupied:

       1A    -20.538236     2A    -15.569121     3A    -11.337869
       4A    -11.301040     5A    -11.262635     6A    -11.251091
       7A    -11.250537     8A    -11.250344     9A    -11.249347
      10A    -11.247989    11A    -11.245991    12A    -11.244109
      13A    -11.242702    14A    -11.235741    15A    -11.230936
      16A    -11.222665    17A     -1.371758    18A     -1.261039
      19A     -1.162451    20A     -1.138917    21A     -1.054066
      22A     -1.024629    23A     -1.020166    24A     -1.005828
      25A     -0.936831    26A     -0.886058    27A     -0.843820
      28A     -0.833522    29A     -0.807821    30A     -0.771204
      31A     -0.716983    32A     -0.704704    33A     -0.685118
      34A     -0.656829    35A     -0.644596    36A     -0.634007
      37A     -0.622011    38A     -0.617167    39A     -0.608725
      40A     -0.598819    41A     -0.595082    42A     -0.577873
      43A     -0.546576    44A     -0.544333    45A     -0.530396
      46A     -0.518944    47A     -0.512283    48A     -0.501489
      49A     -0.500324    50A     -0.486047    51A     -0.436778
      52A     -0.416081    53A     -0.349097    54A     -0.344342
      55A     -0.342228    56A     -0.287049

  @DF-RHF Final Energy:  -667.25989974531615

   => Energetics <=

    Nuclear Repulsion Energy =           1002.6304733496899644
    One-Electron Energy =               -2896.2280528945502738
    Two-Electron Energy =                1226.3376797995440484
    Total Energy =                       -667.2598997453162610
  Basis Set: (AUG-CC-PVTZ AUX)
    Blend: AUG-CC-PVTZ-RI
    Molecular point group: c1

    Geometry (in Angstrom), charge = 0, multiplicity = 1:

       Center              X                  Y                   Z               Mass
    ------------   -----------------  -----------------  -----------------  -----------------
         O           -0.038761586497    -1.993759862820    -0.450579020231    15.994914619570
         N            2.483555413503    -1.467938862820     0.410483979769    14.003074004430
         C            0.836157413503     0.217497137180    -0.209439020231    12.000000000000
         C            2.162693013503    -0.213880762820     0.094456979769    12.000000000000
         C           -0.252810586497    -0.782861862820    -0.254935020231    12.000000000000
         C           -1.665412586497    -0.337984862820    -0.052344020231    12.000000000000
         C            0.560537413503     1.552876137180    -0.556247020231    12.000000000000
         C            3.162633413503     0.843136137180     0.124628979769    12.000000000000
         C            1.553899413503     2.524432137180    -0.554813020231    12.000000000000
         C            2.856521413503     2.158532137180    -0.205632020231    12.000000000000
         C           -2.007472586497     0.647349137180     0.886100979769    12.000000000000
         C           -2.675193586497    -1.009207862820    -0.756354020231    12.000000000000
         C           -3.349387586497     0.962540137180     1.104151979769    12.000000000000
         C           -4.011545586497    -0.673238862820    -0.551133020231    12.000000000000
         C            3.853760413503    -1.917202862820     0.538443979769    12.000000000000
         C           -4.351730586497     0.312685137180     0.380207979769    12.000000000000
         H           -0.453254586497     1.820595137180    -0.840406020231     1.007825032230
         H            4.187891413503     0.586120137180     0.370778979769     1.007825032230
         H            1.806287413503    -2.139121862820     0.063482979769     1.007825032230
         H            1.322058413503     3.547623137180    -0.837123020231     1.007825032230
         H            3.646609413503     2.906505137180    -0.185956020231     1.007825032230
         H           -1.227987586497     1.144309137180     1.457835979769     1.007825032230
         H           -2.394383586497    -1.791335862820    -1.457006020231     1.007825032230
         H           -3.613266586497     1.716355137180     1.842170979769     1.007825032230
         H           -4.790971586497    -1.184562862820    -1.111084020231     1.007825032230
         H            4.459372413503    -1.711273862820    -0.355744020231     1.007825032230
         H            3.839875413503    -2.994938862820     0.709116979769     1.007825032230
         H            4.339361413503    -1.447164862820     1.399341979769     1.007825032230
         H           -5.395612586497     0.568519137180     0.545871979769     1.007825032230

  Basis Set: AUG-CC-PVTZ
    Blend: AUG-CC-PVTZ
  Basis Set: (AUG-CC-PVTZ AUX)
    Blend: AUG-CC-PVTZ-JKFIT
	 Reference Energy          =    -667.2598997453161473 [Eh]
	 Singles Energy            =      -0.0000000000000000 [Eh]
	 Same-Spin Energy          =      -0.7346953030713673 [Eh]
	 Opposite-Spin Energy      =      -2.2653696399225982 [Eh]
	 Correlation Energy        =      -3.0000649429939656 [Eh]
	 Total Energy              =    -670.2599646883101059 [Eh]

	 ================> DF-SCS-MP2 Energies <==================
	-----------------------------------------------------------
	 SCS Same-Spin Scale       =       0.3333333333333333 [-]
	 SCS Opposite-Spin Scale   =       1.2000000000000000 [-]
	 SCS Same-Spin Energy      =      -0.2448984343571224 [Eh]
	 SCS Opposite-Spin Energy  =      -2.7184435679071179 [Eh]
	 SCS Correlation Energy    =      -2.9633420022642403 [Eh]
	 SCS Total Energy          =    -670.2232417475803459 [Eh]
	-----------------------------------------------------------

  Dipole Moment: [D]
     X:     0.5365      Y:     0.9066      Z:     0.4350     Total:     1.1397

*** Psi4 exiting successfully. Buy a developer a beer!
