                               Psi4 1.3.2 release

  ==> Input File <==

--------------------------------------------------------------------------
#psi4
#
memory 32 gb

molecule  {
0 1
  O       -0.0649480    -2.0007500    -0.4572220
  N        2.4804198    -1.4687161     0.4062038
  C        0.8099710     0.2105070    -0.2160820
  C        2.1525410    -0.1743900     0.0797160
  C       -0.2789970    -0.7898520    -0.2615780
  C       -1.6915990    -0.3449750    -0.0589870
  C        0.5343510     1.5458860    -0.5628900
  C        3.1364470     0.8361460     0.1179860
  C        1.5277130     2.5174420    -0.5614560
  C        2.8303350     2.1515420    -0.2122750
  C       -2.0336590     0.6403590     0.8794580
  C       -2.7013800    -1.0161980    -0.7629970
  C       -3.3755740     0.9555500     1.0975090
  C       -4.0377320    -0.6802290    -0.5577760
  C        3.8275740    -1.9241930     0.5318010
  C       -4.3779170     0.3056950     0.3735650
  H       -0.4794410     1.8136050    -0.8470490
  H        4.1617050     0.5791300     0.3641360
  H        1.7801010    -2.1461120     0.0568400
  H        1.2958720     3.5406330    -0.8437660
  H        3.6204230     2.8995150    -0.1925990
  H       -1.2541740     1.1373190     1.4511930
  H       -2.4205700    -1.7983260    -1.4636490
  H       -3.6394530     1.7093650     1.8355280
  H       -4.8171580    -1.1915530    -1.1177270
  H        4.4331860    -1.7182640    -0.3623870
  H        3.8136890    -3.0019290     0.7024740
  H        4.3131750    -1.4541550     1.3926990
  H       -5.4217990     0.5615290     0.5392290
units angstrom
no_reorient  #important for SAPT in psi4, default
symmetry c1  #important for SAPT in psi4, default
}

set PROPERTIES_ORIGIN ["COM"]
properties('MP2/aug-cc-pvtz', properties = ['dipole'])
--------------------------------------------------------------------------

    Molecular point group: c1
  Charge       = 0
  Multiplicity = 1
  Basis Set: AUG-CC-PVTZ
    Blend: AUG-CC-PVTZ
  Basis Set: (AUG-CC-PVTZ AUX)
    Blend: AUG-CC-PVTZ-JKFIT

    Orbital Energies [Eh]
    ---------------------

    Doubly Occupied:

       1A    -20.540253     2A    -15.562467     3A    -11.340584
       4A    -11.297533     5A    -11.255595     6A    -11.252906
       7A    -11.252509     8A    -11.251623     9A    -11.250431
      10A    -11.249544    11A    -11.247245    12A    -11.245148
      13A    -11.243733    14A    -11.239200    15A    -11.228445
      16A    -11.225923    17A     -1.372891    18A     -1.246294
      19A     -1.163750    20A     -1.142712    21A     -1.056263
      22A     -1.025765    23A     -1.021020    24A     -1.011287
      25A     -0.928910    26A     -0.888241    27A     -0.845457
      28A     -0.834856    29A     -0.806143    30A     -0.771530
      31A     -0.718031    32A     -0.700079    33A     -0.683824
      34A     -0.656787    35A     -0.645585    36A     -0.633330
      37A     -0.619585    38A     -0.617243    39A     -0.608857
      40A     -0.602290    41A     -0.596259    42A     -0.579385
      43A     -0.545368    44A     -0.540749    45A     -0.530356
      46A     -0.519600    47A     -0.512753    48A     -0.504592
      49A     -0.501485    50A     -0.486639    51A     -0.427980
      52A     -0.418892    53A     -0.350639    54A     -0.345406
      55A     -0.343421    56A     -0.291582

  @DF-RHF Final Energy:  -667.26171206717220

   => Energetics <=

    Nuclear Repulsion Energy =           1002.4665289205536283
    One-Electron Energy =               -2895.8985348831120064
    Two-Electron Energy =                1226.1702938953862940
    Total Energy =                       -667.2617120671720841
  Basis Set: (AUG-CC-PVTZ AUX)
    Blend: AUG-CC-PVTZ-RI
    Molecular point group: c1

    Geometry (in Angstrom), charge = 0, multiplicity = 1:

       Center              X                  Y                   Z               Mass
    ------------   -----------------  -----------------  -----------------  -----------------
         O           -0.041202114949    -1.996814203757    -0.450275421824    15.994914619570
         N            2.504165685051    -1.464780303757     0.413150378176    14.003074004430
         C            0.833716885051     0.214442796243    -0.209135421824    12.000000000000
         C            2.176286885051    -0.170454203757     0.086662578176    12.000000000000
         C           -0.255251114949    -0.785916203757    -0.254631421824    12.000000000000
         C           -1.667853114949    -0.341039203757    -0.052040421824    12.000000000000
         C            0.558096885051     1.549821796243    -0.555943421824    12.000000000000
         C            3.160192885051     0.840081796243     0.124932578176    12.000000000000
         C            1.551458885051     2.521377796243    -0.554509421824    12.000000000000
         C            2.854080885051     2.155477796243    -0.205328421824    12.000000000000
         C           -2.009913114949     0.644294796243     0.886404578176    12.000000000000
         C           -2.677634114949    -1.012262203757    -0.756050421824    12.000000000000
         C           -3.351828114949     0.959485796243     1.104455578176    12.000000000000
         C           -4.013986114949    -0.676293203757    -0.550829421824    12.000000000000
         C            3.851319885051    -1.920257203757     0.538747578176    12.000000000000
         C           -4.354171114949     0.309630796243     0.380511578176    12.000000000000
         H           -0.455695114949     1.817540796243    -0.840102421824     1.007825032230
         H            4.185450885051     0.583065796243     0.371082578176     1.007825032230
         H            1.803846885051    -2.142176203757     0.063786578176     1.007825032230
         H            1.319617885051     3.544568796243    -0.836819421824     1.007825032230
         H            3.644168885051     2.903450796243    -0.185652421824     1.007825032230
         H           -1.230428114949     1.141254796243     1.458139578176     1.007825032230
         H           -2.396824114949    -1.794390203757    -1.456702421824     1.007825032230
         H           -3.615707114949     1.713300796243     1.842474578176     1.007825032230
         H           -4.793412114949    -1.187617203757    -1.110780421824     1.007825032230
         H            4.456931885051    -1.714328203757    -0.355440421824     1.007825032230
         H            3.837434885051    -2.997993203757     0.709420578176     1.007825032230
         H            4.336920885051    -1.450219203757     1.399645578176     1.007825032230
         H           -5.398053114949     0.565464796243     0.546175578176     1.007825032230

  Basis Set: AUG-CC-PVTZ
    Blend: AUG-CC-PVTZ
  Basis Set: (AUG-CC-PVTZ AUX)
    Blend: AUG-CC-PVTZ-JKFIT
	 Reference Energy          =    -667.2617120671721977 [Eh]
	 Singles Energy            =      -0.0000000000000000 [Eh]
	 Same-Spin Energy          =      -0.7348511262460825 [Eh]
	 Opposite-Spin Energy      =      -2.2654974706645392 [Eh]
	 Correlation Energy        =      -3.0003485969106216 [Eh]
	 Total Energy              =    -670.2620606640828100 [Eh]

	 ================> DF-SCS-MP2 Energies <==================
	-----------------------------------------------------------
	 SCS Same-Spin Scale       =       0.3333333333333333 [-]
	 SCS Opposite-Spin Scale   =       1.2000000000000000 [-]
	 SCS Same-Spin Energy      =      -0.2449503754153608 [Eh]
	 SCS Opposite-Spin Energy  =      -2.7185969647974471 [Eh]
	 SCS Correlation Energy    =      -2.9635473402128079 [Eh]
	 SCS Total Energy          =    -670.2252594073850105 [Eh]
	-----------------------------------------------------------

  Dipole Moment: [D]
     X:     0.2640      Y:     1.1955      Z:     0.3496     Total:     1.2732

*** Psi4 exiting successfully. Buy a developer a beer!
