                               Psi4 1.4a3.dev225

  ==> Input File <==

--------------------------------------------------------------------------
#psi4
#
memory 32 gb

molecule  {
0 1
  O       -0.0649480    -2.0007500    -0.4572220
  N        2.4573690    -1.4749290     0.4038410
  C        0.8099710     0.2105070    -0.2160820
  C        2.1525410    -0.1743900     0.0797160
  C       -0.2789970    -0.7898520    -0.2615780
  C       -1.7388498    -0.3300941    -0.0522104
  C        0.5343510     1.5458860    -0.5628900
  C        3.1364470     0.8361460     0.1179860
  C        1.5277130     2.5174420    -0.5614560
  C        2.8303350     2.1515420    -0.2122750
  C       -2.0336590     0.6403590     0.8794580
  C       -2.7013800    -1.0161980    -0.7629970
  C       -3.3755740     0.9555500     1.0975090
  C       -4.0377320    -0.6802290    -0.5577760
  C        3.8275740    -1.9241930     0.5318010
  C       -4.3779170     0.3056950     0.3735650
  H       -0.4794410     1.8136050    -0.8470490
  H        4.1617050     0.5791300     0.3641360
  H        1.7801010    -2.1461120     0.0568400
  H        1.2958720     3.5406330    -0.8437660
  H        3.6204230     2.8995150    -0.1925990
  H       -1.2541740     1.1373190     1.4511930
  H       -2.4205700    -1.7983260    -1.4636490
  H       -3.6394530     1.7093650     1.8355280
  H       -4.8171580    -1.1915530    -1.1177270
  H        4.4331860    -1.7182640    -0.3623870
  H        3.8136890    -3.0019290     0.7024740
  H        4.3131750    -1.4541550     1.3926990
  H       -5.4217990     0.5615290     0.5392290
units angstrom
no_reorient  #important for SAPT in psi4, default
symmetry c1  #important for SAPT in psi4, default
}

set PROPERTIES_ORIGIN ["COM"]
properties('MP2/aug-cc-pvtz', properties = ['dipole'])
--------------------------------------------------------------------------

    Molecular point group: c1
  Charge       = 0
  Multiplicity = 1
  Basis Set: AUG-CC-PVTZ
    Blend: AUG-CC-PVTZ
  Basis Set: (AUG-CC-PVTZ AUX)
    Blend: AUG-CC-PVTZ-JKFIT

    Orbital Energies [Eh]
    ---------------------

    Doubly Occupied:

       1A    -20.541327     2A    -15.562231     3A    -11.342625
       4A    -11.297567     5A    -11.257330     6A    -11.252930
       7A    -11.252909     8A    -11.248220     9A    -11.247688
      10A    -11.246448    11A    -11.244295    12A    -11.243583
      13A    -11.242321    14A    -11.238943    15A    -11.229151
      16A    -11.226142    17A     -1.372161    18A     -1.244699
      19A     -1.167248    20A     -1.142418    21A     -1.053449
      22A     -1.026695    23A     -1.021717    24A     -1.010256
      25A     -0.929239    26A     -0.884797    27A     -0.842792
      28A     -0.835992    29A     -0.807948    30A     -0.771815
      31A     -0.717625    32A     -0.701582    33A     -0.682124
      34A     -0.655321    35A     -0.642821    36A     -0.634388
      37A     -0.619503    38A     -0.615391    39A     -0.606199
      40A     -0.603637    41A     -0.597342    42A     -0.577880
      43A     -0.544761    44A     -0.542408    45A     -0.530971
      46A     -0.518432    47A     -0.512932    48A     -0.506369
      49A     -0.503820    50A     -0.487900    51A     -0.429538
      52A     -0.414803    53A     -0.350901    54A     -0.346846
      55A     -0.343492    56A     -0.292436

  @DF-RHF Final Energy:  -667.26110613926608

   => Energetics <=

    Nuclear Repulsion Energy =           1002.3798154700759824
    One-Electron Energy =               -2895.7531244822707777
    Two-Electron Energy =                1226.1122028729287194
    Total Energy =                       -667.2611061392660758
  Basis Set: (AUG-CC-PVTZ AUX)
    Blend: AUG-CC-PVTZ-RI
    Molecular point group: c1

    Geometry (in Angstrom), charge = 0, multiplicity = 1:

       Center              X                  Y                   Z               Mass
    ------------   -----------------  -----------------  -----------------  -----------------
         O           -0.036987084804    -1.997247985025    -0.450503905018    15.994914619570
         N            2.485329915196    -1.471426985025     0.410559094982    14.003074004430
         C            0.837931915196     0.214009014975    -0.209363905018    12.000000000000
         C            2.180501915196    -0.170887985025     0.086434094982    12.000000000000
         C           -0.251036084804    -0.786349985025    -0.254859905018    12.000000000000
         C           -1.710888884804    -0.326592085025    -0.045492305018    12.000000000000
         C            0.562311915196     1.549388014975    -0.556171905018    12.000000000000
         C            3.164407915196     0.839648014975     0.124704094982    12.000000000000
         C            1.555673915196     2.520944014975    -0.554737905018    12.000000000000
         C            2.858295915196     2.155044014975    -0.205556905018    12.000000000000
         C           -2.005698084804     0.643861014975     0.886176094982    12.000000000000
         C           -2.673419084804    -1.012695985025    -0.756278905018    12.000000000000
         C           -3.347613084804     0.959052014975     1.104227094982    12.000000000000
         C           -4.009771084804    -0.676726985025    -0.551057905018    12.000000000000
         C            3.855534915196    -1.920690985025     0.538519094982    12.000000000000
         C           -4.349956084804     0.309197014975     0.380283094982    12.000000000000
         H           -0.451480084804     1.817107014975    -0.840330905018     1.007825032230
         H            4.189665915196     0.582632014975     0.370854094982     1.007825032230
         H            1.808061915196    -2.142609985025     0.063558094982     1.007825032230
         H            1.323832915196     3.544135014975    -0.837047905018     1.007825032230
         H            3.648383915196     2.903017014975    -0.185880905018     1.007825032230
         H           -1.226213084804     1.140821014975     1.457911094982     1.007825032230
         H           -2.392609084804    -1.794823985025    -1.456930905018     1.007825032230
         H           -3.611492084804     1.712867014975     1.842246094982     1.007825032230
         H           -4.789197084804    -1.188050985025    -1.111008905018     1.007825032230
         H            4.461146915196    -1.714761985025    -0.355668905018     1.007825032230
         H            3.841649915196    -2.998426985025     0.709192094982     1.007825032230
         H            4.341135915196    -1.450652985025     1.399417094982     1.007825032230
         H           -5.393838084804     0.565031014975     0.545947094982     1.007825032230

  Basis Set: AUG-CC-PVTZ
    Blend: AUG-CC-PVTZ
  Basis Set: (AUG-CC-PVTZ AUX)
    Blend: AUG-CC-PVTZ-JKFIT
	 Reference Energy          =    -667.2611061392660758 [Eh]
	 Singles Energy            =      -0.0000000000000000 [Eh]
	 Same-Spin Energy          =      -0.7343164308690365 [Eh]
	 Opposite-Spin Energy      =      -2.2647675105340195 [Eh]
	 Correlation Energy        =      -2.9990839414030561 [Eh]
	 Total Energy              =    -670.2601900806690765 [Eh]

	 ================> DF-SCS-MP2 Energies <==================
	-----------------------------------------------------------
	 SCS Same-Spin Scale       =       0.3333333333333333 [-]
	 SCS Opposite-Spin Scale   =       1.2000000000000000 [-]
	 SCS Same-Spin Energy      =      -0.2447721436230122 [Eh]
	 SCS Opposite-Spin Energy  =      -2.7177210126408231 [Eh]
	 SCS Correlation Energy    =      -2.9624931562638355 [Eh]
	 SCS Total Energy          =    -670.2235992955298798 [Eh]
	-----------------------------------------------------------

  Dipole Moment: [D]
     X:     0.4347      Y:     1.1719      Z:     0.3292     Total:     1.2926

*** Psi4 exiting successfully. Buy a developer a beer!
