                               Psi4 1.3.2 release

  ==> Input File <==

--------------------------------------------------------------------------
#psi4
#
memory 32 gb

molecule  {
0 1
  O       -0.0649480    -2.0007500    -0.4572220
  N        2.4743759    -1.4278329     0.3970599
  C        0.8099710     0.2105070    -0.2160820
  C        2.1525410    -0.1743900     0.0797160
  C       -0.2789970    -0.7898520    -0.2615780
  C       -1.6915990    -0.3449750    -0.0589870
  C        0.5343510     1.5458860    -0.5628900
  C        3.1364470     0.8361460     0.1179860
  C        1.5277130     2.5174420    -0.5614560
  C        2.8303350     2.1515420    -0.2122750
  C       -2.0336590     0.6403590     0.8794580
  C       -2.7013800    -1.0161980    -0.7629970
  C       -3.3755740     0.9555500     1.0975090
  C       -4.0377320    -0.6802290    -0.5577760
  C        3.8275740    -1.9241930     0.5318010
  C       -4.3779170     0.3056950     0.3735650
  H       -0.4794410     1.8136050    -0.8470490
  H        4.1617050     0.5791300     0.3641360
  H        1.7801010    -2.1461120     0.0568400
  H        1.2958720     3.5406330    -0.8437660
  H        3.6204230     2.8995150    -0.1925990
  H       -1.2541740     1.1373190     1.4511930
  H       -2.4205700    -1.7983260    -1.4636490
  H       -3.6394530     1.7093650     1.8355280
  H       -4.8171580    -1.1915530    -1.1177270
  H        4.4331860    -1.7182640    -0.3623870
  H        3.8136890    -3.0019290     0.7024740
  H        4.3131750    -1.4541550     1.3926990
  H       -5.4217990     0.5615290     0.5392290
units angstrom
no_reorient  #important for SAPT in psi4, default
symmetry c1  #important for SAPT in psi4, default
}

set PROPERTIES_ORIGIN ["COM"]
properties('MP2/aug-cc-pvtz', properties = ['dipole'])
--------------------------------------------------------------------------

    Molecular point group: c1
  Charge       = 0
  Multiplicity = 1
  Basis Set: AUG-CC-PVTZ
    Blend: AUG-CC-PVTZ
  Basis Set: (AUG-CC-PVTZ AUX)
    Blend: AUG-CC-PVTZ-JKFIT

    Orbital Energies [Eh]
    ---------------------

    Doubly Occupied:

       1A    -20.538829     2A    -15.566760     3A    -11.339277
       4A    -11.295062     5A    -11.260619     6A    -11.251481
       7A    -11.251099     8A    -11.250782     9A    -11.249727
      10A    -11.248680    11A    -11.246475    12A    -11.244442
      13A    -11.243067    14A    -11.235670    15A    -11.225213
      16A    -11.222289    17A     -1.371932    18A     -1.256232
      19A     -1.162876    20A     -1.140098    21A     -1.054922
      22A     -1.024948    23A     -1.020097    24A     -1.009729
      25A     -0.933136    26A     -0.886956    27A     -0.845429
      28A     -0.834309    29A     -0.804011    30A     -0.771724
      31A     -0.717354    32A     -0.701924    33A     -0.683022
      34A     -0.657958    35A     -0.644426    36A     -0.633095
      37A     -0.619604    38A     -0.618154    39A     -0.608057
      40A     -0.601677    41A     -0.595517    42A     -0.575544
      43A     -0.545310    44A     -0.543820    45A     -0.530580
      46A     -0.519440    47A     -0.512886    48A     -0.502177
      49A     -0.500671    50A     -0.486885    51A     -0.433673
      52A     -0.416899    53A     -0.349597    54A     -0.344670
      55A     -0.342653    56A     -0.286963

  @DF-RHF Final Energy:  -667.25942255401424

   => Energetics <=

    Nuclear Repulsion Energy =           1003.2700934921101634
    One-Electron Energy =               -2897.5421784069826572
    Two-Electron Energy =                1227.0126623608582577
    Total Energy =                       -667.2594225540142361
  Basis Set: (AUG-CC-PVTZ AUX)
    Blend: AUG-CC-PVTZ-RI
    Molecular point group: c1

    Geometry (in Angstrom), charge = 0, multiplicity = 1:

       Center              X                  Y                   Z               Mass
    ------------   -----------------  -----------------  -----------------  -----------------
         O           -0.040801199299    -1.999526147152    -0.449668870987    15.994914619570
         N            2.498522700701    -1.426609047152     0.404613029013    14.003074004430
         C            0.834117800701     0.211730852848    -0.208528870987    12.000000000000
         C            2.176687800701    -0.173166147152     0.087269129013    12.000000000000
         C           -0.254850199299    -0.788628147152    -0.254024870987    12.000000000000
         C           -1.667452199299    -0.343751147152    -0.051433870987    12.000000000000
         C            0.558497800701     1.547109852848    -0.555336870987    12.000000000000
         C            3.160593800701     0.837369852848     0.125539129013    12.000000000000
         C            1.551859800701     2.518665852848    -0.553902870987    12.000000000000
         C            2.854481800701     2.152765852848    -0.204721870987    12.000000000000
         C           -2.009512199299     0.641582852848     0.887011129013    12.000000000000
         C           -2.677233199299    -1.014974147152    -0.755443870987    12.000000000000
         C           -3.351427199299     0.956773852848     1.105062129013    12.000000000000
         C           -4.013585199299    -0.679005147152    -0.550222870987    12.000000000000
         C            3.851720800701    -1.922969147152     0.539354129013    12.000000000000
         C           -4.353770199299     0.306918852848     0.381118129013    12.000000000000
         H           -0.455294199299     1.814828852848    -0.839495870987     1.007825032230
         H            4.185851800701     0.580353852848     0.371689129013     1.007825032230
         H            1.804247800701    -2.144888147152     0.064393129013     1.007825032230
         H            1.320018800701     3.541856852848    -0.836212870987     1.007825032230
         H            3.644569800701     2.900738852848    -0.185045870987     1.007825032230
         H           -1.230027199299     1.138542852848     1.458746129013     1.007825032230
         H           -2.396423199299    -1.797102147152    -1.456095870987     1.007825032230
         H           -3.615306199299     1.710588852848     1.843081129013     1.007825032230
         H           -4.793011199299    -1.190329147152    -1.110173870987     1.007825032230
         H            4.457332800701    -1.717040147152    -0.354833870987     1.007825032230
         H            3.837835800701    -3.000705147152     0.710027129013     1.007825032230
         H            4.337321800701    -1.452931147152     1.400252129013     1.007825032230
         H           -5.397652199299     0.562752852848     0.546782129013     1.007825032230

  Basis Set: AUG-CC-PVTZ
    Blend: AUG-CC-PVTZ
  Basis Set: (AUG-CC-PVTZ AUX)
    Blend: AUG-CC-PVTZ-JKFIT
	 Reference Energy          =    -667.2594225540142361 [Eh]
	 Singles Energy            =      -0.0000000000000000 [Eh]
	 Same-Spin Energy          =      -0.7349927386103225 [Eh]
	 Opposite-Spin Energy      =      -2.2656414436368162 [Eh]
	 Correlation Energy        =      -3.0006341822471390 [Eh]
	 Total Energy              =    -670.2600567362613901 [Eh]

	 ================> DF-SCS-MP2 Energies <==================
	-----------------------------------------------------------
	 SCS Same-Spin Scale       =       0.3333333333333333 [-]
	 SCS Opposite-Spin Scale   =       1.2000000000000000 [-]
	 SCS Same-Spin Energy      =      -0.2449975795367742 [Eh]
	 SCS Opposite-Spin Energy  =      -2.7187697323641795 [Eh]
	 SCS Correlation Energy    =      -2.9637673119009538 [Eh]
	 SCS Total Energy          =    -670.2231898659151739 [Eh]
	-----------------------------------------------------------

  Dipole Moment: [D]
     X:     0.4528      Y:     0.9138      Z:     0.4339     Total:     1.1083

*** Psi4 exiting successfully. Buy a developer a beer!
