                               Psi4 1.3.2 release

  ==> Input File <==

--------------------------------------------------------------------------
#psi4
#
memory 32 gb

molecule  {
0 1
  O       -0.0649480    -2.0007500    -0.4572220
  N        2.4573690    -1.4749290     0.4038410
  C        0.8099710     0.2105070    -0.2160820
  C        2.0743450    -0.2074035     0.0349907
  C       -0.2789970    -0.7898520    -0.2615780
  C       -1.6915990    -0.3449750    -0.0589870
  C        0.5343510     1.5458860    -0.5628900
  C        3.1364470     0.8361460     0.1179860
  C        1.5277130     2.5174420    -0.5614560
  C        2.8303350     2.1515420    -0.2122750
  C       -2.0336590     0.6403590     0.8794580
  C       -2.7013800    -1.0161980    -0.7629970
  C       -3.3755740     0.9555500     1.0975090
  C       -4.0377320    -0.6802290    -0.5577760
  C        3.8275740    -1.9241930     0.5318010
  C       -4.3779170     0.3056950     0.3735650
  H       -0.4794410     1.8136050    -0.8470490
  H        4.1617050     0.5791300     0.3641360
  H        1.7801010    -2.1461120     0.0568400
  H        1.2958720     3.5406330    -0.8437660
  H        3.6204230     2.8995150    -0.1925990
  H       -1.2541740     1.1373190     1.4511930
  H       -2.4205700    -1.7983260    -1.4636490
  H       -3.6394530     1.7093650     1.8355280
  H       -4.8171580    -1.1915530    -1.1177270
  H        4.4331860    -1.7182640    -0.3623870
  H        3.8136890    -3.0019290     0.7024740
  H        4.3131750    -1.4541550     1.3926990
  H       -5.4217990     0.5615290     0.5392290
units angstrom
no_reorient  #important for SAPT in psi4, default
symmetry c1  #important for SAPT in psi4, default
}

set PROPERTIES_ORIGIN ["COM"]
properties('MP2/aug-cc-pvtz', properties = ['dipole'])
--------------------------------------------------------------------------

    Molecular point group: c1
  Charge       = 0
  Multiplicity = 1
  Basis Set: AUG-CC-PVTZ
    Blend: AUG-CC-PVTZ
  Basis Set: (AUG-CC-PVTZ AUX)
    Blend: AUG-CC-PVTZ-JKFIT

    Orbital Energies [Eh]
    ---------------------

    Doubly Occupied:

       1A    -20.540415     2A    -15.562686     3A    -11.339593
       4A    -11.297978     5A    -11.260051     6A    -11.251546
       7A    -11.250963     8A    -11.250270     9A    -11.249071
      10A    -11.248860    11A    -11.247029    12A    -11.245067
      13A    -11.243582    14A    -11.236848    15A    -11.231391
      16A    -11.226096    17A     -1.373562    18A     -1.244702
      19A     -1.163706    20A     -1.142774    21A     -1.057046
      22A     -1.028305    23A     -1.023604    24A     -1.002973
      25A     -0.931222    26A     -0.886123    27A     -0.844105
      28A     -0.836736    29A     -0.810787    30A     -0.771014
      31A     -0.717823    32A     -0.696855    33A     -0.685894
      34A     -0.654524    35A     -0.645207    36A     -0.633739
      37A     -0.621000    38A     -0.613908    39A     -0.608503
      40A     -0.600096    41A     -0.596059    42A     -0.578877
      43A     -0.546968    44A     -0.542399    45A     -0.527249
      46A     -0.517799    47A     -0.513611    48A     -0.507560
      49A     -0.501153    50A     -0.485591    51A     -0.430207
      52A     -0.416708    53A     -0.350603    54A     -0.345668
      55A     -0.343267    56A     -0.291532

  @DF-RHF Final Energy:  -667.25229239220164

   => Energetics <=

    Nuclear Repulsion Energy =           1003.1869714141884060
    One-Electron Energy =               -2897.3367103906439297
    Two-Electron Energy =                1226.8974465842536574
    Total Energy =                       -667.2522923922017526
  Basis Set: (AUG-CC-PVTZ AUX)
    Blend: AUG-CC-PVTZ-RI
    Molecular point group: c1

    Geometry (in Angstrom), charge = 0, multiplicity = 1:

       Center              X                  Y                   Z               Mass
    ------------   -----------------  -----------------  -----------------  -----------------
         O           -0.035227999522    -1.994525419518    -0.447576270545    15.994914619570
         N            2.487089000478    -1.468704419518     0.413486729455    14.003074004430
         C            0.839691000478     0.216731580482    -0.206436270545    12.000000000000
         C            2.104065000478    -0.201178919518     0.044636429455    12.000000000000
         C           -0.249276999522    -0.783627419518    -0.251932270545    12.000000000000
         C           -1.661878999522    -0.338750419518    -0.049341270545    12.000000000000
         C            0.564071000478     1.552110580482    -0.553244270545    12.000000000000
         C            3.166167000478     0.842370580482     0.127631729455    12.000000000000
         C            1.557433000478     2.523666580482    -0.551810270545    12.000000000000
         C            2.860055000478     2.157766580482    -0.202629270545    12.000000000000
         C           -2.003938999522     0.646583580482     0.889103729455    12.000000000000
         C           -2.671659999522    -1.009973419518    -0.753351270545    12.000000000000
         C           -3.345853999522     0.961774580482     1.107154729455    12.000000000000
         C           -4.008011999522    -0.674004419518    -0.548130270545    12.000000000000
         C            3.857294000478    -1.917968419518     0.541446729455    12.000000000000
         C           -4.348196999522     0.311919580482     0.383210729455    12.000000000000
         H           -0.449720999522     1.819829580482    -0.837403270545     1.007825032230
         H            4.191425000478     0.585354580482     0.373781729455     1.007825032230
         H            1.809821000478    -2.139887419518     0.066485729455     1.007825032230
         H            1.325592000478     3.546857580482    -0.834120270545     1.007825032230
         H            3.650143000478     2.905739580482    -0.182953270545     1.007825032230
         H           -1.224453999522     1.143543580482     1.460838729455     1.007825032230
         H           -2.390849999522    -1.792101419518    -1.454003270545     1.007825032230
         H           -3.609732999522     1.715589580482     1.845173729455     1.007825032230
         H           -4.787437999522    -1.185328419518    -1.108081270545     1.007825032230
         H            4.462906000478    -1.712039419518    -0.352741270545     1.007825032230
         H            3.843409000478    -2.995704419518     0.712119729455     1.007825032230
         H            4.342895000478    -1.447930419518     1.402344729455     1.007825032230
         H           -5.392078999522     0.567753580482     0.548874729455     1.007825032230

  Basis Set: AUG-CC-PVTZ
    Blend: AUG-CC-PVTZ
  Basis Set: (AUG-CC-PVTZ AUX)
    Blend: AUG-CC-PVTZ-JKFIT
	 Reference Energy          =    -667.2522923922016389 [Eh]
	 Singles Energy            =      -0.0000000000000000 [Eh]
	 Same-Spin Energy          =      -0.7344417960954507 [Eh]
	 Opposite-Spin Energy      =      -2.2660238203553731 [Eh]
	 Correlation Energy        =      -3.0004656164508239 [Eh]
	 Total Energy              =    -670.2527580086524495 [Eh]

	 ================> DF-SCS-MP2 Energies <==================
	-----------------------------------------------------------
	 SCS Same-Spin Scale       =       0.3333333333333333 [-]
	 SCS Opposite-Spin Scale   =       1.2000000000000000 [-]
	 SCS Same-Spin Energy      =      -0.2448139320318169 [Eh]
	 SCS Opposite-Spin Energy  =      -2.7192285844264474 [Eh]
	 SCS Correlation Energy    =      -2.9640425164582642 [Eh]
	 SCS Total Energy          =    -670.2163349086598600 [Eh]
	-----------------------------------------------------------

  Dipole Moment: [D]
     X:     0.3805      Y:     1.1305      Z:     0.3520     Total:     1.2437

*** Psi4 exiting successfully. Buy a developer a beer!
