                               Psi4 1.4a3.dev225

  ==> Input File <==

--------------------------------------------------------------------------
#psi4
#
memory 32 gb

molecule  {
0 1
  O       -0.0649480    -2.0007500    -0.4572220
  N        2.4573690    -1.4749290     0.4038410
  C        0.8099710     0.2105070    -0.2160820
  C        2.1055202    -0.1609098     0.0693563
  C       -0.2789970    -0.7898520    -0.2615780
  C       -1.6915990    -0.3449750    -0.0589870
  C        0.5343510     1.5458860    -0.5628900
  C        3.1364470     0.8361460     0.1179860
  C        1.5277130     2.5174420    -0.5614560
  C        2.8303350     2.1515420    -0.2122750
  C       -2.0336590     0.6403590     0.8794580
  C       -2.7013800    -1.0161980    -0.7629970
  C       -3.3755740     0.9555500     1.0975090
  C       -4.0377320    -0.6802290    -0.5577760
  C        3.8275740    -1.9241930     0.5318010
  C       -4.3779170     0.3056950     0.3735650
  H       -0.4794410     1.8136050    -0.8470490
  H        4.1617050     0.5791300     0.3641360
  H        1.7801010    -2.1461120     0.0568400
  H        1.2958720     3.5406330    -0.8437660
  H        3.6204230     2.8995150    -0.1925990
  H       -1.2541740     1.1373190     1.4511930
  H       -2.4205700    -1.7983260    -1.4636490
  H       -3.6394530     1.7093650     1.8355280
  H       -4.8171580    -1.1915530    -1.1177270
  H        4.4331860    -1.7182640    -0.3623870
  H        3.8136890    -3.0019290     0.7024740
  H        4.3131750    -1.4541550     1.3926990
  H       -5.4217990     0.5615290     0.5392290
units angstrom
no_reorient  #important for SAPT in psi4, default
symmetry c1  #important for SAPT in psi4, default
}

set PROPERTIES_ORIGIN ["COM"]
properties('MP2/aug-cc-pvtz', properties = ['dipole'])
--------------------------------------------------------------------------

    Molecular point group: c1
  Charge       = 0
  Multiplicity = 1
  Basis Set: AUG-CC-PVTZ
    Blend: AUG-CC-PVTZ
  Basis Set: (AUG-CC-PVTZ AUX)
    Blend: AUG-CC-PVTZ-JKFIT

    Orbital Energies [Eh]
    ---------------------

    Doubly Occupied:

       1A    -20.541220     2A    -15.558063     3A    -11.341261
       4A    -11.295644     5A    -11.255888     6A    -11.252440
       7A    -11.252165     8A    -11.251439     9A    -11.250824
      10A    -11.250007    11A    -11.247682    12A    -11.245573
      13A    -11.244102    14A    -11.235390    15A    -11.233051
      16A    -11.227561    17A     -1.373699    18A     -1.235405
      19A     -1.164290    20A     -1.143925    21A     -1.057789
      22A     -1.027261    23A     -1.023373    24A     -1.008261
      25A     -0.926051    26A     -0.888364    27A     -0.845425
      28A     -0.836554    29A     -0.810244    30A     -0.771985
      31A     -0.718904    32A     -0.696798    33A     -0.683651
      34A     -0.655288    35A     -0.645409    36A     -0.632832
      37A     -0.617583    38A     -0.614456    39A     -0.607671
      40A     -0.602580    41A     -0.596673    42A     -0.578110
      43A     -0.546565    44A     -0.540696    45A     -0.527927
      46A     -0.519733    47A     -0.513345    48A     -0.509101
      49A     -0.501849    50A     -0.486632    51A     -0.424870
      52A     -0.419506    53A     -0.351297    54A     -0.345964
      55A     -0.343868    56A     -0.294495

  @DF-RHF Final Energy:  -667.25975571704805

   => Energetics <=

    Nuclear Repulsion Energy =           1002.9263448066610636
    One-Electron Energy =               -2896.8307244062420978
    Two-Electron Energy =                1226.6446238825330965
    Total Energy =                       -667.2597557170479377
  Basis Set: (AUG-CC-PVTZ AUX)
    Blend: AUG-CC-PVTZ-RI
    Molecular point group: c1

    Geometry (in Angstrom), charge = 0, multiplicity = 1:

       Center              X                  Y                   Z               Mass
    ------------   -----------------  -----------------  -----------------  -----------------
         O           -0.037000159194    -1.997168361989    -0.449529789060    15.994914619570
         N            2.485316840806    -1.471347361989     0.411533210940    14.003074004430
         C            0.837918840806     0.214088638011    -0.208389789060    12.000000000000
         C            2.133468040806    -0.157328161989     0.077048510940    12.000000000000
         C           -0.251049159194    -0.786270361989    -0.253885789060    12.000000000000
         C           -1.663651159194    -0.341393361989    -0.051294789060    12.000000000000
         C            0.562298840806     1.549467638011    -0.555197789060    12.000000000000
         C            3.164394840806     0.839727638011     0.125678210940    12.000000000000
         C            1.555660840806     2.521023638011    -0.553763789060    12.000000000000
         C            2.858282840806     2.155123638011    -0.204582789060    12.000000000000
         C           -2.005711159194     0.643940638011     0.887150210940    12.000000000000
         C           -2.673432159194    -1.012616361989    -0.755304789060    12.000000000000
         C           -3.347626159194     0.959131638011     1.105201210940    12.000000000000
         C           -4.009784159194    -0.676647361989    -0.550083789060    12.000000000000
         C            3.855521840806    -1.920611361989     0.539493210940    12.000000000000
         C           -4.349969159194     0.309276638011     0.381257210940    12.000000000000
         H           -0.451493159194     1.817186638011    -0.839356789060     1.007825032230
         H            4.189652840806     0.582711638011     0.371828210940     1.007825032230
         H            1.808048840806    -2.142530361989     0.064532210940     1.007825032230
         H            1.323819840806     3.544214638011    -0.836073789060     1.007825032230
         H            3.648370840806     2.903096638011    -0.184906789060     1.007825032230
         H           -1.226226159194     1.140900638011     1.458885210940     1.007825032230
         H           -2.392622159194    -1.794744361989    -1.455956789060     1.007825032230
         H           -3.611505159194     1.712946638011     1.843220210940     1.007825032230
         H           -4.789210159194    -1.187971361989    -1.110034789060     1.007825032230
         H            4.461133840806    -1.714682361989    -0.354694789060     1.007825032230
         H            3.841636840806    -2.998347361989     0.710166210940     1.007825032230
         H            4.341122840806    -1.450573361989     1.400391210940     1.007825032230
         H           -5.393851159194     0.565110638011     0.546921210940     1.007825032230

  Basis Set: AUG-CC-PVTZ
    Blend: AUG-CC-PVTZ
  Basis Set: (AUG-CC-PVTZ AUX)
    Blend: AUG-CC-PVTZ-JKFIT
	 Reference Energy          =    -667.2597557170480513 [Eh]
	 Singles Energy            =      -0.0000000000000000 [Eh]
	 Same-Spin Energy          =      -0.7344357324835961 [Eh]
	 Opposite-Spin Energy      =      -2.2655054964357024 [Eh]
	 Correlation Energy        =      -2.9999412289192984 [Eh]
	 Total Energy              =    -670.2596969459673346 [Eh]

	 ================> DF-SCS-MP2 Energies <==================
	-----------------------------------------------------------
	 SCS Same-Spin Scale       =       0.3333333333333333 [-]
	 SCS Opposite-Spin Scale   =       1.2000000000000000 [-]
	 SCS Same-Spin Energy      =      -0.2448119108278654 [Eh]
	 SCS Opposite-Spin Energy  =      -2.7186065957228429 [Eh]
	 SCS Correlation Energy    =      -2.9634185065507084 [Eh]
	 SCS Total Energy          =    -670.2231742235987895 [Eh]
	-----------------------------------------------------------

  Dipole Moment: [D]
     X:     0.2278      Y:     1.3273      Z:     0.3043     Total:     1.3807

*** Psi4 exiting successfully. Buy a developer a beer!
