                               Psi4 1.4a2.dev612

  ==> Input File <==

--------------------------------------------------------------------------
#psi4
#
memory 32 gb

molecule  {
0 1
  O       -0.0649480    -2.0007500    -0.4572220
  N        2.4573690    -1.4749290     0.4038410
  C        0.8099710     0.2105070    -0.2160820
  C        2.1525410    -0.1743900     0.0797160
  C       -0.2393592    -0.6870795    -0.1504598
  C       -1.6915990    -0.3449750    -0.0589870
  C        0.5343510     1.5458860    -0.5628900
  C        3.1364470     0.8361460     0.1179860
  C        1.5277130     2.5174420    -0.5614560
  C        2.8303350     2.1515420    -0.2122750
  C       -2.0336590     0.6403590     0.8794580
  C       -2.7013800    -1.0161980    -0.7629970
  C       -3.3755740     0.9555500     1.0975090
  C       -4.0377320    -0.6802290    -0.5577760
  C        3.8275740    -1.9241930     0.5318010
  C       -4.3779170     0.3056950     0.3735650
  H       -0.4794410     1.8136050    -0.8470490
  H        4.1617050     0.5791300     0.3641360
  H        1.7801010    -2.1461120     0.0568400
  H        1.2958720     3.5406330    -0.8437660
  H        3.6204230     2.8995150    -0.1925990
  H       -1.2541740     1.1373190     1.4511930
  H       -2.4205700    -1.7983260    -1.4636490
  H       -3.6394530     1.7093650     1.8355280
  H       -4.8171580    -1.1915530    -1.1177270
  H        4.4331860    -1.7182640    -0.3623870
  H        3.8136890    -3.0019290     0.7024740
  H        4.3131750    -1.4541550     1.3926990
  H       -5.4217990     0.5615290     0.5392290
units angstrom
no_reorient  #important for SAPT in psi4, default
symmetry c1  #important for SAPT in psi4, default
}

set PROPERTIES_ORIGIN ["COM"]
properties('MP2/aug-cc-pvtz', properties = ['dipole'])
--------------------------------------------------------------------------

    Molecular point group: c1
  Charge       = 0
  Multiplicity = 1
  Basis Set: AUG-CC-PVTZ
    Blend: AUG-CC-PVTZ
  Basis Set: (AUG-CC-PVTZ AUX)
    Blend: AUG-CC-PVTZ-JKFIT

    Orbital Energies [Eh]
    ---------------------

    Doubly Occupied:

       1A    -20.519468     2A    -15.566024     3A    -11.338770
       4A    -11.306677     5A    -11.262257     6A    -11.260896
       7A    -11.259278     8A    -11.251864     9A    -11.249406
      10A    -11.248509    11A    -11.247148    12A    -11.243079
      13A    -11.242923    14A    -11.237984    15A    -11.234502
      16A    -11.231448    17A     -1.302693    18A     -1.245480
      19A     -1.162647    20A     -1.150069    21A     -1.067384
      22A     -1.026593    23A     -1.022250    24A     -1.016167
      25A     -0.936054    26A     -0.897961    27A     -0.847760
      28A     -0.834785    29A     -0.813493    30A     -0.774192
      31A     -0.720227    32A     -0.704811    33A     -0.683432
      34A     -0.658298    35A     -0.638479    36A     -0.634375
      37A     -0.620392    38A     -0.618061    39A     -0.605176
      40A     -0.596374    41A     -0.593547    42A     -0.566213
      43A     -0.546423    44A     -0.537182    45A     -0.529447
      46A     -0.518741    47A     -0.511744    48A     -0.504447
      49A     -0.494705    50A     -0.462473    51A     -0.432878
      52A     -0.415189    53A     -0.353537    54A     -0.343572
      55A     -0.340390    56A     -0.297363

  @DF-RHF Final Energy:  -667.22671798163765

   => Energetics <=

    Nuclear Repulsion Energy =           1002.7879393198786602
    One-Electron Energy =               -2896.5788408702760535
    Two-Electron Energy =                1226.5641835687597450
    Total Energy =                       -667.2267179816376483
  Basis Set: (AUG-CC-PVTZ AUX)
    Blend: AUG-CC-PVTZ-RI
    Molecular point group: c1

    Geometry (in Angstrom), charge = 0, multiplicity = 1:

       Center              X                  Y                   Z               Mass
    ------------   -----------------  -----------------  -----------------  -----------------
         O           -0.041926282400    -2.002244198330    -0.456435221437    15.994914619570
         N            2.480390717600    -1.476423198330     0.404627778563    14.003074004430
         C            0.832992717600     0.209012801670    -0.215295221437    12.000000000000
         C            2.175562717600    -0.175884198330     0.080502778563    12.000000000000
         C           -0.216337482400    -0.688573698330    -0.149673021437    12.000000000000
         C           -1.668577282400    -0.346469198330    -0.058200221437    12.000000000000
         C            0.557372717600     1.544391801670    -0.562103221437    12.000000000000
         C            3.159468717600     0.834651801670     0.118772778563    12.000000000000
         C            1.550734717600     2.515947801670    -0.560669221437    12.000000000000
         C            2.853356717600     2.150047801670    -0.211488221437    12.000000000000
         C           -2.010637282400     0.638864801670     0.880244778563    12.000000000000
         C           -2.678358282400    -1.017692198330    -0.762210221437    12.000000000000
         C           -3.352552282400     0.954055801670     1.098295778563    12.000000000000
         C           -4.014710282400    -0.681723198330    -0.556989221437    12.000000000000
         C            3.850595717600    -1.925687198330     0.532587778563    12.000000000000
         C           -4.354895282400     0.304200801670     0.374351778563    12.000000000000
         H           -0.456419282400     1.812110801670    -0.846262221437     1.007825032230
         H            4.184726717600     0.577635801670     0.364922778563     1.007825032230
         H            1.803122717600    -2.147606198330     0.057626778563     1.007825032230
         H            1.318893717600     3.539138801670    -0.842979221437     1.007825032230
         H            3.643444717600     2.898020801670    -0.191812221437     1.007825032230
         H           -1.231152282400     1.135824801670     1.451979778563     1.007825032230
         H           -2.397548282400    -1.799820198330    -1.462862221437     1.007825032230
         H           -3.616431282400     1.707870801670     1.836314778563     1.007825032230
         H           -4.794136282400    -1.193047198330    -1.116940221437     1.007825032230
         H            4.456207717600    -1.719758198330    -0.361600221437     1.007825032230
         H            3.836710717600    -3.003423198330     0.703260778563     1.007825032230
         H            4.336196717600    -1.455649198330     1.393485778563     1.007825032230
         H           -5.398777282400     0.560034801670     0.540015778563     1.007825032230

  Basis Set: AUG-CC-PVTZ
    Blend: AUG-CC-PVTZ
  Basis Set: (AUG-CC-PVTZ AUX)
    Blend: AUG-CC-PVTZ-JKFIT
	 Reference Energy          =    -667.2267179816376483 [Eh]
	 Singles Energy            =      -0.0000000000000000 [Eh]
	 Same-Spin Energy          =      -0.7387819640064239 [Eh]
	 Opposite-Spin Energy      =      -2.2734986044622896 [Eh]
	 Correlation Energy        =      -3.0122805684687135 [Eh]
	 Total Energy              =    -670.2389985501063165 [Eh]

	 ================> DF-SCS-MP2 Energies <==================
	-----------------------------------------------------------
	 SCS Same-Spin Scale       =       0.3333333333333333 [-]
	 SCS Opposite-Spin Scale   =       1.2000000000000000 [-]
	 SCS Same-Spin Energy      =      -0.2462606546688080 [Eh]
	 SCS Opposite-Spin Energy  =      -2.7281983253547475 [Eh]
	 SCS Correlation Energy    =      -2.9744589800235555 [Eh]
	 SCS Total Energy          =    -670.2011769616611900 [Eh]
	-----------------------------------------------------------

  Dipole Moment: [D]
     X:     0.8688      Y:     1.7098      Z:     0.4408     Total:     1.9678

*** Psi4 exiting successfully. Buy a developer a beer!
