                               Psi4 1.4a2.dev612

  ==> Input File <==

--------------------------------------------------------------------------
#psi4
#
memory 32 gb

molecule  {
0 1
  O       -0.0649480    -2.0007500    -0.4572220
  N        2.4573690    -1.4749290     0.4038410
  C        0.8099710     0.2105070    -0.2160820
  C        2.1525410    -0.1743900     0.0797160
  C       -0.2789970    -0.7898520    -0.2615780
  C       -1.6915990    -0.3449750    -0.0589870
  C        0.5343510     1.5458860    -0.5628900
  C        3.1364470     0.8361460     0.1179860
  C        1.5277130     2.5174420    -0.5614560
  C        2.8303350     2.1515420    -0.2122750
  C       -2.0092794     0.5701313     0.8125722
  C       -2.7013800    -1.0161980    -0.7629970
  C       -3.3755740     0.9555500     1.0975090
  C       -4.0377320    -0.6802290    -0.5577760
  C        3.8275740    -1.9241930     0.5318010
  C       -4.3779170     0.3056950     0.3735650
  H       -0.4794410     1.8136050    -0.8470490
  H        4.1617050     0.5791300     0.3641360
  H        1.7801010    -2.1461120     0.0568400
  H        1.2958720     3.5406330    -0.8437660
  H        3.6204230     2.8995150    -0.1925990
  H       -1.2541740     1.1373190     1.4511930
  H       -2.4205700    -1.7983260    -1.4636490
  H       -3.6394530     1.7093650     1.8355280
  H       -4.8171580    -1.1915530    -1.1177270
  H        4.4331860    -1.7182640    -0.3623870
  H        3.8136890    -3.0019290     0.7024740
  H        4.3131750    -1.4541550     1.3926990
  H       -5.4217990     0.5615290     0.5392290
units angstrom
no_reorient  #important for SAPT in psi4, default
symmetry c1  #important for SAPT in psi4, default
}

set PROPERTIES_ORIGIN ["COM"]
properties('MP2/aug-cc-pvtz', properties = ['dipole'])
--------------------------------------------------------------------------

    Molecular point group: c1
  Charge       = 0
  Multiplicity = 1
  Basis Set: AUG-CC-PVTZ
    Blend: AUG-CC-PVTZ
  Basis Set: (AUG-CC-PVTZ AUX)
    Blend: AUG-CC-PVTZ-JKFIT

    Orbital Energies [Eh]
    ---------------------

    Doubly Occupied:

       1A    -20.541101     2A    -15.562141     3A    -11.340812
       4A    -11.297413     5A    -11.257237     6A    -11.252801
       7A    -11.252766     8A    -11.249943     9A    -11.249084
      10A    -11.248295    11A    -11.246254    12A    -11.242143
      13A    -11.238751    14A    -11.238679    15A    -11.228918
      16A    -11.225892    17A     -1.373758    18A     -1.244609
      19A     -1.171186    20A     -1.142195    21A     -1.061950
      22A     -1.027535    23A     -1.015288    24A     -1.010104
      25A     -0.929653    26A     -0.887335    27A     -0.841374
      28A     -0.839832    29A     -0.808667    30A     -0.773922
      31A     -0.717686    32A     -0.700926    33A     -0.681295
      34A     -0.656871    35A     -0.644752    36A     -0.635331
      37A     -0.618453    38A     -0.615692    39A     -0.612865
      40A     -0.602579    41A     -0.586982    42A     -0.577907
      43A     -0.544909    44A     -0.542178    45A     -0.530581
      46A     -0.517711    47A     -0.516460    48A     -0.504248
      49A     -0.499048    50A     -0.486404    51A     -0.429213
      52A     -0.418478    53A     -0.359550    54A     -0.348517
      55A     -0.335564    56A     -0.292336

  @DF-RHF Final Energy:  -667.25032315560782

   => Energetics <=

    Nuclear Repulsion Energy =           1004.1331372452413007
    One-Electron Energy =               -2899.2145736803436193
    Two-Electron Energy =                1227.8311132794942750
    Total Energy =                       -667.2503231556079299
  Basis Set: (AUG-CC-PVTZ AUX)
    Blend: AUG-CC-PVTZ-RI
    Molecular point group: c1

    Geometry (in Angstrom), charge = 0, multiplicity = 1:

       Center              X                  Y                   Z               Mass
    ------------   -----------------  -----------------  -----------------  -----------------
         O           -0.041058927364    -1.992409971839    -0.446316553064    15.994914619570
         N            2.481258072636    -1.466588971839     0.414746446936    14.003074004430
         C            0.833860072636     0.218847028161    -0.205176553064    12.000000000000
         C            2.176430072636    -0.166049971839     0.090621446936    12.000000000000
         C           -0.255107927364    -0.781511971839    -0.250672553064    12.000000000000
         C           -1.667709927364    -0.336634971839    -0.048081553064    12.000000000000
         C            0.558240072636     1.554226028161    -0.551984553064    12.000000000000
         C            3.160336072636     0.844486028161     0.128891446936    12.000000000000
         C            1.551602072636     2.525782028161    -0.550550553064    12.000000000000
         C            2.854224072636     2.159882028161    -0.201369553064    12.000000000000
         C           -1.985390327364     0.578471328161     0.823477646936    12.000000000000
         C           -2.677490927364    -1.007857971839    -0.752091553064    12.000000000000
         C           -3.351684927364     0.963890028161     1.108414446936    12.000000000000
         C           -4.013842927364    -0.671888971839    -0.546870553064    12.000000000000
         C            3.851463072636    -1.915852971839     0.542706446936    12.000000000000
         C           -4.354027927364     0.314035028161     0.384470446936    12.000000000000
         H           -0.455551927364     1.821945028161    -0.836143553064     1.007825032230
         H            4.185594072636     0.587470028161     0.375041446936     1.007825032230
         H            1.803990072636    -2.137771971839     0.067745446936     1.007825032230
         H            1.319761072636     3.548973028161    -0.832860553064     1.007825032230
         H            3.644312072636     2.907855028161    -0.181693553064     1.007825032230
         H           -1.230284927364     1.145659028161     1.462098446936     1.007825032230
         H           -2.396680927364    -1.789985971839    -1.452743553064     1.007825032230
         H           -3.615563927364     1.717705028161     1.846433446936     1.007825032230
         H           -4.793268927364    -1.183212971839    -1.106821553064     1.007825032230
         H            4.457075072636    -1.709923971839    -0.351481553064     1.007825032230
         H            3.837578072636    -2.993588971839     0.713379446936     1.007825032230
         H            4.337064072636    -1.445814971839     1.403604446936     1.007825032230
         H           -5.397909927364     0.569869028161     0.550134446936     1.007825032230

  Basis Set: AUG-CC-PVTZ
    Blend: AUG-CC-PVTZ
  Basis Set: (AUG-CC-PVTZ AUX)
    Blend: AUG-CC-PVTZ-JKFIT
	 Reference Energy          =    -667.2503231556078163 [Eh]
	 Singles Energy            =      -0.0000000000000000 [Eh]
	 Same-Spin Energy          =      -0.7343141509704130 [Eh]
	 Opposite-Spin Energy      =      -2.2654836782746992 [Eh]
	 Correlation Energy        =      -2.9997978292451122 [Eh]
	 Total Energy              =    -670.2501209848529697 [Eh]

	 ================> DF-SCS-MP2 Energies <==================
	-----------------------------------------------------------
	 SCS Same-Spin Scale       =       0.3333333333333333 [-]
	 SCS Opposite-Spin Scale   =       1.2000000000000000 [-]
	 SCS Same-Spin Energy      =      -0.2447713836568043 [Eh]
	 SCS Opposite-Spin Energy  =      -2.7185804139296388 [Eh]
	 SCS Correlation Energy    =      -2.9633517975864430 [Eh]
	 SCS Total Energy          =    -670.2136749531942996 [Eh]
	-----------------------------------------------------------

  Dipole Moment: [D]
     X:     0.3523      Y:     1.2133      Z:     0.3576     Total:     1.3130

*** Psi4 exiting successfully. Buy a developer a beer!
