                               Psi4 1.3.2 release

  ==> Input File <==

--------------------------------------------------------------------------
#psi4
#
memory 32 gb

molecule  {
0 1
  O       -0.0649480    -2.0007500    -0.4572220
  N        2.4573690    -1.4749290     0.4038410
  C        0.8099710     0.2105070    -0.2160820
  C        1.9644577    -0.1204690     0.0382771
  C       -0.2789970    -0.7898520    -0.2615780
  C       -1.6915990    -0.3449750    -0.0589870
  C        0.5343510     1.5458860    -0.5628900
  C        3.1364470     0.8361460     0.1179860
  C        1.5277130     2.5174420    -0.5614560
  C        2.8303350     2.1515420    -0.2122750
  C       -2.0336590     0.6403590     0.8794580
  C       -2.7013800    -1.0161980    -0.7629970
  C       -3.3755740     0.9555500     1.0975090
  C       -4.0377320    -0.6802290    -0.5577760
  C        3.8275740    -1.9241930     0.5318010
  C       -4.3779170     0.3056950     0.3735650
  H       -0.4794410     1.8136050    -0.8470490
  H        4.1617050     0.5791300     0.3641360
  H        1.7801010    -2.1461120     0.0568400
  H        1.2958720     3.5406330    -0.8437660
  H        3.6204230     2.8995150    -0.1925990
  H       -1.2541740     1.1373190     1.4511930
  H       -2.4205700    -1.7983260    -1.4636490
  H       -3.6394530     1.7093650     1.8355280
  H       -4.8171580    -1.1915530    -1.1177270
  H        4.4331860    -1.7182640    -0.3623870
  H        3.8136890    -3.0019290     0.7024740
  H        4.3131750    -1.4541550     1.3926990
  H       -5.4217990     0.5615290     0.5392290
units angstrom
no_reorient  #important for SAPT in psi4, default
symmetry c1  #important for SAPT in psi4, default
}

set PROPERTIES_ORIGIN ["COM"]
properties('MP2/aug-cc-pvtz', properties = ['dipole'])
--------------------------------------------------------------------------

    Molecular point group: c1
  Charge       = 0
  Multiplicity = 1
  Basis Set: AUG-CC-PVTZ
    Blend: AUG-CC-PVTZ
  Basis Set: (AUG-CC-PVTZ AUX)
    Blend: AUG-CC-PVTZ-JKFIT

    Orbital Energies [Eh]
    ---------------------

    Doubly Occupied:

       1A    -20.546746     2A    -15.545226     3A    -11.345569
       4A    -11.286341     5A    -11.254857     6A    -11.252929
       7A    -11.252499     8A    -11.251899     9A    -11.251527
      10A    -11.250057    11A    -11.247726    12A    -11.247634
      13A    -11.246089    14A    -11.244635    15A    -11.233581
      16A    -11.222630    17A     -1.378265    18A     -1.216527
      19A     -1.166676    20A     -1.148406    21A     -1.066842
      22A     -1.038511    23A     -1.027011    24A     -1.001453
      25A     -0.915841    26A     -0.889156    27A     -0.850643
      28A     -0.842080    29A     -0.814878    30A     -0.769572
      31A     -0.723355    32A     -0.692831    33A     -0.677039
      34A     -0.657334    35A     -0.647680    36A     -0.633232
      37A     -0.620883    38A     -0.612189    39A     -0.601686
      40A     -0.599510    41A     -0.596154    42A     -0.577749
      43A     -0.552567    44A     -0.536138    45A     -0.528107
      46A     -0.520873    47A     -0.518034    48A     -0.505941
      49A     -0.499673    50A     -0.486076    51A     -0.417651
      52A     -0.412992    53A     -0.355879    54A     -0.348876
      55A     -0.346177    56A     -0.300880

  @DF-RHF Final Energy:  -667.20407361184311

   => Energetics <=

    Nuclear Repulsion Energy =           1004.4538179640535418
    One-Electron Energy =               -2899.7651629346437403
    Two-Electron Energy =                1228.1072713587470844
    Total Energy =                       -667.2040736118431141
  Basis Set: (AUG-CC-PVTZ AUX)
    Blend: AUG-CC-PVTZ-RI
    Molecular point group: c1

    Geometry (in Angstrom), charge = 0, multiplicity = 1:

       Center              X                  Y                   Z               Mass
    ------------   -----------------  -----------------  -----------------  -----------------
         O           -0.028981436821    -1.999467226307    -0.447763086525    15.994914619570
         N            2.493335563179    -1.473646226307     0.413299913475    14.003074004430
         C            0.845937563179     0.211789773693    -0.206623086525    12.000000000000
         C            2.000424263179    -0.119186226307     0.047736013475    12.000000000000
         C           -0.243030436821    -0.788569226307    -0.252119086525    12.000000000000
         C           -1.655632436821    -0.343692226307    -0.049528086525    12.000000000000
         C            0.570317563179     1.547168773693    -0.553431086525    12.000000000000
         C            3.172413563179     0.837428773693     0.127444913475    12.000000000000
         C            1.563679563179     2.518724773693    -0.551997086525    12.000000000000
         C            2.866301563179     2.152824773693    -0.202816086525    12.000000000000
         C           -1.997692436821     0.641641773693     0.888916913475    12.000000000000
         C           -2.665413436821    -1.014915226307    -0.753538086525    12.000000000000
         C           -3.339607436821     0.956832773693     1.106967913475    12.000000000000
         C           -4.001765436821    -0.678946226307    -0.548317086525    12.000000000000
         C            3.863540563179    -1.922910226307     0.541259913475    12.000000000000
         C           -4.341950436821     0.306977773693     0.383023913475    12.000000000000
         H           -0.443474436821     1.814887773693    -0.837590086525     1.007825032230
         H            4.197671563179     0.580412773693     0.373594913475     1.007825032230
         H            1.816067563179    -2.144829226307     0.066298913475     1.007825032230
         H            1.331838563179     3.541915773693    -0.834307086525     1.007825032230
         H            3.656389563179     2.900797773693    -0.183140086525     1.007825032230
         H           -1.218207436821     1.138601773693     1.460651913475     1.007825032230
         H           -2.384603436821    -1.797043226307    -1.454190086525     1.007825032230
         H           -3.603486436821     1.710647773693     1.844986913475     1.007825032230
         H           -4.781191436821    -1.190270226307    -1.108268086525     1.007825032230
         H            4.469152563179    -1.716981226307    -0.352928086525     1.007825032230
         H            3.849655563179    -3.000646226307     0.711932913475     1.007825032230
         H            4.349141563179    -1.452872226307     1.402157913475     1.007825032230
         H           -5.385832436821     0.562811773693     0.548687913475     1.007825032230

  Basis Set: AUG-CC-PVTZ
    Blend: AUG-CC-PVTZ
  Basis Set: (AUG-CC-PVTZ AUX)
    Blend: AUG-CC-PVTZ-JKFIT
	 Reference Energy          =    -667.2040736118431141 [Eh]
	 Singles Energy            =      -0.0000000000000000 [Eh]
	 Same-Spin Energy          =      -0.7337149485314858 [Eh]
	 Opposite-Spin Energy      =      -2.2678278549835658 [Eh]
	 Correlation Energy        =      -3.0015428035150515 [Eh]
	 Total Energy              =    -670.2056164153581221 [Eh]

	 ================> DF-SCS-MP2 Energies <==================
	-----------------------------------------------------------
	 SCS Same-Spin Scale       =       0.3333333333333333 [-]
	 SCS Opposite-Spin Scale   =       1.2000000000000000 [-]
	 SCS Same-Spin Energy      =      -0.2445716495104953 [Eh]
	 SCS Opposite-Spin Energy  =      -2.7213934259802790 [Eh]
	 SCS Correlation Energy    =      -2.9659650754907743 [Eh]
	 SCS Total Energy          =    -670.1700386873338857 [Eh]
	-----------------------------------------------------------

  Dipole Moment: [D]
     X:    -0.1632      Y:     1.7283      Z:     0.1560     Total:     1.7430

*** Psi4 exiting successfully. Buy a developer a beer!
